VIBRIO VULNIFICUS A-RIBOSWITCH in water t= 1000000.00000 step= 500000000
132253
   13C      O5'    1   5.064   4.326   7.903
   13C      H5T    2   5.037   4.321   7.995
   13C      C5'    3   5.098   4.192   7.853
   13C     H5'1    4   5.137   4.133   7.936
   13C     H5'2    5   5.165   4.197   7.767
   13C      C4'    6   4.968   4.127   7.809
   13C      H4'    7   4.990   4.025   7.779
   13C      O4'    8   4.875   4.125   7.918
   13C      C1'    9   4.740   4.118   7.870
   13C      H1'   10   4.708   4.016   7.892
   13C       N1   11   4.654   4.212   7.945
   13C       C6   12   4.697   4.334   7.993
   13C       H6   13   4.799   4.367   7.976
   13C       C5   14   4.616   4.423   8.061
   13C       H5   15   4.666   4.504   8.111
   13C       C4   16   4.479   4.378   8.079
   13C       N4   17   4.399   4.453   8.155
   13C      H41   18   4.441   4.530   8.206
   13C      H42   19   4.307   4.417   8.176
   13C       N3   20   4.432   4.270   8.021
   13C       C2   21   4.517   4.180   7.958
   13C       O2   22   4.464   4.079   7.909
   13C      C3'   23   4.886   4.194   7.700
   13C      H3'   24   4.869   4.298   7.728
   13C      C2'   25   4.750   4.131   7.717
   13C     H2'1   26   4.677   4.209   7.696
   13C      O2'   27   4.731   4.003   7.659
   13C     HO'2   28   4.814   3.976   7.619
   13C      O3'   29   4.937   4.182   7.564
   14G        P   30   4.902   4.294   7.454
   14G      O1P   31   5.006   4.312   7.351
   14G      O2P   32   4.859   4.415   7.526
   14G      O5'   33   4.774   4.238   7.389
   14G      C5'   34   4.773   4.131   7.295
   14G     H5'1   35   4.823   4.049   7.347
   14G     H5'2   36   4.828   4.160   7.205
   14G      C4'   37   4.637   4.082   7.245
   14G      H4'   38   4.647   4.009   7.164
   14G      O4'   39   4.541   4.031   7.340
   14G      C1'   40   4.415   4.089   7.309
   14G      H1'   41   4.332   4.019   7.306
   14G       N9   42   4.382   4.191   7.414
   14G       C8   43   4.460   4.248   7.510
   14G       H8   44   4.565   4.226   7.526
   14G       N7   45   4.398   4.326   7.592
   14G       C5   46   4.264   4.327   7.543
   14G       C6   47   4.141   4.397   7.586
   14G       O6   48   4.127   4.479   7.679
   14G       N1   49   4.032   4.368   7.510
   14G       H1   50   3.949   4.421   7.533
   14G       C2   51   4.047   4.304   7.388
   14G       N2   52   3.934   4.294   7.327
   14G      H21   53   3.847   4.337   7.355
   14G      H22   54   3.941   4.245   7.239
   14G       N3   55   4.154   4.227   7.342
   14G       C4   56   4.260   4.247   7.432
   14G      C3'   57   4.566   4.206   7.182
   14G      H3'   58   4.563   4.289   7.253
   14G      C2'   59   4.426   4.155   7.170
   14G     H2'1   60   4.359   4.240   7.155
   14G      O2'   61   4.418   4.059   7.061
   14G     HO'2   62   4.473   4.095   6.990
   14G      O3'   63   4.622   4.237   7.051
   15C        P   64   4.615   4.392   7.006
   15C      O1P   65   4.670   4.413   6.869
   15C      O2P   66   4.668   4.478   7.117
   15C      O5'   67   4.459   4.423   6.993
   15C      C5'   68   4.374   4.367   6.890
   15C     H5'1   69   4.375   4.260   6.913
   15C     H5'2   70   4.416   4.382   6.791
   15C      C4'   71   4.234   4.432   6.912
   15C      H4'   72   4.172   4.389   6.834
   15C      O4'   73   4.179   4.393   7.032
   15C      C1'   74   4.091   4.493   7.075
   15C      H1'   75   3.990   4.453   7.085
   15C       N1   76   4.141   4.559   7.202
   15C       C6   77   4.276   4.550   7.236
   15C       H6   78   4.350   4.492   7.182
   15C       C5   79   4.321   4.623   7.350
   15C       H5   80   4.425   4.618   7.377
   15C       C4   81   4.226   4.696   7.422
   15C       N4   82   4.266   4.756   7.531
   15C      H41   83   4.362   4.751   7.561
   15C      H42   84   4.207   4.830   7.567
   15C       N3   85   4.098   4.709   7.386
   15C       C2   86   4.054   4.641   7.279
   15C       O2   87   3.935   4.654   7.250
   15C      C3'   88   4.228   4.580   6.905
   15C      H3'   89   4.304   4.624   6.969
   15C      C2'   90   4.088   4.600   6.962
   15C     H2'1   91   4.078   4.703   6.997
   15C      O2'   92   3.990   4.572   6.863
   15C     HO'2   93   4.020   4.598   6.776
   15C      O3'   94   4.256   4.643   6.782
   16U        P   95   4.305   4.790   6.773
   16U      O1P   96   4.326   4.823   6.626
   16U      O2P   97   4.422   4.807   6.861
   16U      O5'   98   4.183   4.883   6.828
   16U      C5'   99   4.060   4.900   6.759
   16U     H5'1  100   3.995   4.813   6.764
   16U     H5'2  101   4.085   4.925   6.656
   16U      C4'  102   3.987   5.018   6.828
   16U      H4'  103   3.889   5.028   6.781
   16U      O4'  104   3.966   4.985   6.960
   16U      C1'  105   3.981   5.097   7.045
   16U      H1'  106   3.896   5.111   7.111
   16U       N1  107   4.093   5.081   7.139
   16U       C6  108   4.187   4.973   7.137
   16U       H6  109   4.188   4.899   7.058
   16U       C5  110   4.277   4.964   7.235
   16U       H5  111   4.351   4.886   7.223
   16U       C4  112   4.285   5.055   7.347
   16U       O4  113   4.360   5.053   7.441
   16U       N3  114   4.192   5.160   7.342
   16U       H3  115   4.179   5.218   7.424
   16U       C2  116   4.093   5.171   7.243
   16U       O2  117   4.005   5.264   7.249
   16U      C3'  118   4.055   5.149   6.831
   16U      H3'  119   4.158   5.124   6.858
   16U      C2'  120   3.987   5.219   6.944
   16U     H2'1  121   4.051   5.299   6.978
   16U      O2'  122   3.851   5.262   6.912
   16U     HO'2  123   3.793   5.186   6.911
   16U      O3'  124   4.060   5.224   6.710
   17U        P  125   4.170   5.342   6.697
   17U      O1P  126   4.172   5.368   6.556
   17U      O2P  127   4.304   5.300   6.746
   17U      O5'  128   4.119   5.474   6.774
   17U      C5'  129   3.987   5.540   6.758
   17U     H5'1  130   3.908   5.467   6.774
   17U     H5'2  131   3.980   5.589   6.661
   17U      C4'  132   3.975   5.651   6.871
   17U      H4'  133   3.885   5.709   6.851
   17U      O4'  134   3.961   5.578   6.989
   17U      C1'  135   4.034   5.646   7.088
   17U      H1'  136   3.970   5.658   7.175
   17U       N1  137   4.149   5.570   7.152
   17U       C6  138   4.240   5.496   7.075
   17U       H6  139   4.220   5.491   6.969
   17U       C5  140   4.343   5.430   7.131
   17U       H5  141   4.403   5.381   7.056
   17U       C4  142   4.360   5.418   7.270
   17U       O4  143   4.448   5.365   7.334
   17U       N3  144   4.279   5.498   7.338
   17U       H3  145   4.318   5.526   7.427
   17U       C2  146   4.169   5.573   7.288
   17U       O2  147   4.119   5.659   7.358
   17U      C3'  148   4.097   5.743   6.891
   17U      H3'  149   4.186   5.681   6.884
   17U      C2'  150   4.079   5.777   7.036
   17U     H2'1  151   4.166   5.811   7.092
   17U      O2'  152   3.971   5.870   7.057
   17U     HO'2  153   3.968   5.929   6.982
   17U      O3'  154   4.100   5.853   6.807
   18C        P  155   4.232   5.930   6.788
   18C      O1P  156   4.197   6.041   6.695
   18C      O2P  157   4.344   5.840   6.743
   18C      O5'  158   4.271   6.002   6.926
   18C      C5'  159   4.207   6.115   6.975
   18C     H5'1  160   4.101   6.093   6.993
   18C     H5'2  161   4.208   6.198   6.905
   18C      C4'  162   4.269   6.167   7.109
   18C      H4'  163   4.217   6.255   7.145
   18C      O4'  164   4.252   6.065   7.207
   18C      C1'  165   4.366   6.063   7.296
   18C      H1'  166   4.343   6.088   7.400
   18C       N1  167   4.441   5.935   7.291
   18C       C6  168   4.450   5.852   7.176
   18C       H6  169   4.395   5.882   7.089
   18C       C5  170   4.530   5.743   7.177
   18C       H5  171   4.554   5.680   7.094
   18C       C4  172   4.599   5.717   7.303
   18C       N4  173   4.682   5.618   7.309
   18C      H41  174   4.671   5.549   7.235
   18C      H42  175   4.729   5.602   7.397
   18C       N3  176   4.600   5.797   7.408
   18C       C2  177   4.529   5.909   7.400
   18C       O2  178   4.552   5.999   7.487
   18C      C3'  179   4.423   6.191   7.104
   18C      H3'  180   4.469   6.117   7.038
   18C      C2'  181   4.460   6.171   7.250
   18C     H2'1  182   4.562   6.135   7.250
   18C      O2'  183   4.429   6.286   7.329
   18C     HO'2  184   4.474   6.353   7.276
   18C      O3'  185   4.442   6.321   7.050
   19A        P  186   4.572   6.350   6.958
   19A      O1P  187   4.552   6.487   6.898
   19A      O2P  188   4.596   6.234   6.872
   19A      O5'  189   4.685   6.352   7.070
   19A      C5'  190   4.718   6.470   7.145
   19A     H5'1  191   4.625   6.516   7.178
   19A     H5'2  192   4.754   6.554   7.085
   19A      C4'  193   4.812   6.439   7.261
   19A      H4'  194   4.818   6.531   7.320
   19A      O4'  195   4.771   6.332   7.343
   19A      C1'  196   4.879   6.257   7.397
   19A      H1'  197   4.889   6.268   7.505
   19A       N9  198   4.867   6.118   7.356
   19A       C8  199   4.820   6.070   7.236
   19A       H8  200   4.765   6.125   7.160
   19A       N7  201   4.853   5.941   7.220
   19A       C5  202   4.939   5.910   7.334
   19A       C6  203   5.009   5.798   7.376
   19A       N6  204   5.027   5.677   7.317
   19A      H61  205   4.990   5.650   7.227
   19A      H62  206   5.082   5.605   7.360
   19A       N1  207   5.072   5.808   7.491
   19A       C2  208   5.070   5.918   7.568
   19A       H2  209   5.129   5.922   7.658
   19A       N3  210   5.008   6.030   7.534
   19A       C4  211   4.937   6.014   7.418
   19A      C3'  212   4.957   6.406   7.221
   19A      H3'  213   4.956   6.355   7.125
   19A      C2'  214   5.006   6.309   7.328
   19A     H2'1  215   5.057   6.227   7.277
   19A      O2'  216   5.088   6.362   7.428
   19A     HO'2  217   5.169   6.397   7.393
   19A      O3'  218   5.039   6.516   7.227
   20U        P  219   5.165   6.540   7.141
   20U      O1P  220   5.178   6.681   7.106
   20U      O2P  221   5.173   6.442   7.029
   20U      O5'  222   5.275   6.499   7.248
   20U      C5'  223   5.319   6.589   7.349
   20U     H5'1  224   5.229   6.605   7.409
   20U     H5'2  225   5.348   6.687   7.309
   20U      C4'  226   5.422   6.530   7.438
   20U      H4'  227   5.462   6.598   7.513
   20U      O4'  228   5.370   6.411   7.496
   20U      C1'  229   5.466   6.311   7.511
   20U      H1'  230   5.472   6.286   7.617
   20U       N1  231   5.418   6.180   7.438
   20U       C6  232   5.360   6.181   7.314
   20U       H6  233   5.362   6.279   7.267
   20U       C5  234   5.328   6.061   7.255
   20U       H5  235   5.291   6.054   7.154
   20U       C4  236   5.351   5.937   7.324
   20U       O4  237   5.314   5.831   7.271
   20U       N3  238   5.396   5.945   7.450
   20U       H3  239   5.425   5.858   7.492
   20U       C2  240   5.442   6.056   7.505
   20U       O2  241   5.509   6.046   7.610
   20U      C3'  242   5.543   6.473   7.351
   20U      H3'  243   5.501   6.430   7.259
   20U      C2'  244   5.599   6.366   7.448
   20U     H2'1  245   5.647   6.292   7.383
   20U      O2'  246   5.680   6.415   7.558
   20U     HO'2  247   5.754   6.354   7.564
   20U      O3'  248   5.632   6.582   7.313
   21A        P  249   5.720   6.576   7.182
   21A      O1P  250   5.802   6.697   7.182
   21A      O2P  251   5.630   6.548   7.071
   21A      O5'  252   5.813   6.450   7.193
   21A      C5'  253   5.925   6.451   7.279
   21A     H5'1  254   5.889   6.495   7.373
   21A     H5'2  255   5.993   6.526   7.238
   21A      C4'  256   5.982   6.310   7.282
   21A      H4'  257   6.071   6.318   7.345
   21A      O4'  258   5.883   6.226   7.333
   21A      C1'  259   5.907   6.098   7.278
   21A      H1'  260   5.924   6.033   7.364
   21A       N9  261   5.791   6.037   7.198
   21A       C8  262   5.686   6.100   7.140
   21A       H8  263   5.672   6.204   7.165
   21A       N7  264   5.595   6.030   7.085
   21A       C5  265   5.648   5.896   7.098
   21A       C6  266   5.620   5.765   7.044
   21A       N6  267   5.538   5.754   6.950
   21A      H61  268   5.494   5.838   6.917
   21A      H62  269   5.503   5.662   6.929
   21A       N1  270   5.684   5.658   7.083
   21A       C2  271   5.784   5.679   7.170
   21A       H2  272   5.832   5.591   7.209
   21A       N3  273   5.829   5.791   7.224
   21A       C4  274   5.764   5.901   7.178
   21A      C3'  275   6.021   6.251   7.143
   21A      H3'  276   5.944   6.276   7.070
   21A      C2'  277   6.023   6.109   7.187
   21A     H2'1  278   6.011   6.040   7.104
   21A      O2'  279   6.151   6.094   7.249
   21A     HO'2  280   6.207   6.162   7.210
   21A      O3'  281   6.154   6.301   7.107
   22U        P  282   6.204   6.290   6.960
   22U      O1P  283   6.341   6.253   6.978
   22U      O2P  284   6.171   6.417   6.892
   22U      O5'  285   6.131   6.173   6.879
   22U      C5'  286   6.069   6.192   6.749
   22U     H5'1  287   6.144   6.235   6.683
   22U     H5'2  288   5.984   6.259   6.762
   22U      C4'  289   6.008   6.063   6.699
   22U      H4'  290   5.951   6.088   6.610
   22U      O4'  291   6.119   5.976   6.677
   22U      C1'  292   6.082   5.844   6.714
   22U      H1'  293   6.012   5.816   6.635
   22U       N1  294   6.187   5.744   6.722
   22U       C6  295   6.298   5.763   6.805
   22U       H6  296   6.317   5.860   6.849
   22U       C5  297   6.391   5.663   6.812
   22U       H5  298   6.477   5.676   6.876
   22U       C4  299   6.371   5.533   6.747
   22U       O4  300   6.450   5.441   6.747
   22U       N3  301   6.257   5.526   6.680
   22U       H3  302   6.246   5.434   6.640
   22U       C2  303   6.163   5.623   6.659
   22U       O2  304   6.060   5.601   6.595
   22U      C3'  305   5.921   6.000   6.809
   22U      H3'  306   5.901   6.065   6.893
   22U      C2'  307   6.008   5.879   6.849
   22U     H2'1  308   6.089   5.903   6.918
   22U      O2'  309   5.941   5.762   6.897
   22U     HO'2  310   5.849   5.765   6.867
   22U      O3'  311   5.797   5.951   6.785
   23A        P  312   5.672   6.041   6.738
   23A      O1P  313   5.673   6.162   6.822
   23A      O2P  314   5.554   5.954   6.731
   23A      O5'  315   5.713   6.091   6.585
   23A      C5'  316   5.684   6.227   6.536
   23A     H5'1  317   5.698   6.297   6.618
   23A     H5'2  318   5.577   6.227   6.513
   23A      C4'  319   5.774   6.261   6.423
   23A      H4'  320   5.740   6.351   6.372
   23A      O4'  321   5.910   6.278   6.467
   23A      C1'  322   5.979   6.281   6.348
   23A      H1'  323   5.982   6.387   6.324
   23A       N9  324   6.117   6.226   6.374
   23A       C8  325   6.231   6.302   6.395
   23A       H8  326   6.229   6.409   6.387
   23A       N7  327   6.338   6.230   6.422
   23A       C5  328   6.293   6.096   6.411
   23A       C6  329   6.353   5.972   6.450
   23A       N6  330   6.466   5.955   6.514
   23A      H61  331   6.510   6.040   6.548
   23A      H62  332   6.496   5.861   6.537
   23A       N1  333   6.286   5.861   6.419
   23A       C2  334   6.159   5.870   6.387
   23A       H2  335   6.119   5.770   6.378
   23A       N3  336   6.085   5.977   6.367
   23A       C4  337   6.158   6.094   6.387
   23A      C3'  338   5.791   6.151   6.316
   23A      H3'  339   5.822   6.059   6.366
   23A      C2'  340   5.905   6.215   6.234
   23A     H2'1  341   5.958   6.145   6.170
   23A      O2'  342   5.869   6.319   6.141
   23A     HO'2  343   5.804   6.287   6.079
   23A      O3'  344   5.667   6.137   6.254
   24A        P  345   5.628   6.004   6.184
   24A      O1P  346   5.507   6.034   6.109
   24A      O2P  347   5.633   5.896   6.284
   24A      O5'  348   5.748   5.980   6.077
   24A      C5'  349   5.849   5.876   6.088
   24A     H5'1  350   5.881   5.862   6.191
   24A     H5'2  351   5.940   5.907   6.035
   24A      C4'  352   5.819   5.734   6.034
   24A      H4'  353   5.915   5.686   6.014
   24A      O4'  354   5.733   5.658   6.113
   24A      C1'  355   5.673   5.557   6.032
   24A      H1'  356   5.703   5.454   6.051
   24A       N9  357   5.525   5.572   6.053
   24A       C8  358   5.446   5.678   6.091
   24A       H8  359   5.481   5.779   6.105
   24A       N7  360   5.325   5.646   6.099
   24A       C5  361   5.316   5.514   6.060
   24A       C6  362   5.215   5.420   6.028
   24A       N6  363   5.084   5.428   6.043
   24A      H61  364   5.043   5.517   6.068
   24A      H62  365   5.030   5.343   6.048
   24A       N1  366   5.244   5.299   5.996
   24A       C2  367   5.367   5.257   5.978
   24A       H2  368   5.372   5.154   5.945
   24A       N3  369   5.474   5.337   5.995
   24A       C4  370   5.441   5.467   6.030
   24A      C3'  371   5.747   5.737   5.890
   24A      H3'  372   5.659   5.802   5.889
   24A      C2'  373   5.697   5.593   5.884
   24A     H2'1  374   5.612   5.580   5.818
   24A      O2'  375   5.799   5.512   5.842
   24A     HO'2  376   5.846   5.566   5.778
   24A      O3'  377   5.830   5.765   5.785
   25U        P  378   5.872   5.915   5.740
   25U      O1P  379   5.754   6.007   5.752
   25U      O2P  380   5.932   5.899   5.605
   25U      O5'  381   5.995   5.973   5.830
   25U      C5'  382   5.990   6.110   5.858
   25U     H5'1  383   5.917   6.127   5.938
   25U     H5'2  384   5.962   6.162   5.767
   25U      C4'  385   6.129   6.159   5.901
   25U      H4'  386   6.121   6.265   5.924
   25U      O4'  387   6.164   6.099   6.026
   25U      C1'  388   6.308   6.078   6.025
   25U      H1'  389   6.343   6.130   6.114
   25U       N1  390   6.354   5.936   6.025
   25U       C6  391   6.292   5.833   5.953
   25U       H6  392   6.225   5.864   5.874
   25U       C5  393   6.334   5.702   5.965
   25U       H5  394   6.292   5.623   5.904
   25U       C4  395   6.435   5.665   6.060
   25U       O4  396   6.473   5.550   6.071
   25U       N3  397   6.482   5.767   6.139
   25U       H3  398   6.560   5.737   6.196
   25U       C2  399   6.461   5.905   6.110
   25U       O2  400   6.523   5.992   6.175
   25U      C3'  401   6.241   6.157   5.803
   25U      H3'  402   6.245   6.053   5.771
   25U      C2'  403   6.354   6.168   5.902
   25U     H2'1  404   6.454   6.147   5.865
   25U      O2'  405   6.375   6.295   5.956
   25U     HO'2  406   6.470   6.298   5.972
   25U      O3'  407   6.243   6.253   5.699
   26C        P  408   6.345   6.231   5.573
   26C      O1P  409   6.323   6.347   5.478
   26C      O2P  410   6.319   6.096   5.518
   26C      O5'  411   6.494   6.231   5.637
   26C      C5'  412   6.545   6.351   5.685
   26C     H5'1  413   6.477   6.404   5.752
   26C     H5'2  414   6.560   6.417   5.599
   26C      C4'  415   6.681   6.338   5.759
   26C      H4'  416   6.705   6.441   5.785
   26C      O4'  417   6.679   6.264   5.879
   26C      C1'  418   6.798   6.177   5.896
   26C      H1'  419   6.850   6.195   5.990
   26C       N1  420   6.770   6.033   5.883
   26C       C6  421   6.656   5.980   5.824
   26C       H6  422   6.585   6.039   5.769
   26C       C5  423   6.628   5.846   5.826
   26C       H5  424   6.534   5.806   5.790
   26C       C4  425   6.732   5.760   5.873
   26C       N4  426   6.696   5.633   5.894
   26C      H41  427   6.603   5.601   5.876
   26C      H42  428   6.767   5.566   5.919
   26C       N3  429   6.845   5.807   5.925
   26C       C2  430   6.869   5.938   5.914
   26C       O2  431   6.987   5.969   5.926
   26C      C3'  432   6.802   6.282   5.683
   26C      H3'  433   6.763   6.204   5.618
   26C      C2'  434   6.895   6.227   5.791
   26C     H2'1  435   6.972   6.165   5.744
   26C      O2'  436   6.986   6.320   5.856
   26C     HO'2  437   6.984   6.404   5.811
   26C      O3'  438   6.871   6.382   5.600
   27C        P  439   6.957   6.336   5.472
   27C      O1P  440   7.017   6.457   5.416
   27C      O2P  441   6.873   6.260   5.375
   27C      O5'  442   7.072   6.242   5.509
   27C      C5'  443   7.197   6.288   5.557
   27C     H5'1  444   7.174   6.348   5.645
   27C     H5'2  445   7.240   6.355   5.482
   27C      C4'  446   7.284   6.169   5.590
   27C      H4'  447   7.382   6.201   5.626
   27C      O4'  448   7.221   6.079   5.678
   27C      C1'  449   7.274   5.949   5.664
   27C      H1'  450   7.320   5.921   5.759
   27C       N1  451   7.169   5.847   5.635
   27C       C6  452   7.046   5.884   5.587
   27C       H6  453   7.029   5.985   5.551
   27C       C5  454   6.954   5.789   5.578
   27C       H5  455   6.857   5.815   5.538
   27C       C4  456   6.982   5.658   5.630
   27C       N4  457   6.903   5.555   5.619
   27C      H41  458   6.810   5.559   5.579
   27C      H42  459   6.932   5.462   5.644
   27C       N3  460   7.099   5.625   5.678
   27C       C2  461   7.196   5.719   5.681
   27C       O2  462   7.307   5.683   5.718
   27C      C3'  463   7.325   6.081   5.471
   27C      H3'  464   7.236   6.049   5.416
   27C      C2'  465   7.376   5.960   5.545
   27C     H2'1  466   7.370   5.873   5.480
   27C      O2'  467   7.502   5.976   5.609
   27C     HO'2  468   7.570   6.003   5.547
   27C      O3'  469   7.422   6.143   5.391
   28U        P  470   7.446   6.091   5.239
   28U      O1P  471   7.566   6.172   5.190
   28U      O2P  472   7.311   6.101   5.173
   28U      O5'  473   7.496   5.940   5.251
   28U      C5'  474   7.628   5.911   5.275
   28U     H5'1  475   7.665   5.962   5.364
   28U     H5'2  476   7.696   5.942   5.196
   28U      C4'  477   7.647   5.759   5.285
   28U      H4'  478   7.751   5.737   5.309
   28U      O4'  479   7.568   5.698   5.386
   28U      C1'  480   7.529   5.568   5.332
   28U      H1'  481   7.560   5.487   5.398
   28U       N1  482   7.379   5.554   5.316
   28U       C6  483   7.301   5.668   5.301
   28U       H6  484   7.345   5.766   5.298
   28U       C5  485   7.166   5.657   5.275
   28U       H5  486   7.101   5.740   5.253
   28U       C4  487   7.095   5.531   5.274
   28U       O4  488   6.976   5.514   5.257
   28U       N3  489   7.175   5.417   5.294
   28U       H3  490   7.135   5.325   5.302
   28U       C2  491   7.316   5.431   5.312
   28U       O2  492   7.381   5.329   5.323
   28U      C3'  493   7.615   5.697   5.149
   28U      H3'  494   7.520   5.735   5.111
   28U      C2'  495   7.591   5.557   5.195
   28U     H2'1  496   7.524   5.500   5.131
   28U      O2'  497   7.714   5.489   5.211
   28U     HO'2  498   7.744   5.481   5.120
   28U      O3'  499   7.709   5.722   5.056
   29A        P  500   7.691   5.678   4.896
   29A      O1P  501   7.810   5.723   4.821
   29A      O2P  502   7.555   5.712   4.844
   29A      O5'  503   7.710   5.519   4.892
   29A      C5'  504   7.838   5.460   4.889
   29A     H5'1  505   7.895   5.502   4.972
   29A     H5'2  506   7.876   5.480   4.788
   29A      C4'  507   7.820   5.310   4.912
   29A      H4'  508   7.915   5.261   4.937
   29A      O4'  509   7.730   5.288   5.019
   29A      C1'  510   7.660   5.170   5.000
   29A      H1'  511   7.668   5.094   5.077
   29A       N9  512   7.511   5.194   4.994
   29A       C8  513   7.449   5.312   4.974
   29A       H8  514   7.502   5.404   4.955
   29A       N7  515   7.322   5.318   4.966
   29A       C5  516   7.290   5.183   4.992
   29A       C6  517   7.168   5.117   5.014
   29A       N6  518   7.051   5.170   5.010
   29A      H61  519   7.046   5.267   4.983
   29A      H62  520   6.966   5.117   5.022
   29A       N1  521   7.169   4.984   5.038
   29A       C2  522   7.285   4.922   5.036
   29A       H2  523   7.276   4.816   5.056
   29A       N3  524   7.406   4.970   5.022
   29A       C4  525   7.401   5.105   5.006
   29A      C3'  526   7.752   5.244   4.789
   29A      H3'  527   7.662   5.299   4.764
   29A      C2'  528   7.705   5.120   4.860
   29A     H2'1  529   7.623   5.078   4.801
   29A      O2'  530   7.809   5.029   4.877
   29A     HO'2  531   7.873   5.047   4.808
   29A      O3'  532   7.833   5.203   4.684
   30A        P  533   7.768   5.156   4.549
   30A      O1P  534   7.882   5.110   4.465
   30A      O2P  535   7.692   5.276   4.500
   30A      O5'  536   7.672   5.024   4.561
   30A      C5'  537   7.727   4.898   4.560
   30A     H5'1  538   7.802   4.895   4.639
   30A     H5'2  539   7.781   4.881   4.466
   30A      C4'  540   7.617   4.799   4.574
   30A      H4'  541   7.654   4.699   4.593
   30A      O4'  542   7.533   4.841   4.680
   30A      C1'  543   7.404   4.786   4.667
   30A      H1'  544   7.371   4.715   4.743
   30A       N9  545   7.305   4.897   4.677
   30A       C8  546   7.330   5.031   4.670
   30A       H8  547   7.431   5.067   4.661
   30A       N7  548   7.217   5.100   4.669
   30A       C5  549   7.114   5.015   4.675
   30A       C6  550   6.974   5.021   4.702
   30A       N6  551   6.910   5.133   4.724
   30A      H61  552   6.962   5.219   4.710
   30A      H62  553   6.810   5.136   4.737
   30A       N1  554   6.897   4.916   4.702
   30A       C2  555   6.954   4.801   4.701
   30A       H2  556   6.888   4.716   4.710
   30A       N3  557   7.089   4.775   4.687
   30A       C4  558   7.166   4.890   4.680
   30A      C3'  559   7.518   4.792   4.453
   30A      H3'  560   7.486   4.893   4.424
   30A      C2'  561   7.400   4.717   4.527
   30A     H2'1  562   7.302   4.726   4.480
   30A      O2'  563   7.433   4.583   4.538
   30A     HO'2  564   7.450   4.559   4.446
   30A      O3'  565   7.572   4.715   4.344
   31U        P  566   7.549   4.766   4.192
   31U      O1P  567   7.613   4.666   4.107
   31U      O2P  568   7.591   4.902   4.177
   31U      O5'  569   7.392   4.755   4.178
   31U      C5'  570   7.335   4.626   4.172
   31U     H5'1  571   7.366   4.566   4.257
   31U     H5'2  572   7.365   4.580   4.079
   31U      C4'  573   7.182   4.618   4.169
   31U      H4'  574   7.163   4.510   4.169
   31U      O4'  575   7.124   4.678   4.287
   31U      C1'  576   6.993   4.729   4.267
   31U      H1'  577   6.917   4.677   4.326
   31U       N1  578   6.988   4.882   4.292
   31U       C6  579   7.108   4.954   4.309
   31U       H6  580   7.205   4.908   4.293
   31U       C5  581   7.099   5.080   4.354
   31U       H5  582   7.192   5.133   4.367
   31U       C4  583   6.971   5.138   4.395
   31U       O4  584   6.954   5.246   4.447
   31U       N3  585   6.862   5.063   4.374
   31U       H3  586   6.773   5.102   4.400
   31U       C2  587   6.862   4.940   4.319
   31U       O2  588   6.756   4.880   4.304
   31U      C3'  589   7.111   4.693   4.058
   31U      H3'  590   7.145   4.796   4.063
   31U      C2'  591   6.967   4.692   4.120
   31U     H2'1  592   6.905   4.767   4.070
   31U      O2'  593   6.897   4.571   4.119
   31U     HO'2  594   6.880   4.551   4.027
   31U      O3'  595   7.124   4.632   3.926
   32G        P  596   7.097   4.728   3.805
   32G      O1P  597   7.116   4.653   3.678
   32G      O2P  598   7.177   4.856   3.820
   32G      O5'  599   6.934   4.759   3.813
   32G      C5'  600   6.846   4.681   3.737
   32G     H5'1  601   6.862   4.574   3.754
   32G     H5'2  602   6.873   4.700   3.634
   32G      C4'  603   6.695   4.705   3.770
   32G      H4'  604   6.634   4.618   3.747
   32G      O4'  605   6.686   4.732   3.912
   32G      C1'  606   6.582   4.824   3.935
   32G      H1'  607   6.506   4.794   4.008
   32G       N9  608   6.628   4.964   3.973
   32G       C8  609   6.756   5.018   3.954
   32G       H8  610   6.833   4.947   3.929
   32G       N7  611   6.768   5.145   3.989
   32G       C5  612   6.637   5.181   4.023
   32G       C6  613   6.581   5.306   4.076
   32G       O6  614   6.642   5.411   4.096
   32G       N1  615   6.441   5.302   4.091
   32G       H1  616   6.399   5.387   4.128
   32G       C2  617   6.367   5.191   4.064
   32G       N2  618   6.241   5.205   4.082
   32G      H21  619   6.201   5.294   4.106
   32G      H22  620   6.181   5.130   4.049
   32G       N3  621   6.409   5.074   4.027
   32G       C4  622   6.549   5.076   4.007
   32G      C3'  623   6.638   4.827   3.708
   32G      H3'  624   6.714   4.905   3.710
   32G      C2'  625   6.520   4.854   3.802
   32G     H2'1  626   6.496   4.959   3.785
   32G      O2'  627   6.406   4.770   3.782
   32G     HO'2  628   6.334   4.817   3.825
   32G      O3'  629   6.598   4.794   3.575
   33A        P  630   6.567   4.903   3.466
   33A      O1P  631   6.560   4.831   3.338
   33A      O2P  632   6.667   5.016   3.477
   33A      O5'  633   6.427   4.967   3.509
   33A      C5'  634   6.307   4.895   3.500
   33A     H5'1  635   6.308   4.807   3.564
   33A     H5'2  636   6.296   4.865   3.395
   33A      C4'  637   6.193   4.980   3.550
   33A      H4'  638   6.105   4.915   3.552
   33A      O4'  639   6.206   5.026   3.685
   33A      C1'  640   6.141   5.150   3.702
   33A      H1'  641   6.066   5.144   3.781
   33A       N9  642   6.238   5.259   3.737
   33A       C8  643   6.375   5.247   3.739
   33A       H8  644   6.430   5.159   3.711
   33A       N7  645   6.434   5.361   3.771
   33A       C5  646   6.328   5.451   3.791
   33A       C6  647   6.305   5.589   3.835
   33A       N6  648   6.404   5.672   3.850
   33A      H61  649   6.497   5.633   3.855
   33A      H62  650   6.379   5.767   3.872
   33A       N1  651   6.188   5.642   3.854
   33A       C2  652   6.082   5.560   3.834
   33A       H2  653   5.989   5.612   3.849
   33A       N3  654   6.079   5.433   3.797
   33A       C4  655   6.205   5.389   3.767
   33A      C3'  656   6.163   5.102   3.467
   33A      H3'  657   6.249   5.168   3.453
   33A      C2'  658   6.075   5.175   3.569
   33A     H2'1  659   6.059   5.280   3.547
   33A      O2'  660   5.946   5.121   3.577
   33A     HO'2  661   5.890   5.178   3.631
   33A      O3'  662   6.094   5.078   3.347
   34U        P  663   6.104   5.171   3.219
   34U      O1P  664   6.052   5.100   3.102
   34U      O2P  665   6.242   5.216   3.214
   34U      O5'  666   6.011   5.292   3.264
   34U      C5'  667   5.868   5.275   3.294
   34U     H5'1  668   5.852   5.204   3.375
   34U     H5'2  669   5.825   5.233   3.202
   34U      C4'  670   5.813   5.411   3.337
   34U      H4'  671   5.715   5.396   3.382
   34U      O4'  672   5.879   5.463   3.451
   34U      C1'  673   5.937   5.585   3.418
   34U      H1'  674   5.864   5.655   3.460
   34U       N1  675   6.075   5.602   3.469
   34U       C6  676   6.177   5.512   3.437
   34U       H6  677   6.149   5.420   3.388
   34U       C5  678   6.304   5.548   3.451
   34U       H5  679   6.388   5.483   3.433
   34U       C4  680   6.338   5.679   3.503
   34U       O4  681   6.459   5.713   3.525
   34U       N3  682   6.239   5.763   3.540
   34U       H3  683   6.257   5.859   3.566
   34U       C2  684   6.107   5.728   3.528
   34U       O2  685   6.022   5.810   3.560
   34U      C3'  686   5.815   5.517   3.224
   34U      H3'  687   5.830   5.473   3.125
   34U      C2'  688   5.938   5.602   3.260
   34U     H2'1  689   6.019   5.551   3.208
   34U      O2'  690   5.912   5.739   3.213
   34U     HO'2  691   5.989   5.795   3.206
   34U      O3'  692   5.685   5.582   3.230
   35A        P  693   5.572   5.532   3.129
   35A      O1P  694   5.554   5.391   3.122
   35A      O2P  695   5.602   5.610   3.007
   35A      O5'  696   5.449   5.597   3.205
   35A      C5'  697   5.390   5.546   3.326
   35A     H5'1  698   5.469   5.521   3.397
   35A     H5'2  699   5.335   5.458   3.293
   35A      C4'  700   5.294   5.636   3.391
   35A      H4'  701   5.229   5.582   3.459
   35A      O4'  702   5.355   5.735   3.471
   35A      C1'  703   5.315   5.864   3.425
   35A      H1'  704   5.290   5.930   3.508
   35A       N9  705   5.431   5.927   3.356
   35A       C8  706   5.552   5.867   3.329
   35A       H8  707   5.577   5.766   3.357
   35A       N7  708   5.639   5.948   3.273
   35A       C5  709   5.561   6.069   3.258
   35A       C6  710   5.579   6.194   3.197
   35A       N6  711   5.696   6.241   3.150
   35A      H61  712   5.779   6.186   3.166
   35A      H62  713   5.697   6.328   3.099
   35A       N1  714   5.479   6.285   3.193
   35A       C2  715   5.367   6.260   3.251
   35A       H2  716   5.298   6.342   3.247
   35A       N3  717   5.335   6.148   3.317
   35A       C4  718   5.435   6.057   3.313
   35A      C3'  719   5.207   5.699   3.283
   35A      H3'  720   5.252   5.714   3.184
   35A      C2'  721   5.188   5.843   3.337
   35A     H2'1  722   5.186   5.911   3.252
   35A      O2'  723   5.075   5.860   3.415
   35A     HO'2  724   5.070   5.797   3.488
   35A      O3'  725   5.076   5.651   3.261
   36U        P  726   5.062   5.532   3.164
   36U      O1P  727   5.155   5.556   3.051
   36U      O2P  728   4.920   5.508   3.138
   36U      O5'  729   5.112   5.407   3.252
   36U      C5'  730   5.033   5.359   3.361
   36U     H5'1  731   4.929   5.389   3.349
   36U     H5'2  732   5.053   5.409   3.456
   36U      C4'  733   5.041   5.210   3.389
   36U      H4'  734   4.978   5.196   3.476
   36U      O4'  735   4.992   5.140   3.276
   36U      C1'  736   5.090   5.048   3.231
   36U      H1'  737   5.076   4.949   3.275
   36U       N1  738   5.085   5.046   3.081
   36U       C6  739   5.086   5.163   3.011
   36U       H6  740   5.089   5.258   3.062
   36U       C5  741   5.072   5.164   2.877
   36U       H5  742   5.064   5.258   2.825
   36U       C4  743   5.063   5.043   2.804
   36U       O4  744   5.052   5.030   2.682
   36U       N3  745   5.083   4.930   2.875
   36U       H3  746   5.085   4.842   2.825
   36U       C2  747   5.103   4.927   3.011
   36U       O2  748   5.131   4.821   3.072
   36U      C3'  749   5.180   5.151   3.420
   36U      H3'  750   5.240   5.238   3.448
   36U      C2'  751   5.224   5.098   3.284
   36U     H2'1  752   5.262   5.183   3.228
   36U      O2'  753   5.306   4.984   3.298
   36U     HO'2  754   5.274   4.939   3.376
   36U      O3'  755   5.183   5.045   3.521
   37G        P  756   5.203   5.079   3.681
   37G      O1P  757   5.213   4.952   3.759
   37G      O2P  758   5.090   5.174   3.725
   37G      O5'  759   5.348   5.150   3.685
   37G      C5'  760   5.467   5.093   3.640
   37G     H5'1  761   5.463   5.083   3.531
   37G     H5'2  762   5.493   5.002   3.694
   37G      C4'  763   5.590   5.179   3.664
   37G      H4'  764   5.682   5.135   3.627
   37G      O4'  765   5.565   5.301   3.597
   37G      C1'  766   5.632   5.402   3.663
   37G      H1'  767   5.707   5.455   3.604
   37G       N9  768   5.535   5.502   3.712
   37G       C8  769   5.399   5.486   3.737
   37G       H8  770   5.356   5.387   3.742
   37G       N7  771   5.345   5.597   3.774
   37G       C5  772   5.442   5.698   3.750
   37G       C6  773   5.438   5.841   3.742
   37G       O6  774   5.344   5.924   3.755
   37G       N1  775   5.557   5.900   3.723
   37G       H1  776   5.563   5.998   3.745
   37G       C2  777   5.671   5.834   3.704
   37G       N2  778   5.780   5.902   3.682
   37G      H21  779   5.767   6.002   3.668
   37G      H22  780   5.848   5.846   3.632
   37G       N3  781   5.691   5.701   3.703
   37G       C4  782   5.568   5.637   3.721
   37G      C3'  783   5.617   5.220   3.811
   37G      H3'  784   5.529   5.252   3.866
   37G      C2'  785   5.704   5.344   3.779
   37G     H2'1  786   5.714   5.419   3.857
   37G      O2'  787   5.832   5.306   3.730
   37G     HO'2  788   5.902   5.346   3.781
   37G      O3'  789   5.688   5.122   3.888
   38G        P  790   5.690   5.124   4.049
   38G      O1P  791   5.790   5.022   4.080
   38G      O2P  792   5.548   5.109   4.095
   38G      O5'  793   5.740   5.273   4.098
   38G      C5'  794   5.873   5.311   4.088
   38G     H5'1  795   5.910   5.294   3.987
   38G     H5'2  796   5.930   5.239   4.147
   38G      C4'  797   5.895   5.457   4.128
   38G      H4'  798   6.002   5.478   4.127
   38G      O4'  799   5.827   5.547   4.043
   38G      C1'  800   5.800   5.671   4.107
   38G      H1'  801   5.856   5.752   4.063
   38G       N9  802   5.659   5.699   4.083
   38G       C8  803   5.552   5.615   4.100
   38G       H8  804   5.571   5.509   4.097
   38G       N7  805   5.439   5.674   4.113
   38G       C5  806   5.468   5.808   4.079
   38G       C6  807   5.395   5.932   4.065
   38G       O6  808   5.275   5.955   4.075
   38G       N1  809   5.472   6.045   4.034
   38G       H1  810   5.430   6.137   4.031
   38G       C2  811   5.605   6.032   4.018
   38G       N2  812   5.665   6.140   3.975
   38G      H21  813   5.617   6.228   3.962
   38G      H22  814   5.764   6.126   3.963
   38G       N3  815   5.678   5.929   4.028
   38G       C4  816   5.601   5.819   4.064
   38G      C3'  817   5.844   5.492   4.271
   38G      H3'  818   5.755   5.437   4.300
   38G      C2'  819   5.821   5.645   4.255
   38G     H2'1  820   5.726   5.669   4.303
   38G      O2'  821   5.930   5.733   4.303
   38G     HO'2  822   5.981   5.672   4.356
   38G      O3'  823   5.944   5.476   4.370
   39U        P  824   5.906   5.427   4.520
   39U      O1P  825   5.769   5.473   4.550
   39U      O2P  826   6.026   5.472   4.596
   39U      O5'  827   5.904   5.270   4.529
   39U      C5'  828   5.818   5.184   4.462
   39U     H5'1  829   5.772   5.224   4.372
   39U     H5'2  830   5.737   5.153   4.527
   39U      C4'  831   5.877   5.053   4.413
   39U      H4'  832   5.796   4.994   4.371
   39U      O4'  833   5.978   5.067   4.311
   39U      C1'  834   6.070   4.960   4.323
   39U      H1'  835   6.060   4.889   4.241
   39U       N1  836   6.211   5.011   4.341
   39U       C6  837   6.234   5.136   4.403
   39U       H6  838   6.150   5.202   4.419
   39U       C5  839   6.361   5.173   4.433
   39U       H5  840   6.380   5.272   4.473
   39U       C4  841   6.479   5.094   4.402
   39U       O4  842   6.596   5.129   4.422
   39U       N3  843   6.443   4.978   4.327
   39U       H3  844   6.515   4.911   4.302
   39U       C2  845   6.313   4.924   4.309
   39U       O2  846   6.291   4.815   4.261
   39U      C3'  847   5.949   4.974   4.530
   39U      H3'  848   6.001   5.054   4.582
   39U      C2'  849   6.036   4.883   4.449
   39U     H2'1  850   6.127   4.863   4.507
   39U      O2'  851   5.966   4.761   4.423
   39U     HO'2  852   5.891   4.783   4.368
   39U      O3'  853   5.854   4.921   4.618
   40U        P  854   5.892   4.872   4.766
   40U      O1P  855   5.782   4.797   4.819
   40U      O2P  856   5.935   4.993   4.839
   40U      O5'  857   6.013   4.776   4.758
   40U      C5'  858   6.002   4.645   4.726
   40U     H5'1  859   5.937   4.634   4.639
   40U     H5'2  860   5.965   4.592   4.813
   40U      C4'  861   6.140   4.584   4.699
   40U      H4'  862   6.127   4.477   4.681
   40U      O4'  863   6.212   4.635   4.580
   40U      C1'  864   6.351   4.631   4.612
   40U      H1'  865   6.406   4.587   4.529
   40U       N1  866   6.413   4.762   4.638
   40U       C6  867   6.343   4.875   4.682
   40U       H6  868   6.238   4.859   4.699
   40U       C5  869   6.411   4.988   4.724
   40U       H5  870   6.352   5.068   4.767
   40U       C4  871   6.553   5.003   4.713
   40U       O4  872   6.617   5.108   4.732
   40U       N3  873   6.615   4.891   4.660
   40U       H3  874   6.716   4.896   4.649
   40U       C2  875   6.555   4.772   4.624
   40U       O2  876   6.618   4.680   4.574
   40U      C3'  877   6.234   4.588   4.817
   40U      H3'  878   6.245   4.692   4.850
   40U      C2'  879   6.359   4.552   4.741
   40U     H2'1  880   6.447   4.588   4.795
   40U      O2'  881   6.372   4.406   4.714
   40U     HO'2  882   6.465   4.380   4.712
   40U      O3'  883   6.207   4.494   4.923
   41U        P  884   6.251   4.528   5.070
   41U      O1P  885   6.166   4.443   5.154
   41U      O2P  886   6.238   4.673   5.092
   41U      O5'  887   6.408   4.501   5.071
   41U      C5'  888   6.469   4.370   5.066
   41U     H5'1  889   6.443   4.321   4.972
   41U     H5'2  890   6.427   4.301   5.140
   41U      C4'  891   6.622   4.371   5.074
   41U      H4'  892   6.655   4.268   5.063
   41U      O4'  893   6.684   4.447   4.968
   41U      C1'  894   6.800   4.506   5.022
   41U      H1'  895   6.889   4.473   4.968
   41U       N1  896   6.788   4.653   5.013
   41U       C6  897   6.668   4.724   5.007
   41U       H6  898   6.576   4.668   5.009
   41U       C5  899   6.670   4.857   5.012
   41U       H5  900   6.574   4.907   5.008
   41U       C4  901   6.793   4.933   5.033
   41U       O4  902   6.798   5.060   5.050
   41U       N3  903   6.910   4.859   5.048
   41U       H3  904   6.997   4.901   5.078
   41U       C2  905   6.908   4.721   5.047
   41U       O2  906   7.012   4.660   5.082
   41U      C3'  907   6.668   4.433   5.206
   41U      H3'  908   6.624   4.529   5.231
   41U      C2'  909   6.813   4.463   5.168
   41U     H2'1  910   6.859   4.542   5.228
   41U      O2'  911   6.891   4.343   5.169
   41U     HO'2  912   6.984   4.360   5.188
   41U      O3'  913   6.649   4.350   5.320
   42G        P  914   6.671   4.417   5.468
   42G      O1P  915   6.609   4.316   5.557
   42G      O2P  916   6.617   4.555   5.459
   42G      O5'  917   6.824   4.440   5.509
   42G      C5'  918   6.913   4.331   5.517
   42G     H5'1  919   6.887   4.261   5.438
   42G     H5'2  920   6.902   4.283   5.614
   42G      C4'  921   7.053   4.385   5.498
   42G      H4'  922   7.126   4.309   5.472
   42G      O4'  923   7.067   4.481   5.383
   42G      C1'  924   7.163   4.583   5.406
   42G      H1'  925   7.251   4.582   5.342
   42G       N9  926   7.104   4.724   5.394
   42G       C8  927   6.971   4.763   5.385
   42G       H8  928   6.893   4.688   5.388
   42G       N7  929   6.951   4.891   5.390
   42G       C5  930   7.082   4.941   5.378
   42G       C6  931   7.132   5.081   5.383
   42G       O6  932   7.064   5.184   5.389
   42G       N1  933   7.271   5.083   5.376
   42G       H1  934   7.309   5.172   5.348
   42G       C2  935   7.350   4.975   5.366
   42G       N2  936   7.480   4.994   5.343
   42G      H21  937   7.515   5.088   5.351
   42G      H22  938   7.539   4.913   5.328
   42G       N3  939   7.310   4.847   5.373
   42G       C4  940   7.176   4.841   5.387
   42G      C3'  941   7.097   4.467   5.611
   42G      H3'  942   7.017   4.535   5.642
   42G      C2'  943   7.209   4.556   5.553
   42G     H2'1  944   7.232   4.648   5.607
   42G      O2'  945   7.336   4.495   5.538
   42G     HO'2  946   7.399   4.544   5.591
   42G      O3'  947   7.144   4.388   5.727
   43G        P  948   7.139   4.443   5.870
   43G      O1P  949   7.173   4.338   5.962
   43G      O2P  950   7.007   4.509   5.888
   43G      O5'  951   7.247   4.562   5.872
   43G      C5'  952   7.384   4.546   5.893
   43G     H5'1  953   7.432   4.481   5.819
   43G     H5'2  954   7.397   4.509   5.994
   43G      C4'  955   7.449   4.681   5.876
   43G      H4'  956   7.557   4.680   5.886
   43G      O4'  957   7.419   4.753   5.754
   43G      C1'  958   7.430   4.893   5.780
   43G      H1'  959   7.491   4.945   5.706
   43G       N9  960   7.301   4.951   5.742
   43G       C8  961   7.174   4.895   5.748
   43G       H8  962   7.158   4.792   5.774
   43G       N7  963   7.078   4.971   5.719
   43G       C5  964   7.137   5.096   5.711
   43G       C6  965   7.087   5.227   5.699
   43G       O6  966   6.973   5.260   5.666
   43G       N1  967   7.184   5.327   5.715
   43G       H1  968   7.164   5.426   5.716
   43G       C2  969   7.320   5.306   5.724
   43G       N2  970   7.393   5.412   5.734
   43G      H21  971   7.347   5.501   5.744
   43G      H22  972   7.494   5.411   5.726
   43G       N3  973   7.376   5.184   5.734
   43G       C4  974   7.278   5.086   5.729
   43G      C3'  975   7.410   4.780   5.983
   43G      H3'  976   7.303   4.772   5.998
   43G      C2'  977   7.460   4.909   5.927
   43G     H2'1  978   7.401   4.991   5.969
   43G      O2'  979   7.599   4.932   5.934
   43G     HO'2  980   7.639   4.860   5.983
   43G      O3'  981   7.479   4.759   6.104
   44G        P  982   7.425   4.813   6.245
   44G      O1P  983   7.507   4.764   6.357
   44G      O2P  984   7.281   4.790   6.245
   44G      O5'  985   7.449   4.978   6.240
   44G      C5'  986   7.575   5.030   6.262
   44G     H5'1  987   7.655   4.965   6.227
   44G     H5'2  988   7.594   5.024   6.369
   44G      C4'  989   7.588   5.173   6.211
   44G      H4'  990   7.690   5.209   6.194
   44G      O4'  991   7.519   5.193   6.086
   44G      C1'  992   7.465   5.325   6.075
   44G      H1'  993   7.508   5.369   5.985
   44G       N9  994   7.320   5.324   6.076
   44G       C8  995   7.241   5.212   6.070
   44G       H8  996   7.282   5.112   6.072
   44G       N7  997   7.114   5.236   6.034
   44G       C5  998   7.108   5.376   6.022
   44G       C6  999   7.003   5.466   5.985
   44G       O6 1000   6.890   5.435   5.955
   44G       N1 1001   7.033   5.598   5.990
   44G       H1 1002   6.954   5.658   5.972
   44G       C2 1003   7.160   5.636   6.017
   44G       N2 1004   7.172   5.767   5.999
   44G      H21 1005   7.092   5.829   6.003
   44G      H22 1006   7.264   5.807   6.013
   44G       N3 1007   7.267   5.563   6.046
   44G       C4 1008   7.234   5.430   6.053
   44G      C3' 1009   7.520   5.273   6.297
   44G      H3' 1010   7.423   5.233   6.326
   44G      C2' 1011   7.509   5.394   6.205
   44G     H2'1 1012   7.429   5.459   6.241
   44G      O2' 1013   7.627   5.466   6.186
   44G     HO'2 1014   7.671   5.484   6.270
   44G      O3' 1015   7.608   5.300   6.405
   45A        P 1016   7.542   5.344   6.544
   45A      O1P 1017   7.653   5.370   6.638
   45A      O2P 1018   7.445   5.242   6.583
   45A      O5' 1019   7.455   5.478   6.522
   45A      C5' 1020   7.523   5.596   6.476
   45A     H5'1 1021   7.570   5.584   6.379
   45A     H5'2 1022   7.594   5.633   6.550
   45A      C4' 1023   7.422   5.712   6.461
   45A      H4' 1024   7.480   5.797   6.427
   45A      O4' 1025   7.334   5.691   6.351
   45A      C1' 1026   7.205   5.746   6.383
   45A      H1' 1027   7.172   5.826   6.317
   45A       N9 1028   7.097   5.646   6.366
   45A       C8 1029   7.109   5.508   6.373
   45A       H8 1030   7.198   5.461   6.412
   45A       N7 1031   7.006   5.440   6.336
   45A       C5 1032   6.918   5.543   6.294
   45A       C6 1033   6.785   5.562   6.247
   45A       N6 1034   6.711   5.465   6.205
   45A      H61 1035   6.746   5.374   6.180
   45A      H62 1036   6.635   5.503   6.151
   45A       N1 1037   6.725   5.677   6.236
   45A       C2 1038   6.796   5.784   6.270
   45A       H2 1039   6.739   5.875   6.280
   45A       N3 1040   6.919   5.794   6.319
   45A       C4 1041   6.972   5.669   6.328
   45A      C3' 1042   7.330   5.729   6.587
   45A      H3' 1043   7.284   5.636   6.621
   45A      C2' 1044   7.214   5.807   6.523
   45A     H2'1 1045   7.116   5.796   6.571
   45A      O2' 1046   7.249   5.942   6.497
   45A     HO'2 1047   7.270   5.981   6.582
   45A      O3' 1048   7.394   5.789   6.699
   46G        P 1049   7.326   5.767   6.839
   46G      O1P 1050   7.383   5.872   6.930
   46G      O2P 1051   7.342   5.627   6.875
   46G      O5' 1052   7.170   5.795   6.814
   46G      C5' 1053   7.109   5.924   6.837
   46G     H5'1 1054   7.157   6.003   6.779
   46G     H5'2 1055   7.128   5.950   6.941
   46G      C4' 1056   6.959   5.934   6.810
   46G      H4' 1057   6.931   6.039   6.813
   46G      O4' 1058   6.923   5.883   6.683
   46G      C1' 1059   6.796   5.831   6.701
   46G      H1' 1060   6.728   5.877   6.630
   46G       N9 1061   6.807   5.687   6.666
   46G       C8 1062   6.904   5.601   6.706
   46G       H8 1063   6.988   5.641   6.761
   46G       N7 1064   6.886   5.477   6.660
   46G       C5 1065   6.767   5.490   6.579
   46G       C6 1066   6.692   5.391   6.510
   46G       O6 1067   6.712   5.272   6.479
   46G       N1 1068   6.572   5.439   6.468
   46G       H1 1069   6.518   5.375   6.410
   46G       C2 1070   6.533   5.569   6.478
   46G       N2 1071   6.421   5.605   6.415
   46G      H21 1072   6.371   5.533   6.364
   46G      H22 1073   6.402   5.704   6.415
   46G       N3 1074   6.602   5.664   6.545
   46G       C4 1075   6.717   5.618   6.596
   46G      C3' 1076   6.884   5.859   6.921
   46G      H3' 1077   6.936   5.764   6.929
   46G      C2' 1078   6.750   5.851   6.853
   46G     H2'1 1079   6.699   5.764   6.895
   46G      O2' 1080   6.672   5.964   6.856
   46G     HO'2 1081   6.634   5.971   6.944
   46G      O3' 1082   6.872   5.925   7.047
   47U        P 1083   6.915   5.842   7.180
   47U      O1P 1084   6.942   5.944   7.282
   47U      O2P 1085   7.019   5.745   7.150
   47U      O5' 1086   6.776   5.776   7.218
   47U      C5' 1087   6.657   5.848   7.243
   47U     H5'1 1088   6.630   5.907   7.155
   47U     H5'2 1089   6.668   5.920   7.324
   47U      C4' 1090   6.539   5.755   7.271
   47U      H4' 1091   6.460   5.825   7.300
   47U      O4' 1092   6.506   5.684   7.152
   47U      C1' 1093   6.493   5.546   7.184
   47U      H1' 1094   6.386   5.530   7.197
   47U       N1 1095   6.539   5.465   7.074
   47U       C6 1096   6.672   5.470   7.033
   47U       H6 1097   6.737   5.549   7.066
   47U       C5 1098   6.727   5.380   6.952
   47U       H5 1099   6.828   5.389   6.916
   47U       C4 1100   6.645   5.264   6.907
   47U       O4 1101   6.686   5.179   6.831
   47U       N3 1102   6.517   5.251   6.963
   47U       H3 1103   6.468   5.163   6.961
   47U       C2 1104   6.457   5.353   7.038
   47U       O2 1105   6.338   5.353   7.053
   47U      C3' 1106   6.565   5.654   7.387
   47U      H3' 1107   6.660   5.675   7.437
   47U      C2' 1108   6.577   5.529   7.314
   47U     H2'1 1109   6.682   5.521   7.286
   47U      O2' 1110   6.531   5.415   7.386
   47U     HO'2 1111   6.502   5.438   7.474
   47U      O3' 1112   6.454   5.659   7.473
   48U        P 1113   6.470   5.659   7.626
   48U      O1P 1114   6.351   5.719   7.689
   48U      O2P 1115   6.602   5.719   7.667
   48U      O5' 1116   6.482   5.502   7.650
   48U      C5' 1117   6.496   5.446   7.780
   48U     H5'1 1118   6.405   5.468   7.836
   48U     H5'2 1119   6.580   5.491   7.832
   48U      C4' 1120   6.508   5.292   7.786
   48U      H4' 1121   6.548   5.274   7.885
   48U      O4' 1122   6.378   5.239   7.788
   48U      C1' 1123   6.363   5.155   7.681
   48U      H1' 1124   6.306   5.069   7.714
   48U       N1 1125   6.302   5.222   7.564
   48U       C6 1126   6.252   5.350   7.591
   48U       H6 1127   6.239   5.382   7.693
   48U       C5 1128   6.193   5.419   7.485
   48U       H5 1129   6.151   5.516   7.506
   48U       C4 1130   6.190   5.368   7.353
   48U       O4 1131   6.142   5.428   7.260
   48U       N3 1132   6.243   5.243   7.336
   48U       H3 1133   6.243   5.198   7.246
   48U       C2 1134   6.280   5.165   7.440
   48U       O2 1135   6.273   5.041   7.423
   48U      C3' 1136   6.599   5.216   7.691
   48U      H3' 1137   6.620   5.282   7.607
   48U      C2' 1138   6.508   5.101   7.656
   48U     H2'1 1139   6.521   5.078   7.551
   48U      O2' 1140   6.526   4.985   7.736
   48U     HO'2 1141   6.620   4.967   7.741
   48U      O3' 1142   6.725   5.168   7.750
   49U        P 1143   6.840   5.089   7.667
   49U      O1P 1144   6.967   5.102   7.741
   49U      O2P 1145   6.831   5.136   7.525
   49U      O5' 1146   6.793   4.931   7.679
   49U      C5' 1147   6.890   4.820   7.665
   49U     H5'1 1148   6.975   4.834   7.732
   49U     H5'2 1149   6.934   4.813   7.565
   49U      C4' 1150   6.846   4.679   7.703
   49U      H4' 1151   6.927   4.614   7.670
   49U      O4' 1152   6.820   4.667   7.839
   49U      C1' 1153   6.702   4.590   7.860
   49U      H1' 1154   6.729   4.485   7.849
   49U       N1 1155   6.639   4.607   7.993
   49U       C6 1156   6.641   4.725   8.054
   49U       H6 1157   6.695   4.805   8.006
   49U       C5 1158   6.573   4.747   8.170
   49U       H5 1159   6.570   4.842   8.220
   49U       C4 1160   6.498   4.643   8.233
   49U       O4 1161   6.439   4.657   8.339
   49U       N3 1162   6.498   4.523   8.164
   49U       H3 1163   6.463   4.445   8.217
   49U       C2 1164   6.569   4.502   8.045
   49U       O2 1165   6.569   4.387   7.997
   49U      C3' 1166   6.720   4.642   7.626
   49U      H3' 1167   6.700   4.728   7.562
   49U      C2' 1168   6.622   4.625   7.743
   49U     H2'1 1169   6.586   4.724   7.769
   49U      O2' 1170   6.511   4.542   7.720
   49U     HO'2 1171   6.550   4.462   7.686
   49U      O3' 1172   6.737   4.520   7.559
   50C        P 1173   6.798   4.513   7.416
   50C      O1P 1174   6.849   4.375   7.397
   50C      O2P 1175   6.898   4.620   7.408
   50C      O5' 1176   6.682   4.536   7.313
   50C      C5' 1177   6.598   4.436   7.279
   50C     H5'1 1178   6.563   4.386   7.370
   50C     H5'2 1179   6.655   4.367   7.217
   50C      C4' 1180   6.481   4.489   7.201
   50C      H4' 1181   6.417   4.410   7.162
   50C      O4' 1182   6.405   4.578   7.281
   50C      C1' 1183   6.358   4.691   7.203
   50C      H1' 1184   6.252   4.715   7.206
   50C       N1 1185   6.434   4.813   7.239
   50C       C6 1186   6.529   4.812   7.345
   50C       H6 1187   6.535   4.724   7.407
   50C       C5 1188   6.600   4.922   7.365
   50C       H5 1189   6.679   4.927   7.439
   50C       C4 1190   6.586   5.038   7.278
   50C       N4 1191   6.650   5.155   7.303
   50C      H41 1192   6.713   5.150   7.382
   50C      H42 1193   6.600   5.239   7.280
   50C       N3 1194   6.490   5.044   7.191
   50C       C2 1195   6.409   4.938   7.170
   50C       O2 1196   6.323   4.940   7.079
   50C      C3' 1197   6.515   4.571   7.074
   50C      H3' 1198   6.595   4.640   7.100
   50C      C2' 1199   6.385   4.649   7.056
   50C     H2'1 1200   6.404   4.732   6.988
   50C      O2' 1201   6.274   4.574   7.017
   50C     HO'2 1202   6.288   4.545   6.926
   50C      O3' 1203   6.552   4.487   6.961
   51U        P 1204   6.579   4.540   6.820
   51U      O1P 1205   6.683   4.457   6.760
   51U      O2P 1206   6.609   4.684   6.823
   51U      O5' 1207   6.442   4.510   6.748
   51U      C5' 1208   6.394   4.376   6.728
   51U     H5'1 1209   6.386   4.322   6.822
   51U     H5'2 1210   6.453   4.311   6.663
   51U      C4' 1211   6.248   4.394   6.672
   51U      H4' 1212   6.212   4.297   6.636
   51U      O4' 1213   6.167   4.457   6.767
   51U      C1' 1214   6.061   4.527   6.695
   51U      H1' 1215   5.967   4.476   6.719
   51U       N1 1216   6.052   4.673   6.732
   51U       C6 1217   6.167   4.746   6.752
   51U       H6 1218   6.265   4.703   6.734
   51U       C5 1219   6.161   4.880   6.768
   51U       H5 1220   6.253   4.937   6.771
   51U       C4 1221   6.038   4.944   6.774
   51U       O4 1222   6.022   5.062   6.783
   51U       N3 1223   5.928   4.862   6.761
   51U       H3 1224   5.843   4.902   6.796
   51U       C2 1225   5.927   4.728   6.749
   51U       O2 1226   5.819   4.674   6.770
   51U      C3' 1227   6.241   4.477   6.548
   51U      H3' 1228   6.302   4.567   6.553
   51U      C2' 1229   6.087   4.506   6.548
   51U     H2'1 1230   6.072   4.595   6.487
   51U      O2' 1231   6.011   4.400   6.493
   51U     HO'2 1232   6.066   4.347   6.435
   51U      O3' 1233   6.267   4.393   6.432
   52A        P 1234   6.324   4.454   6.296
   52A      O1P 1235   6.312   4.350   6.188
   52A      O2P 1236   6.449   4.524   6.320
   52A      O5' 1237   6.223   4.574   6.252
   52A      C5' 1238   6.093   4.555   6.200
   52A     H5'1 1239   6.046   4.478   6.261
   52A     H5'2 1240   6.108   4.509   6.102
   52A      C4' 1241   6.014   4.684   6.194
   52A      H4' 1242   5.919   4.666   6.143
   52A      O4' 1243   6.004   4.741   6.325
   52A      C1' 1244   6.012   4.884   6.308
   52A      H1' 1245   5.934   4.937   6.363
   52A       N9 1246   6.142   4.933   6.366
   52A       C8 1247   6.250   4.854   6.408
   52A       H8 1248   6.259   4.749   6.383
   52A       N7 1249   6.330   4.918   6.489
   52A       C5 1250   6.266   5.042   6.511
   52A       C6 1251   6.303   5.166   6.567
   52A       N6 1252   6.414   5.189   6.634
   52A      H61 1253   6.482   5.116   6.618
   52A      H62 1254   6.434   5.282   6.669
   52A       N1 1255   6.219   5.273   6.557
   52A       C2 1256   6.103   5.257   6.492
   52A       H2 1257   6.035   5.341   6.501
   52A       N3 1258   6.057   5.156   6.427
   52A       C4 1259   6.147   5.048   6.439
   52A      C3' 1260   6.079   4.787   6.107
   52A      H3' 1261   6.187   4.789   6.118
   52A      C2' 1262   6.021   4.922   6.161
   52A     H2'1 1263   6.091   5.002   6.137
   52A      O2' 1264   5.893   4.947   6.105
   52A     HO'2 1265   5.860   5.026   6.148
   52A      O3' 1266   6.041   4.757   5.970
   53C        P 1267   6.138   4.798   5.845
   53C      O1P 1268   6.079   4.761   5.713
   53C      O2P 1269   6.269   4.753   5.879
   53C      O5' 1270   6.138   4.961   5.855
   53C      C5' 1271   6.014   5.034   5.819
   53C     H5'1 1272   5.925   4.998   5.870
   53C     H5'2 1273   5.998   5.024   5.712
   53C      C4' 1274   6.034   5.182   5.854
   53C      H4' 1275   5.942   5.232   5.822
   53C      O4' 1276   6.044   5.181   5.998
   53C      C1' 1277   6.139   5.277   6.040
   53C      H1' 1278   6.091   5.335   6.118
   53C       N1 1279   6.258   5.229   6.117
   53C       C6 1280   6.311   5.111   6.085
   53C       H6 1281   6.276   5.059   5.997
   53C       C5 1282   6.414   5.050   6.151
   53C       H5 1283   6.444   4.949   6.130
   53C       C4 1284   6.469   5.118   6.260
   53C       N4 1285   6.576   5.081   6.318
   53C      H41 1286   6.622   4.993   6.300
   53C      H42 1287   6.613   5.157   6.374
   53C       N3 1288   6.424   5.242   6.292
   53C       C2 1289   6.321   5.298   6.222
   53C       O2 1290   6.275   5.408   6.253
   53C      C3' 1291   6.162   5.251   5.806
   53C      H3' 1292   6.242   5.177   5.814
   53C      C2' 1293   6.189   5.354   5.917
   53C     H2'1 1294   6.289   5.397   5.920
   53C      O2' 1295   6.098   5.459   5.899
   53C     HO'2 1296   6.088   5.488   5.808
   53C      O3' 1297   6.153   5.314   5.679
   54C        P 1298   6.199   5.244   5.543
   54C      O1P 1299   6.321   5.173   5.585
   54C      O2P 1300   6.206   5.350   5.439
   54C      O5' 1301   6.089   5.130   5.506
   54C      C5' 1302   5.987   5.156   5.413
   54C     H5'1 1303   6.008   5.088   5.330
   54C     H5'2 1304   5.988   5.258   5.374
   54C      C4' 1305   5.844   5.122   5.466
   54C      H4' 1306   5.838   5.016   5.487
   54C      O4' 1307   5.811   5.208   5.581
   54C      C1' 1308   5.671   5.240   5.569
   54C      H1' 1309   5.619   5.207   5.659
   54C       N1 1310   5.649   5.394   5.559
   54C       C6 1311   5.757   5.470   5.517
   54C       H6 1312   5.846   5.412   5.496
   54C       C5 1313   5.746   5.607   5.520
   54C       H5 1314   5.834   5.668   5.506
   54C       C4 1315   5.625   5.656   5.562
   54C       N4 1316   5.607   5.786   5.571
   54C      H41 1317   5.671   5.852   5.530
   54C      H42 1318   5.534   5.828   5.626
   54C       N3 1319   5.521   5.586   5.596
   54C       C2 1320   5.528   5.453   5.596
   54C       O2 1321   5.431   5.391   5.617
   54C      C3' 1322   5.735   5.159   5.368
   54C      H3' 1323   5.766   5.254   5.326
   54C      C2' 1324   5.605   5.166   5.454
   54C     H2'1 1325   5.522   5.217   5.406
   54C      O2' 1326   5.575   5.032   5.492
   54C     HO'2 1327   5.588   4.968   5.422
   54C      O3' 1328   5.716   5.066   5.271
   55A        P 1329   5.631   5.086   5.146
   55A      O1P 1330   5.640   4.959   5.067
   55A      O2P 1331   5.684   5.207   5.080
   55A      O5' 1332   5.485   5.117   5.177
   55A      C5' 1333   5.397   5.016   5.222
   55A     H5'1 1334   5.431   4.978   5.318
   55A     H5'2 1335   5.384   4.943   5.142
   55A      C4' 1336   5.260   5.068   5.261
   55A      H4' 1337   5.196   4.983   5.286
   55A      O4' 1338   5.270   5.162   5.369
   55A      C1' 1339   5.188   5.272   5.347
   55A      H1' 1340   5.118   5.283   5.430
   55A       N9 1341   5.260   5.401   5.330
   55A       C8 1342   5.382   5.426   5.279
   55A       H8 1343   5.440   5.341   5.246
   55A       N7 1344   5.419   5.548   5.281
   55A       C5 1345   5.307   5.615   5.339
   55A       C6 1346   5.274   5.744   5.386
   55A       N6 1347   5.350   5.855   5.405
   55A      H61 1348   5.449   5.855   5.385
   55A      H62 1349   5.297   5.939   5.427
   55A       N1 1350   5.154   5.777   5.431
   55A       C2 1351   5.067   5.675   5.438
   55A       H2 1352   4.967   5.699   5.470
   55A       N3 1353   5.088   5.545   5.414
   55A       C4 1354   5.212   5.522   5.368
   55A      C3' 1355   5.193   5.143   5.143
   55A      H3' 1356   5.265   5.193   5.079
   55A      C2' 1357   5.102   5.243   5.221
   55A     H2'1 1358   5.083   5.337   5.169
   55A      O2' 1359   4.986   5.177   5.262
   55A     HO'2 1360   4.959   5.111   5.197
   55A      O3' 1361   5.116   5.056   5.061
   56A        P 1362   5.045   5.102   4.926
   56A      O1P 1363   4.964   4.986   4.878
   56A      O2P 1364   5.147   5.156   4.838
   56A      O5' 1365   4.943   5.228   4.969
   56A      C5' 1366   4.804   5.208   4.974
   56A     H5'1 1367   4.786   5.131   5.050
   56A     H5'2 1368   4.765   5.163   4.883
   56A      C4' 1369   4.731   5.339   5.012
   56A      H4' 1370   4.626   5.318   5.030
   56A      O4' 1371   4.789   5.401   5.128
   56A      C1' 1372   4.784   5.542   5.115
   56A      H1' 1373   4.725   5.583   5.196
   56A       N9 1374   4.915   5.617   5.105
   56A       C8 1375   5.036   5.579   5.059
   56A       H8 1376   5.054   5.477   5.027
   56A       N7 1377   5.130   5.669   5.065
   56A       C5 1378   5.061   5.776   5.118
   56A       C6 1379   5.094   5.905   5.151
   56A       N6 1380   5.209   5.960   5.122
   56A      H61 1381   5.281   5.910   5.073
   56A      H62 1382   5.234   6.053   5.154
   56A       N1 1383   5.014   5.992   5.208
   56A       C2 1384   4.894   5.950   5.232
   56A       H2 1385   4.828   6.021   5.278
   56A       N3 1386   4.841   5.828   5.210
   56A       C4 1387   4.930   5.747   5.147
   56A      C3' 1388   4.742   5.443   4.904
   56A      H3' 1389   4.848   5.449   4.879
   56A      C2' 1390   4.703   5.573   4.989
   56A     H2'1 1391   4.730   5.666   4.939
   56A      O2' 1392   4.566   5.584   5.009
   56A     HO'2 1393   4.518   5.533   4.943
   56A      O3' 1394   4.657   5.421   4.788
   57G        P 1395   4.698   5.484   4.645
   57G      O1P 1396   4.615   5.412   4.550
   57G      O2P 1397   4.845   5.488   4.618
   57G      O5' 1398   4.642   5.629   4.653
   57G      C5' 1399   4.507   5.655   4.700
   57G     H5'1 1400   4.474   5.589   4.780
   57G     H5'2 1401   4.439   5.630   4.618
   57G      C4' 1402   4.491   5.810   4.724
   57G      H4' 1403   4.384   5.817   4.740
   57G      O4' 1404   4.557   5.848   4.845
   57G      C1' 1405   4.612   5.981   4.832
   57G      H1' 1406   4.567   6.042   4.910
   57G       N9 1407   4.761   5.993   4.836
   57G       C8 1408   4.853   5.897   4.789
   57G       H8 1409   4.833   5.804   4.739
   57G       N7 1410   4.979   5.942   4.803
   57G       C5 1411   4.970   6.072   4.857
   57G       C6 1412   5.072   6.174   4.885
   57G       O6 1413   5.195   6.152   4.882
   57G       N1 1414   5.027   6.298   4.912
   57G       H1 1415   5.092   6.370   4.940
   57G       C2 1416   4.891   6.319   4.921
   57G       N2 1417   4.856   6.443   4.941
   57G      H21 1418   4.928   6.510   4.966
   57G      H22 1419   4.761   6.473   4.925
   57G       N3 1420   4.794   6.229   4.906
   57G       C4 1421   4.837   6.104   4.866
   57G      C3' 1422   4.538   5.908   4.613
   57G      H3' 1423   4.629   5.860   4.578
   57G      C2' 1424   4.563   6.034   4.694
   57G     H2'1 1425   4.633   6.100   4.642
   57G      O2' 1426   4.449   6.112   4.735
   57G     HO'2 1427   4.472   6.172   4.806
   57G      O3' 1428   4.444   5.941   4.505
   58A        P 1429   4.497   5.970   4.358
   58A      O1P 1430   4.386   5.963   4.263
   58A      O2P 1431   4.616   5.887   4.334
   58A      O5' 1432   4.555   6.117   4.358
   58A      C5' 1433   4.466   6.218   4.368
   58A     H5'1 1434   4.389   6.202   4.443
   58A     H5'2 1435   4.412   6.226   4.274
   58A      C4' 1436   4.542   6.346   4.407
   58A      H4' 1437   4.462   6.419   4.413
   58A      O4' 1438   4.602   6.339   4.534
   58A      C1' 1439   4.726   6.417   4.527
   58A      H1' 1440   4.739   6.482   4.613
   58A       N9 1441   4.844   6.324   4.531
   58A       C8 1442   4.853   6.190   4.510
   58A       H8 1443   4.770   6.126   4.486
   58A       N7 1444   4.970   6.139   4.528
   58A       C5 1445   5.050   6.254   4.558
   58A       C6 1446   5.184   6.280   4.582
   58A       N6 1447   5.281   6.185   4.582
   58A      H61 1448   5.257   6.087   4.570
   58A      H62 1449   5.374   6.213   4.607
   58A       N1 1450   5.223   6.403   4.614
   58A       C2 1451   5.138   6.498   4.608
   58A       H2 1452   5.176   6.596   4.632
   58A       N3 1453   5.009   6.495   4.575
   58A       C4 1454   4.973   6.365   4.557
   58A      C3' 1455   4.649   6.401   4.311
   58A      H3' 1456   4.722   6.324   4.292
   58A      C2' 1457   4.719   6.501   4.400
   58A     H2'1 1458   4.821   6.518   4.364
   58A      O2' 1459   4.641   6.613   4.443
   58A     HO'2 1460   4.677   6.644   4.526
   58A      O3' 1461   4.580   6.439   4.190
   59G        P 1462   4.662   6.444   4.047
   59G      O1P 1463   4.563   6.460   3.945
   59G      O2P 1464   4.747   6.325   4.045
   59G      O5' 1465   4.754   6.568   4.049
   59G      C5' 1466   4.703   6.702   4.055
   59G     H5'1 1467   4.632   6.711   4.137
   59G     H5'2 1468   4.650   6.727   3.963
   59G      C4' 1469   4.827   6.789   4.098
   59G      H4' 1470   4.797   6.891   4.123
   59G      O4' 1471   4.882   6.737   4.218
   59G      C1' 1472   5.022   6.734   4.209
   59G      H1' 1473   5.068   6.791   4.291
   59G       N9 1474   5.075   6.596   4.220
   59G       C8 1475   5.021   6.478   4.198
   59G       H8 1476   4.916   6.459   4.179
   59G       N7 1477   5.096   6.371   4.226
   59G       C5 1478   5.217   6.434   4.258
   59G       C6 1479   5.347   6.377   4.286
   59G       O6 1480   5.378   6.261   4.287
   59G       N1 1481   5.444   6.474   4.302
   59G       H1 1482   5.543   6.456   4.307
   59G       C2 1483   5.416   6.611   4.301
   59G       N2 1484   5.515   6.698   4.319
   59G      H21 1485   5.609   6.661   4.325
   59G      H22 1486   5.492   6.796   4.315
   59G       N3 1487   5.292   6.660   4.283
   59G       C4 1488   5.198   6.564   4.255
   59G      C3' 1489   4.938   6.785   3.990
   59G      H3' 1490   4.954   6.687   3.945
   59G      C2' 1491   5.064   6.803   4.079
   59G     H2'1 1492   5.156   6.758   4.042
   59G      O2' 1493   5.082   6.936   4.125
   59G     HO'2 1494   5.043   6.993   4.058
   59G      O3' 1495   4.938   6.891   3.900
   60C        P 1496   5.001   6.868   3.756
   60C      O1P 1497   4.998   7.001   3.689
   60C      O2P 1498   4.949   6.750   3.685
   60C      O5' 1499   5.155   6.842   3.780
   60C      C5' 1500   5.257   6.937   3.819
   60C     H5'1 1501   5.232   7.000   3.904
   60C     H5'2 1502   5.288   6.995   3.732
   60C      C4' 1503   5.380   6.856   3.854
   60C      H4' 1504   5.467   6.917   3.879
   60C      O4' 1505   5.365   6.757   3.957
   60C      C1' 1506   5.451   6.644   3.925
   60C      H1' 1507   5.524   6.625   4.004
   60C       N1 1508   5.367   6.525   3.928
   60C       C6 1509   5.238   6.531   3.893
   60C       H6 1510   5.198   6.621   3.849
   60C       C5 1511   5.155   6.420   3.890
   60C       H5 1512   5.055   6.423   3.849
   60C       C4 1513   5.216   6.303   3.936
   60C       N4 1514   5.147   6.194   3.931
   60C      H41 1515   5.050   6.185   3.904
   60C      H42 1516   5.200   6.111   3.954
   60C       N3 1517   5.344   6.289   3.969
   60C       C2 1518   5.422   6.403   3.967
   60C       O2 1519   5.541   6.397   4.001
   60C      C3' 1520   5.434   6.784   3.726
   60C      H3' 1521   5.357   6.719   3.685
   60C      C2' 1522   5.528   6.677   3.796
   60C     H2'1 1523   5.532   6.587   3.734
   60C      O2' 1524   5.659   6.729   3.818
   60C     HO'2 1525   5.714   6.666   3.864
   60C      O3' 1526   5.505   6.871   3.641
   61C        P 1527   5.534   6.839   3.487
   61C      O1P 1528   5.578   6.963   3.418
   61C      O2P 1529   5.409   6.776   3.443
   61C      O5' 1530   5.651   6.734   3.480
   61C      C5' 1531   5.781   6.767   3.523
   61C     H5'1 1532   5.775   6.821   3.617
   61C     H5'2 1533   5.816   6.834   3.444
   61C      C4' 1534   5.869   6.652   3.521
   61C      H4' 1535   5.965   6.681   3.563
   61C      O4' 1536   5.803   6.554   3.609
   61C      C1' 1537   5.791   6.423   3.546
   61C      H1' 1538   5.865   6.354   3.586
   61C       N1 1539   5.657   6.366   3.564
   61C       C6 1540   5.545   6.431   3.533
   61C       H6 1541   5.541   6.523   3.478
   61C       C5 1542   5.423   6.371   3.566
   61C       H5 1543   5.332   6.423   3.538
   61C       C4 1544   5.420   6.248   3.632
   61C       N4 1545   5.303   6.194   3.654
   61C      H41 1546   5.217   6.238   3.624
   61C      H42 1547   5.299   6.098   3.686
   61C       N3 1548   5.531   6.188   3.654
   61C       C2 1549   5.650   6.240   3.624
   61C       O2 1550   5.746   6.169   3.646
   61C      C3' 1551   5.889   6.584   3.389
   61C      H3' 1552   5.832   6.644   3.318
   61C      C2' 1553   5.828   6.444   3.402
   61C     H2'1 1554   5.736   6.437   3.344
   61C      O2' 1555   5.914   6.346   3.365
   61C     HO'2 1556   6.005   6.373   3.375
   61C      O3' 1557   6.022   6.582   3.341
   62U        P 1558   6.066   6.686   3.228
   62U      O1P 1559   6.212   6.693   3.235
   62U      O2P 1560   5.990   6.814   3.248
   62U      O5' 1561   6.014   6.630   3.088
   62U      C5' 1562   6.061   6.507   3.042
   62U     H5'1 1563   6.053   6.432   3.121
   62U     H5'2 1564   6.166   6.531   3.030
   62U      C4' 1565   5.985   6.453   2.923
   62U      H4' 1566   6.032   6.360   2.891
   62U      O4' 1567   5.852   6.412   2.955
   62U      C1' 1568   5.760   6.479   2.868
   62U      H1' 1569   5.727   6.402   2.797
   62U       N1 1570   5.646   6.529   2.951
   62U       C6 1571   5.663   6.602   3.067
   62U       H6 1572   5.765   6.616   3.097
   62U       C5 1573   5.564   6.666   3.133
   62U       H5 1574   5.585   6.719   3.225
   62U       C4 1575   5.431   6.665   3.083
   62U       O4 1576   5.343   6.726   3.133
   62U       N3 1577   5.415   6.578   2.979
   62U       H3 1578   5.324   6.564   2.938
   62U       C2 1579   5.518   6.511   2.902
   62U       O2 1580   5.489   6.451   2.793
   62U      C3' 1581   5.983   6.549   2.801
   62U      H3' 1582   6.039   6.640   2.825
   62U      C2' 1583   5.837   6.593   2.793
   62U     H2'1 1584   5.814   6.690   2.838
   62U      O2' 1585   5.796   6.610   2.661
   62U     HO'2 1586   5.874   6.647   2.618
   62U      O3' 1587   6.039   6.488   2.687
   63U        P 1588   6.198   6.466   2.661
   63U      O1P 1589   6.286   6.564   2.728
   63U      O2P 1590   6.205   6.457   2.517
   63U      O5' 1591   6.216   6.323   2.729
   63U      C5' 1592   6.311   6.300   2.836
   63U     H5'1 1593   6.301   6.376   2.914
   63U     H5'2 1594   6.412   6.317   2.799
   63U      C4' 1595   6.299   6.161   2.898
   63U      H4' 1596   6.381   6.135   2.965
   63U      O4' 1597   6.168   6.147   2.959
   63U      C1' 1598   6.109   6.024   2.916
   63U      H1' 1599   6.089   5.964   3.006
   63U       N1 1600   5.980   6.055   2.843
   63U       C6 1601   5.980   6.121   2.726
   63U       H6 1602   6.069   6.139   2.668
   63U       C5 1603   5.857   6.161   2.670
   63U       H5 1604   5.858   6.225   2.583
   63U       C4 1605   5.730   6.135   2.735
   63U       O4 1606   5.620   6.161   2.693
   63U       N3 1607   5.743   6.084   2.860
   63U       H3 1608   5.656   6.050   2.900
   63U       C2 1609   5.864   6.039   2.914
   63U       O2 1610   5.859   5.985   3.026
   63U      C3' 1611   6.308   6.046   2.788
   63U      H3' 1612   6.269   6.088   2.696
   63U      C2' 1613   6.210   5.944   2.830
   63U     H2'1 1614   6.152   5.892   2.754
   63U      O2' 1615   6.278   5.852   2.918
   63U     HO'2 1616   6.358   5.826   2.872
   63U      O3' 1617   6.434   5.980   2.762
   64A        P 1618   6.560   6.057   2.692
   64A      O1P 1619   6.509   6.131   2.578
   64A      O2P 1620   6.662   5.957   2.663
   64A      O5' 1621   6.598   6.155   2.812
   64A      C5' 1622   6.660   6.104   2.926
   64A     H5'1 1623   6.760   6.068   2.902
   64A     H5'2 1624   6.604   6.016   2.958
   64A      C4' 1625   6.676   6.221   3.029
   64A      H4' 1626   6.738   6.295   2.979
   64A      O4' 1627   6.550   6.276   3.084
   64A      C1' 1628   6.538   6.256   3.225
   64A      H1' 1629   6.577   6.351   3.263
   64A       N9 1630   6.400   6.231   3.264
   64A       C8 1631   6.310   6.333   3.293
   64A       H8 1632   6.344   6.435   3.308
   64A       N7 1633   6.183   6.295   3.295
   64A       C5 1634   6.192   6.155   3.276
   64A       C6 1635   6.093   6.051   3.272
   64A       N6 1636   5.963   6.067   3.297
   64A      H61 1637   5.930   6.161   3.316
   64A      H62 1638   5.906   5.984   3.292
   64A       N1 1639   6.122   5.925   3.246
   64A       C2 1640   6.248   5.899   3.216
   64A       H2 1641   6.262   5.793   3.200
   64A       N3 1642   6.353   5.984   3.212
   64A       C4 1643   6.322   6.114   3.253
   64A      C3' 1644   6.752   6.172   3.149
   64A      H3' 1645   6.811   6.086   3.118
   64A      C2' 1646   6.643   6.141   3.245
   64A     H2'1 1647   6.594   6.049   3.212
   64A      O2' 1648   6.683   6.110   3.383
   64A     HO'2 1649   6.730   6.190   3.409
   64A      O3' 1650   6.841   6.272   3.180
   65A        P 1651   6.959   6.251   3.285
   65A      O1P 1652   7.055   6.360   3.257
   65A      O2P 1653   7.009   6.110   3.275
   65A      O5' 1654   6.885   6.277   3.422
   65A      C5' 1655   6.860   6.403   3.452
   65A     H5'1 1656   6.799   6.452   3.376
   65A     H5'2 1657   6.953   6.455   3.468
   65A      C4' 1658   6.783   6.397   3.585
   65A      H4' 1659   6.785   6.490   3.643
   65A      O4' 1660   6.648   6.358   3.564
   65A      C1' 1661   6.619   6.267   3.666
   65A      H1' 1662   6.604   6.327   3.756
   65A       N9 1663   6.492   6.195   3.642
   65A       C8 1664   6.470   6.062   3.616
   65A       H8 1665   6.548   5.988   3.608
   65A       N7 1666   6.342   6.030   3.589
   65A       C5 1667   6.274   6.147   3.616
   65A       C6 1668   6.136   6.185   3.626
   65A       N6 1669   6.028   6.113   3.612
   65A      H61 1670   6.030   6.014   3.594
   65A      H62 1671   5.946   6.172   3.618
   65A       N1 1672   6.108   6.315   3.641
   65A       C2 1673   6.206   6.401   3.658
   65A       H2 1674   6.174   6.504   3.668
   65A       N3 1675   6.336   6.379   3.671
   65A       C4 1676   6.364   6.247   3.652
   65A      C3' 1677   6.831   6.297   3.694
   65A      H3' 1678   6.933   6.266   3.668
   65A      C2' 1679   6.737   6.175   3.693
   65A     H2'1 1680   6.765   6.107   3.612
   65A      O2' 1681   6.734   6.096   3.807
   65A     HO'2 1682   6.764   6.136   3.889
   65A      O3' 1683   6.837   6.375   3.816
   66A        P 1684   6.928   6.339   3.937
   66A      O1P 1685   6.939   6.461   4.023
   66A      O2P 1686   7.049   6.282   3.882
   66A      O5' 1687   6.855   6.218   4.029
   66A      C5' 1688   6.755   6.238   4.130
   66A     H5'1 1689   6.808   6.283   4.213
   66A     H5'2 1690   6.715   6.140   4.159
   66A      C4' 1691   6.635   6.324   4.086
   66A      H4' 1692   6.676   6.421   4.059
   66A      O4' 1693   6.564   6.265   3.987
   66A      C1' 1694   6.426   6.297   4.000
   66A      H1' 1695   6.390   6.347   3.910
   66A       N9 1696   6.352   6.171   4.010
   66A       C8 1697   6.402   6.038   4.003
   66A       H8 1698   6.507   6.012   4.007
   66A       N7 1699   6.304   5.954   3.964
   66A       C5 1700   6.189   6.034   3.967
   66A       C6 1701   6.056   6.008   3.940
   66A       N6 1702   6.006   5.899   3.887
   66A      H61 1703   6.074   5.828   3.865
   66A      H62 1704   5.923   5.912   3.831
   66A       N1 1705   5.962   6.104   3.949
   66A       C2 1706   6.007   6.227   3.981
   66A       H2 1707   5.938   6.310   3.980
   66A       N3 1708   6.126   6.270   4.004
   66A       C4 1709   6.213   6.163   3.994
   66A      C3' 1710   6.544   6.339   4.208
   66A      H3' 1711   6.539   6.235   4.242
   66A      C2' 1712   6.415   6.377   4.131
   66A     H2'1 1713   6.331   6.342   4.190
   66A      O2' 1714   6.398   6.512   4.100
   66A     HO'2 1715   6.377   6.553   4.185
   66A      O3' 1716   6.578   6.425   4.305
   67C        P 1717   6.507   6.422   4.444
   67C      O1P 1718   6.604   6.480   4.545
   67C      O2P 1719   6.440   6.287   4.461
   67C      O5' 1720   6.383   6.521   4.418
   67C      C5' 1721   6.410   6.661   4.419
   67C     H5'1 1722   6.476   6.693   4.338
   67C     H5'2 1723   6.444   6.694   4.518
   67C      C4' 1724   6.274   6.743   4.411
   67C      H4' 1725   6.295   6.844   4.377
   67C      O4' 1726   6.195   6.691   4.300
   67C      C1' 1727   6.056   6.704   4.336
   67C      H1' 1728   6.003   6.756   4.257
   67C       N1 1729   5.981   6.573   4.347
   67C       C6 1730   6.037   6.455   4.310
   67C       H6 1731   6.145   6.457   4.302
   67C       C5 1732   5.955   6.343   4.298
   67C       H5 1733   6.003   6.250   4.273
   67C       C4 1734   5.819   6.362   4.314
   67C       N4 1735   5.741   6.259   4.327
   67C      H41 1736   5.781   6.166   4.333
   67C      H42 1737   5.642   6.273   4.335
   67C       N3 1738   5.766   6.483   4.345
   67C       C2 1739   5.844   6.588   4.355
   67C       O2 1740   5.790   6.695   4.359
   67C      C3' 1741   6.181   6.731   4.539
   67C      H3' 1742   6.179   6.625   4.562
   67C      C2' 1743   6.050   6.777   4.478
   67C     H2'1 1744   5.960   6.752   4.533
   67C      O2' 1745   6.056   6.920   4.465
   67C     HO'2 1746   5.971   6.960   4.447
   67C      O3' 1747   6.227   6.803   4.651
   68U        P 1748   6.165   6.787   4.794
   68U      O1P 1749   6.243   6.879   4.878
   68U      O2P 1750   6.170   6.639   4.815
   68U      O5' 1751   6.013   6.826   4.795
   68U      C5' 1752   5.978   6.969   4.794
   68U     H5'1 1753   6.036   7.017   4.715
   68U     H5'2 1754   6.003   7.016   4.889
   68U      C4' 1755   5.827   6.987   4.768
   68U      H4' 1756   5.804   7.090   4.741
   68U      O4' 1757   5.788   6.891   4.669
   68U      C1' 1758   5.653   6.852   4.695
   68U      H1' 1759   5.580   6.888   4.622
   68U       N1 1760   5.636   6.700   4.692
   68U       C6 1761   5.740   6.606   4.698
   68U       H6 1762   5.836   6.646   4.725
   68U       C5 1763   5.725   6.471   4.681
   68U       H5 1764   5.808   6.403   4.686
   68U       C4 1765   5.593   6.418   4.656
   68U       O4 1766   5.567   6.302   4.632
   68U       N3 1767   5.495   6.512   4.651
   68U       H3 1768   5.403   6.481   4.623
   68U       C2 1769   5.504   6.648   4.675
   68U       O2 1770   5.407   6.719   4.662
   68U      C3' 1771   5.750   6.944   4.889
   68U      H3' 1772   5.790   6.847   4.918
   68U      C2' 1773   5.618   6.909   4.830
   68U     H2'1 1774   5.581   6.827   4.893
   68U      O2' 1775   5.533   7.024   4.810
   68U     HO'2 1776   5.445   6.998   4.780
   68U      O3' 1777   5.746   7.047   4.990
   69C        P 1778   5.728   7.008   5.144
   69C      O1P 1779   5.749   7.131   5.218
   69C      O2P 1780   5.821   6.892   5.159
   69C      O5' 1781   5.575   6.964   5.155
   69C      C5' 1782   5.474   7.071   5.168
   69C     H5'1 1783   5.500   7.142   5.091
   69C     H5'2 1784   5.484   7.124   5.263
   69C      C4' 1785   5.320   7.038   5.131
   69C      H4' 1786   5.264   7.131   5.129
   69C      O4' 1787   5.318   6.977   5.006
   69C      C1' 1788   5.210   6.875   5.007
   69C      H1' 1789   5.139   6.892   4.926
   69C       N1 1790   5.258   6.736   5.004
   69C       C6 1791   5.392   6.704   5.027
   69C       H6 1792   5.456   6.787   5.053
   69C       C5 1793   5.435   6.581   5.009
   69C       H5 1794   5.541   6.565   5.024
   69C       C4 1795   5.345   6.481   4.970
   69C       N4 1796   5.381   6.360   4.947
   69C      H41 1797   5.476   6.338   4.976
   69C      H42 1798   5.325   6.294   4.895
   69C       N3 1799   5.216   6.509   4.951
   69C       C2 1800   5.168   6.638   4.970
   69C       O2 1801   5.046   6.653   4.958
   69C      C3' 1802   5.253   6.952   5.232
   69C      H3' 1803   5.321   6.874   5.267
   69C      C2' 1804   5.140   6.899   5.143
   69C     H2'1 1805   5.090   6.812   5.186
   69C      O2' 1806   5.039   6.996   5.134
   69C     HO'2 1807   5.006   7.012   5.222
   69C      O3' 1808   5.209   7.030   5.337
   70U        P 1809   5.157   6.968   5.466
   70U      O1P 1810   5.113   7.084   5.543
   70U      O2P 1811   5.261   6.889   5.526
   70U      O5' 1812   5.034   6.867   5.435
   70U      C5' 1813   4.893   6.907   5.433
   70U     H5'1 1814   4.878   6.979   5.353
   70U     H5'2 1815   4.873   6.956   5.528
   70U      C4' 1816   4.798   6.789   5.424
   70U      H4' 1817   4.697   6.830   5.418
   70U      O4' 1818   4.812   6.710   5.302
   70U      C1' 1819   4.810   6.570   5.334
   70U      H1' 1820   4.738   6.525   5.265
   70U       N1 1821   4.936   6.490   5.323
   70U       C6 1822   5.057   6.541   5.347
   70U       H6 1823   5.063   6.640   5.389
   70U       C5 1824   5.169   6.462   5.323
   70U       H5 1825   5.267   6.496   5.353
   70U       C4 1826   5.164   6.329   5.272
   70U       O4 1827   5.259   6.253   5.249
   70U       N3 1828   5.038   6.285   5.253
   70U       H3 1829   5.026   6.191   5.218
   70U       C2 1830   4.927   6.358   5.279
   70U       O2 1831   4.813   6.310   5.258
   70U      C3' 1832   4.802   6.700   5.542
   70U      H3' 1833   4.903   6.688   5.582
   70U      C2' 1834   4.755   6.565   5.481
   70U     H2'1 1835   4.792   6.474   5.529
   70U      O2' 1836   4.613   6.561   5.476
   70U     HO'2 1837   4.568   6.631   5.525
   70U      O3' 1838   4.718   6.746   5.643
   71U        P 1839   4.747   6.712   5.795
   71U      O1P 1840   4.643   6.766   5.880
   71U      O2P 1841   4.887   6.756   5.817
   71U      O5' 1842   4.737   6.548   5.808
   71U      C5' 1843   4.612   6.490   5.806
   71U     H5'1 1844   4.555   6.538   5.726
   71U     H5'2 1845   4.569   6.511   5.904
   71U      C4' 1846   4.620   6.340   5.785
   71U      H4' 1847   4.522   6.293   5.798
   71U      O4' 1848   4.679   6.300   5.657
   71U      C1' 1849   4.736   6.173   5.684
   71U      H1' 1850   4.674   6.102   5.629
   71U       N1 1851   4.873   6.162   5.637
   71U       C6 1852   4.955   6.270   5.644
   71U       H6 1853   4.921   6.367   5.676
   71U       C5 1854   5.089   6.254   5.609
   71U       H5 1855   5.156   6.337   5.626
   71U       C4 1856   5.146   6.131   5.559
   71U       O4 1857   5.266   6.103   5.537
   71U       N3 1858   5.056   6.029   5.558
   71U       H3 1859   5.099   5.939   5.537
   71U       C2 1860   4.924   6.036   5.598
   71U       O2 1861   4.853   5.934   5.615
   71U      C3' 1862   4.714   6.278   5.891
   71U      H3' 1863   4.809   6.330   5.882
   71U      C2' 1864   4.727   6.139   5.836
   71U     H2'1 1865   4.819   6.090   5.868
   71U      O2' 1866   4.627   6.047   5.851
   71U     HO'2 1867   4.672   5.965   5.875
   71U      O3' 1868   4.661   6.286   6.022
   72G        P 1869   4.761   6.265   6.144
   72G      O1P 1870   4.692   6.295   6.271
   72G      O2P 1871   4.884   6.331   6.121
   72G      O5' 1872   4.793   6.104   6.146
   72G      C5' 1873   4.695   6.007   6.183
   72G     H5'1 1874   4.606   6.034   6.127
   72G     H5'2 1875   4.659   6.020   6.285
   72G      C4' 1876   4.743   5.868   6.154
   72G      H4' 1877   4.665   5.798   6.183
   72G      O4' 1878   4.780   5.845   6.022
   72G      C1' 1879   4.900   5.779   6.015
   72G      H1' 1880   4.886   5.698   5.943
   72G       N9 1881   5.013   5.863   5.975
   72G       C8 1882   5.070   5.980   6.017
   72G       H8 1883   5.020   6.048   6.083
   72G       N7 1884   5.183   6.008   5.948
   72G       C5 1885   5.210   5.897   5.871
   72G       C6 1886   5.320   5.854   5.795
   72G       O6 1887   5.420   5.914   5.762
   72G       N1 1888   5.310   5.726   5.744
   72G       H1 1889   5.383   5.689   5.685
   72G       C2 1890   5.207   5.647   5.774
   72G       N2 1891   5.204   5.528   5.722
   72G      H21 1892   5.288   5.506   5.671
   72G      H22 1893   5.127   5.462   5.727
   72G       N3 1894   5.098   5.684   5.833
   72G       C4 1895   5.110   5.809   5.887
   72G      C3' 1896   4.860   5.830   6.245
   72G      H3' 1897   4.924   5.917   6.259
   72G      C2' 1898   4.921   5.719   6.156
   72G     H2'1 1899   5.025   5.716   6.188
   72G      O2' 1900   4.859   5.595   6.160
   72G     HO'2 1901   4.850   5.566   6.251
   72G      O3' 1902   4.809   5.792   6.370
   73A        P 1903   4.915   5.740   6.477
   73A      O1P 1904   4.853   5.736   6.609
   73A      O2P 1905   5.042   5.816   6.457
   73A      O5' 1906   4.934   5.589   6.439
   73A      C5' 1907   4.993   5.505   6.536
   73A     H5'1 1908   4.908   5.464   6.590
   73A     H5'2 1909   5.068   5.548   6.602
   73A      C4' 1910   5.060   5.394   6.455
   73A      H4' 1911   4.985   5.335   6.402
   73A      O4' 1912   5.162   5.413   6.356
   73A      C1' 1913   5.251   5.299   6.350
   73A      H1' 1914   5.224   5.238   6.264
   73A       N9 1915   5.394   5.336   6.346
   73A       C8 1916   5.453   5.460   6.366
   73A       H8 1917   5.390   5.541   6.402
   73A       N7 1918   5.580   5.460   6.344
   73A       C5 1919   5.605   5.324   6.314
   73A       C6 1920   5.718   5.246   6.264
   73A       N6 1921   5.840   5.300   6.247
   73A      H61 1922   5.851   5.393   6.285
   73A      H62 1923   5.914   5.232   6.247
   73A       N1 1924   5.718   5.119   6.240
   73A       C2 1925   5.604   5.059   6.253
   73A       H2 1926   5.605   4.955   6.225
   73A       N3 1927   5.485   5.112   6.288
   73A       C4 1928   5.494   5.248   6.320
   73A      C3' 1929   5.132   5.297   6.546
   73A      H3' 1930   5.195   5.363   6.606
   73A      C2' 1931   5.224   5.206   6.466
   73A     H2'1 1932   5.314   5.186   6.524
   73A      O2' 1933   5.152   5.092   6.405
   73A     HO'2 1934   5.150   5.019   6.467
   73A      O3' 1935   5.042   5.230   6.629
   74U        P 1936   5.087   5.203   6.779
   74U      O1P 1937   4.972   5.151   6.857
   74U      O2P 1938   5.160   5.317   6.831
   74U      O5' 1939   5.188   5.087   6.744
   74U      C5' 1940   5.141   4.954   6.722
   74U     H5'1 1941   5.059   4.963   6.652
   74U     H5'2 1942   5.106   4.912   6.817
   74U      C4' 1943   5.250   4.861   6.673
   74U      H4' 1944   5.205   4.767   6.641
   74U      O4' 1945   5.329   4.925   6.569
   74U      C1' 1946   5.466   4.888   6.589
   74U      H1' 1947   5.491   4.841   6.494
   74U       N1 1948   5.557   4.995   6.606
   74U       C6 1949   5.528   5.108   6.681
   74U       H6 1950   5.428   5.123   6.720
   74U       C5 1951   5.616   5.213   6.694
   74U       H5 1952   5.583   5.306   6.739
   74U       C4 1953   5.749   5.200   6.629
   74U       O4 1954   5.839   5.290   6.639
   74U       N3 1955   5.772   5.078   6.568
   74U       H3 1956   5.867   5.071   6.533
   74U       C2 1957   5.687   4.972   6.566
   74U       O2 1958   5.724   4.867   6.505
   74U      C3' 1959   5.347   4.832   6.790
   74U      H3' 1960   5.385   4.925   6.833
   74U      C2' 1961   5.467   4.789   6.705
   74U     H2'1 1962   5.560   4.791   6.762
   74U      O2' 1963   5.445   4.663   6.659
   74U     HO'2 1964   5.471   4.596   6.723
   74U      O3' 1965   5.307   4.737   6.887
   75U        P 1966   5.354   4.723   7.036
   75U      O1P 1967   5.384   4.582   7.061
   75U      O2P 1968   5.260   4.793   7.123
   75U      O5' 1969   5.490   4.805   7.042
   75U      C5' 1970   5.613   4.736   7.028
   75U     H5'1 1971   5.617   4.698   6.926
   75U     H5'2 1972   5.618   4.659   7.105
   75U      C4' 1973   5.735   4.822   7.056
   75U      H4' 1974   5.821   4.756   7.065
   75U      O4' 1975   5.749   4.935   6.967
   75U      C1' 1976   5.801   5.053   7.026
   75U      H1' 1977   5.893   5.098   6.989
   75U       N1 1978   5.688   5.159   7.024
   75U       C6 1979   5.555   5.129   7.011
   75U       H6 1980   5.524   5.026   7.001
   75U       C5 1981   5.460   5.228   6.996
   75U       H5 1982   5.363   5.191   6.966
   75U       C4 1983   5.493   5.370   7.007
   75U       O4 1984   5.410   5.460   7.004
   75U       N3 1985   5.625   5.386   7.028
   75U       H3 1986   5.654   5.483   7.028
   75U       C2 1987   5.724   5.293   7.045
   75U       O2 1988   5.835   5.330   7.091
   75U      C3' 1989   5.724   4.889   7.193
   75U      H3' 1990   5.626   4.936   7.209
   75U      C2' 1991   5.825   5.007   7.165
   75U     H2'1 1992   5.823   5.081   7.245
   75U      O2' 1993   5.960   4.952   7.161
   75U     HO'2 1994   5.958   4.885   7.229
   75U      O3' 1995   5.771   4.801   7.300
   76A        P 1996   5.726   4.811   7.446
   76A      O1P 1997   5.797   4.694   7.505
   76A      O2P 1998   5.580   4.807   7.442
   76A      O5' 1999   5.779   4.943   7.513
   76A      C5' 2000   5.913   4.965   7.562
   76A     H5'1 2001   5.991   4.947   7.488
   76A     H5'2 2002   5.927   4.893   7.643
   76A      C4' 2003   5.939   5.103   7.630
   76A      H4' 2004   6.036   5.102   7.680
   76A      O4' 2005   5.949   5.208   7.532
   76A      C1' 2006   5.882   5.318   7.583
   76A      H1' 2007   5.957   5.397   7.581
   76A       N9 2008   5.767   5.351   7.497
   76A       C8 2009   5.702   5.265   7.413
   76A       H8 2010   5.725   5.159   7.415
   76A       N7 2011   5.610   5.325   7.342
   76A       C5 2012   5.612   5.456   7.395
   76A       C6 2013   5.526   5.569   7.379
   76A       N6 2014   5.419   5.579   7.306
   76A      H61 2015   5.391   5.503   7.246
   76A      H62 2016   5.370   5.666   7.285
   76A       N1 2017   5.546   5.678   7.459
   76A       C2 2018   5.656   5.685   7.525
   76A       H2 2019   5.662   5.780   7.575
   76A       N3 2020   5.748   5.592   7.538
   76A       C4 2021   5.716   5.476   7.475
   76A      C3' 2022   5.819   5.146   7.721
   76A      H3' 2023   5.734   5.122   7.656
   76A      C2' 2024   5.839   5.300   7.733
   76A     H2'1 2025   5.747   5.350   7.762
   76A      O2' 2026   5.937   5.322   7.827
   76A     HO'2 2027   5.907   5.285   7.911
   76A      O3' 2028   5.810   5.076   7.842
   77U        P 2029   5.673   5.055   7.911
   77U      O1P 2030   5.704   4.999   8.042
   77U      O2P 2031   5.589   4.982   7.814
   77U      O5' 2032   5.615   5.203   7.942
   77U      C5' 2033   5.677   5.292   8.030
   77U     H5'1 2034   5.785   5.288   8.019
   77U     H5'2 2035   5.663   5.261   8.134
   77U      C4' 2036   5.624   5.431   8.019
   77U      H4' 2037   5.681   5.494   8.087
   77U      O4' 2038   5.628   5.490   7.886
   77U      C1' 2039   5.516   5.574   7.868
   77U      H1' 2040   5.545   5.678   7.854
   77U       N1 2041   5.430   5.532   7.748
   77U       C6 2042   5.421   5.397   7.711
   77U       H6 2043   5.490   5.327   7.754
   77U       C5 2044   5.324   5.363   7.617
   77U       H5 2045   5.323   5.259   7.589
   77U       C4 2046   5.234   5.463   7.554
   77U       O4 2047   5.155   5.440   7.463
   77U       N3 2048   5.255   5.590   7.592
   77U       H3 2049   5.210   5.659   7.534
   77U       C2 2050   5.351   5.632   7.683
   77U       O2 2051   5.364   5.750   7.700
   77U      C3' 2052   5.483   5.436   8.058
   77U      H3' 2053   5.433   5.349   8.017
   77U      C2' 2054   5.437   5.570   7.990
   77U     H2'1 2055   5.331   5.558   7.969
   77U      O2' 2056   5.476   5.682   8.062
   77U     HO'2 2057   5.472   5.664   8.156
   77U      O3' 2058   5.467   5.434   8.200
   78G        P 2059   5.325   5.393   8.257
   78G      O1P 2060   5.332   5.389   8.404
   78G      O2P 2061   5.280   5.274   8.182
   78G      O5' 2062   5.238   5.517   8.213
   78G      C5' 2063   5.237   5.634   8.290
   78G     H5'1 2064   5.335   5.681   8.282
   78G     H5'2 2065   5.220   5.609   8.395
   78G      C4' 2066   5.136   5.739   8.250
   78G      H4' 2067   5.145   5.818   8.325
   78G      O4' 2068   5.175   5.783   8.120
   78G      C1' 2069   5.059   5.803   8.038
   78G      H1' 2070   5.063   5.903   7.995
   78G       N9 2071   5.038   5.704   7.929
   78G       C8 2072   5.068   5.570   7.929
   78G       H8 2073   5.125   5.523   8.008
   78G       N7 2074   5.017   5.499   7.824
   78G       C5 2075   4.944   5.602   7.761
   78G       C6 2076   4.860   5.600   7.642
   78G       O6 2077   4.847   5.509   7.554
   78G       N1 2078   4.783   5.711   7.623
   78G       H1 2079   4.738   5.727   7.535
   78G       C2 2080   4.791   5.817   7.701
   78G       N2 2081   4.704   5.906   7.691
   78G      H21 2082   4.636   5.908   7.617
   78G      H22 2083   4.714   5.985   7.752
   78G       N3 2084   4.873   5.831   7.801
   78G       C4 2085   4.943   5.718   7.829
   78G      C3' 2086   4.994   5.685   8.237
   78G      H3' 2087   4.990   5.586   8.193
   78G      C2' 2088   4.938   5.789   8.135
   78G     H2'1 2089   4.854   5.748   8.079
   78G      O2' 2090   4.907   5.911   8.190
   78G     HO'2 2091   4.870   5.894   8.276
   78G      O3' 2092   4.925   5.691   8.363
   79A        P 2093   4.777   5.622   8.379
   79A      O1P 2094   4.743   5.631   8.522
   79A      O2P 2095   4.788   5.491   8.316
   79A      O5' 2096   4.671   5.707   8.297
   79A      C5' 2097   4.611   5.818   8.349
   79A     H5'1 2098   4.685   5.895   8.370
   79A     H5'2 2099   4.552   5.798   8.438
   79A      C4' 2100   4.501   5.877   8.246
   79A      H4' 2101   4.474   5.972   8.294
   79A      O4' 2102   4.550   5.901   8.111
   79A      C1' 2103   4.449   5.868   8.025
   79A      H1' 2104   4.429   5.943   7.949
   79A       N9 2105   4.484   5.752   7.945
   79A       C8 2106   4.587   5.666   7.969
   79A       H8 2107   4.645   5.677   8.060
   79A       N7 2108   4.601   5.569   7.882
   79A       C5 2109   4.501   5.602   7.793
   79A       C6 2110   4.465   5.540   7.672
   79A       N6 2111   4.524   5.430   7.627
   79A      H61 2112   4.613   5.397   7.661
   79A      H62 2113   4.492   5.418   7.532
   79A       N1 2114   4.364   5.599   7.599
   79A       C2 2115   4.298   5.699   7.646
   79A       H2 2116   4.209   5.722   7.590
   79A       N3 2117   4.318   5.766   7.762
   79A       C4 2118   4.425   5.708   7.831
   79A      C3' 2119   4.381   5.788   8.230
   79A      H3' 2120   4.417   5.688   8.205
   79A      C2' 2121   4.321   5.845   8.105
   79A     H2'1 2122   4.255   5.778   8.051
   79A      O2' 2123   4.262   5.974   8.132
   79A     HO'2 2124   4.202   5.965   8.207
   79A      O3' 2125   4.297   5.791   8.345
   80A        P 2126   4.206   5.665   8.377
   80A      O1P 2127   4.143   5.687   8.509
   80A      O2P 2128   4.295   5.546   8.366
   80A      O5' 2129   4.096   5.655   8.256
   80A      C5' 2130   4.006   5.763   8.236
   80A     H5'1 2131   4.066   5.853   8.253
   80A     H5'2 2132   3.927   5.759   8.311
   80A      C4' 2133   3.934   5.760   8.099
   80A      H4' 2134   3.854   5.833   8.085
   80A      O4' 2135   4.032   5.766   7.996
   80A      C1' 2136   4.012   5.670   7.896
   80A      H1' 2137   4.019   5.707   7.794
   80A       N9 2138   4.103   5.551   7.888
   80A       C8 2139   4.194   5.497   7.977
   80A       H8 2140   4.207   5.545   8.073
   80A       N7 2141   4.250   5.386   7.939
   80A       C5 2142   4.197   5.366   7.813
   80A       C6 2143   4.216   5.274   7.714
   80A       N6 2144   4.305   5.177   7.715
   80A      H61 2145   4.372   5.162   7.789
   80A      H62 2146   4.323   5.129   7.627
   80A       N1 2147   4.159   5.292   7.595
   80A       C2 2148   4.072   5.388   7.585
   80A       H2 2149   4.042   5.401   7.482
   80A       N3 2150   4.034   5.483   7.673
   80A       C4 2151   4.103   5.462   7.789
   80A      C3' 2152   3.869   5.626   8.069
   80A      H3' 2153   3.926   5.542   8.109
   80A      C2' 2154   3.867   5.622   7.918
   80A     H2'1 2155   3.844   5.523   7.878
   80A      O2' 2156   3.787   5.728   7.855
   80A     HO'2 2157   3.697   5.723   7.887
   80A      O3' 2158   3.740   5.617   8.114
   81G        P 2159   3.665   5.478   8.131
   81G      O1P 2160   3.535   5.501   8.202
   81G      O2P 2161   3.757   5.379   8.186
   81G      O5' 2162   3.634   5.430   7.988
   81G      C5' 2163   3.526   5.480   7.918
   81G     H5'1 2164   3.552   5.585   7.903
   81G     H5'2 2165   3.441   5.467   7.984
   81G      C4' 2166   3.508   5.406   7.782
   81G      H4' 2167   3.428   5.455   7.727
   81G      O4' 2168   3.623   5.418   7.704
   81G      C1' 2169   3.640   5.294   7.633
   81G      H1' 2170   3.652   5.319   7.527
   81G       N9 2171   3.761   5.216   7.671
   81G       C8 2172   3.838   5.239   7.781
   81G       H8 2173   3.819   5.322   7.848
   81G       N7 2174   3.931   5.148   7.799
   81G       C5 2175   3.920   5.068   7.680
   81G       C6 2176   4.009   4.981   7.618
   81G       O6 2177   4.123   4.947   7.661
   81G       N1 2178   3.961   4.925   7.503
   81G       H1 2179   4.017   4.855   7.457
   81G       C2 2180   3.849   4.967   7.441
   81G       N2 2181   3.816   4.899   7.335
   81G      H21 2182   3.866   4.815   7.309
   81G      H22 2183   3.731   4.919   7.283
   81G       N3 2184   3.772   5.070   7.483
   81G       C4 2185   3.819   5.119   7.602
   81G      C3' 2186   3.469   5.259   7.794
   81G      H3' 2187   3.532   5.216   7.871
   81G      C2' 2188   3.513   5.209   7.652
   81G     H2'1 2189   3.538   5.104   7.659
   81G      O2' 2190   3.417   5.236   7.548
   81G     HO'2 2191   3.426   5.166   7.482
   81G      O3' 2192   3.328   5.235   7.818
   82U        P 2193   3.275   5.099   7.882
   82U      O1P 2194   3.125   5.092   7.862
   82U      O2P 2195   3.327   5.102   8.020
   82U      O5' 2196   3.354   4.988   7.798
   82U      C5' 2197   3.292   4.938   7.684
   82U     H5'1 2198   3.283   5.024   7.617
   82U     H5'2 2199   3.193   4.905   7.716
   82U      C4' 2200   3.372   4.826   7.619
   82U      H4' 2201   3.316   4.788   7.534
   82U      O4' 2202   3.505   4.862   7.578
   82U      C1' 2203   3.587   4.745   7.573
   82U      H1' 2204   3.609   4.721   7.469
   82U       N1 2205   3.701   4.740   7.668
   82U       C6 2206   3.706   4.824   7.778
   82U       H6 2207   3.618   4.883   7.800
   82U       C5 2208   3.812   4.820   7.865
   82U       H5 2209   3.806   4.878   7.956
   82U       C4 2210   3.930   4.743   7.834
   82U       O4 2211   4.027   4.745   7.907
   82U       N3 2212   3.919   4.659   7.726
   82U       H3 2213   3.993   4.594   7.704
   82U       C2 2214   3.814   4.664   7.638
   82U       O2 2215   3.819   4.595   7.538
   82U      C3' 2216   3.396   4.702   7.713
   82U      H3' 2217   3.441   4.725   7.809
   82U      C2' 2218   3.496   4.624   7.627
   82U     H2'1 2219   3.546   4.558   7.697
   82U      O2' 2220   3.457   4.557   7.504
   82U     HO'2 2221   3.411   4.476   7.528
   82U      O3' 2222   3.291   4.618   7.733
   83G        P 2223   3.289   4.527   7.866
   83G      O1P 2224   3.151   4.476   7.875
   83G      O2P 2225   3.348   4.600   7.980
   83G      O5' 2226   3.389   4.408   7.834
   83G      C5' 2227   3.342   4.291   7.765
   83G     H5'1 2228   3.313   4.308   7.661
   83G     H5'2 2229   3.256   4.248   7.815
   83G      C4' 2230   3.449   4.182   7.755
   83G      H4' 2231   3.409   4.098   7.699
   83G      O4' 2232   3.568   4.239   7.695
   83G      C1' 2233   3.681   4.167   7.751
   83G      H1' 2234   3.730   4.112   7.670
   83G       N9 2235   3.766   4.265   7.820
   83G       C8 2236   3.726   4.378   7.880
   83G       H8 2237   3.624   4.412   7.889
   83G       N7 2238   3.824   4.452   7.925
   83G       C5 2239   3.937   4.372   7.906
   83G       C6 2240   4.067   4.379   7.955
   83G       O6 2241   4.118   4.467   8.027
   83G       N1 2242   4.155   4.280   7.916
   83G       H1 2243   4.247   4.290   7.957
   83G       C2 2244   4.116   4.177   7.839
   83G       N2 2245   4.200   4.076   7.823
   83G      H21 2246   4.298   4.084   7.849
   83G      H22 2247   4.165   3.998   7.770
   83G       N3 2248   3.990   4.160   7.800
   83G       C4 2249   3.905   4.260   7.835
   83G      C3' 2250   3.492   4.138   7.892
   83G      H3' 2251   3.497   4.225   7.958
   83G      C2' 2252   3.625   4.074   7.856
   83G     H2'1 2253   3.688   4.077   7.945
   83G      O2' 2254   3.614   3.944   7.803
   83G     HO'2 2255   3.555   3.897   7.862
   83G      O3' 2256   3.410   4.041   7.948
   83G      H3T 2257   3.320   4.072   7.953
   84SOL     OW 2258   8.652   5.001   7.246
   84SOL    HW1 2259  -2.387  15.967   7.307
   84SOL    HW2 2260 -13.386   5.073   7.294
   85SOL     OW 2261  10.115   8.002   7.772
   85SOL    HW1 2262  -0.966   7.919  -3.246
   85SOL    HW2 2263  -0.881  -3.053 -14.390
   86SOL     OW 2264  10.249   3.609   1.244
   86SOL    HW1 2265  -0.696 -18.474   1.232
   86SOL    HW2 2266  10.236   3.592   1.338
   87SOL     OW 2267   6.689   5.020   0.280
   87SOL    HW1 2268  -4.275   5.054   0.232
   87SOL    HW2 2269   6.707   4.927   0.291
   88SOL     OW 2270   3.960   3.325   0.231
   88SOL    HW1 2271  -7.129 -18.686   0.184
   88SOL    HW2 2272  15.008  -7.681   0.320
   89SOL     OW 2273   3.554   1.189   2.417
   89SOL    HW1 2274   3.521   1.231   2.496
   89SOL    HW2 2275   3.630   1.139   2.446
   90SOL     OW 2276  10.231   8.901   4.756
   90SOL    HW1 2277  10.148   8.868   4.721
   90SOL    HW2 2278  10.259   8.834   4.818
   91SOL     OW 2279   7.223   2.566   0.369
   91SOL    HW1 2280  18.299   2.625   0.436
   91SOL    HW2 2281   7.140   2.606   0.344
   92SOL     OW 2282   0.065   2.859   2.077
   92SOL    HW1 2283   0.123   2.926   2.114
   92SOL    HW2 2284  -0.019   2.903   2.067
   93SOL     OW 2285   8.881   4.831   3.824
   93SOL    HW1 2286   8.900  15.849  -7.307
   93SOL    HW2 2287 -13.280   4.881   3.821
   94SOL     OW 2288   2.335   1.756   5.861
   94SOL    HW1 2289   2.322   1.786   5.951
   94SOL    HW2 2290  -8.625   1.703  27.943
   95SOL     OW 2291  10.362  -0.095  11.440
   95SOL    HW1 2292  10.438  10.982   0.445
   95SOL    HW2 2293  10.307  -0.129 -21.609
   96SOL     OW 2294   3.790   9.446   2.321
   96SOL    HW1 2295  -7.175   9.410   2.272
   96SOL    HW2 2296   3.785  -1.648   2.400
   97SOL     OW 2297   1.954   3.239   1.008
   97SOL    HW1 2298   1.867  14.248 -10.008
   97SOL    HW2 2299   1.949   3.253   0.913
   98SOL     OW 2300  -0.926   9.727   9.493
   98SOL    HW1 2301  21.213   9.748   9.421
   98SOL    HW2 2302  10.039   9.786   9.479
   99SOL     OW 2303   0.139   4.745   7.870
   99SOL    HW1 2304   0.228   4.755   7.836
   99SOL    HW2 2305   0.090   4.705   7.798
  100SOL     OW 2306   7.520  -0.633   9.381
  100SOL    HW1 2307   7.544  -0.719   9.346
  100SOL    HW2 2308  29.682  21.485   9.407
  101SOL     OW 2309   0.289   5.005   1.093
  101SOL    HW1 2310  11.320  16.091   1.176
  101SOL    HW2 2311   0.383   4.989   1.084
  102SOL     OW 2312   1.081  10.339   7.578
  102SOL    HW1 2313   1.024  10.283   7.631
  102SOL    HW2 2314   1.168  21.338   7.584
  103SOL     OW 2315   5.268   7.016   6.835
  103SOL    HW1 2316 -16.844   7.096   6.795
  103SOL    HW2 2317  -5.843   6.954   6.827
  104SOL     OW 2318   8.007   0.376   3.844
  104SOL    HW1 2319   8.079   0.414  -7.246
  104SOL    HW2 2320   8.016   0.282   3.832
  105SOL     OW 2321   3.544   9.385   6.146
  105SOL    HW1 2322   3.600   9.310   6.166
  105SOL    HW2 2323   3.490  20.395 -16.007
  106SOL     OW 2324   6.684   4.709   2.537
  106SOL    HW1 2325  17.773  -6.371   2.609
  106SOL    HW2 2326   6.593  15.743   2.565
  107SOL     OW 2327   1.894   1.034   6.284
  107SOL    HW1 2328   1.982 -10.042 -37.860
  107SOL    HW2 2329   1.834   0.963   6.307
  108SOL     OW 2330   2.611   2.507   6.574
  108SOL    HW1 2331  13.612   2.508   6.662
  108SOL    HW2 2332  13.606   2.578   6.527
  109SOL     OW 2333   2.834   5.557   4.883
  109SOL    HW1 2334   2.818   5.464   4.867
  109SOL    HW2 2335   2.899   5.559   4.954
  110SOL     OW 2336   9.289   6.191   3.950
  110SOL    HW1 2337   9.364   6.244   3.975
  110SOL    HW2 2338  -1.804   6.249   3.897
  111SOL     OW 2339   5.458   4.067   2.578
  111SOL    HW1 2340   5.453  26.059   2.617
  111SOL    HW2 2341   5.405 -18.018  13.538
  112SOL     OW 2342   3.571   1.395   7.633
  112SOL    HW1 2343   3.633   1.448   7.682
  112SOL    HW2 2344  25.613   1.335   7.697
  113SOL     OW 2345   7.915   0.477   8.821
  113SOL    HW1 2346   7.951  22.468  -2.224
  113SOL    HW2 2347  18.994   0.524   8.748
  114SOL     OW 2348   7.935   9.309   9.846
  114SOL    HW1 2349   7.932   9.400   9.820
  114SOL    HW2 2350   7.997  -1.733   9.919
  115SOL     OW 2351   6.115   7.584   7.369
  115SOL    HW1 2352  -4.897   7.494   7.386
  115SOL    HW2 2353   6.194  -3.412   7.336
  116SOL     OW 2354   9.747   8.926   7.045
  116SOL    HW1 2355   9.692   8.919   7.124
  116SOL    HW2 2356   9.775   9.017   7.044
  117SOL     OW 2357  -0.313   6.516   8.784
  117SOL    HW1 2358  -0.305  -4.611   8.823
  117SOL    HW2 2359  10.770  -4.465   8.846
  118SOL     OW 2360   8.739   8.125  10.432
  118SOL    HW1 2361   8.714   8.180  10.358
  118SOL    HW2 2362  -2.353  19.085 -11.658
  119SOL     OW 2363   5.430   6.056   2.326
  119SOL    HW1 2364 -16.553   6.052  -8.713
  119SOL    HW2 2365  16.442   5.971   2.359
  120SOL     OW 2366   1.687   0.912   6.856
  120SOL    HW1 2367   1.680  11.993  17.982
  120SOL    HW2 2368   1.770   0.944   6.821
  121SOL     OW 2369   5.363   2.945   9.154
  121SOL    HW1 2370  27.511   2.899   9.202
  121SOL    HW2 2371  38.403  -8.149   9.166
  122SOL     OW 2372   0.956  11.112   5.255
  122SOL    HW1 2373   0.970 -11.059   5.232
  122SOL    HW2 2374   0.884   0.100  16.238
  123SOL     OW 2375   7.840   2.876   0.359
  123SOL    HW1 2376   7.820 -19.292  11.428
  123SOL    HW2 2377   7.755   2.913  22.414
  124SOL     OW 2378   5.297   2.786   4.173
  124SOL    HW1 2379   5.295   2.865   4.118
  124SOL    HW2 2380   5.385   2.752  -6.878
  125SOL     OW 2381   5.162   8.814  10.967
  125SOL    HW1 2382   5.234   8.836  10.907
  125SOL    HW2 2383  -5.868   8.877 -11.040
  126SOL     OW 2384   6.145   2.062   9.712
  126SOL    HW1 2385   6.105  -9.016   9.634
  126SOL    HW2 2386   6.234  -8.955   9.685
  127SOL     OW 2387   5.359   4.812   1.174
  127SOL    HW1 2388  16.492 -17.284   1.166
  127SOL    HW2 2389   5.330  -6.286   1.244
  128SOL     OW 2390   6.048   5.890   8.616
  128SOL    HW1 2391   6.138   5.878   8.585
  128SOL    HW2 2392   6.058  28.009   8.702
  129SOL     OW 2393   1.650   0.155   0.234
  129SOL    HW1 2394   1.614  11.107   0.219
  129SOL    HW2 2395  34.708   0.196   0.296
  130SOL     OW 2396   8.440   0.768   9.586
  130SOL    HW1 2397  41.491   0.704   9.563
  130SOL    HW2 2398   8.426   0.784   9.680
  131SOL     OW 2399   4.090   5.154   0.513
  131SOL    HW1 2400   4.082   5.100   0.592
  131SOL    HW2 2401   4.117   5.092  11.485
  132SOL     OW 2402   8.353   4.755   6.830
  132SOL    HW1 2403   8.282   4.751   6.766
  132SOL    HW2 2404   8.311  -6.300   6.914
  133SOL     OW 2405   0.392   8.356   2.746
  133SOL    HW1 2406   0.302 -24.793   2.738
  133SOL    HW2 2407  22.483   8.418   2.674
  134SOL     OW 2408   3.626   5.088   6.616
  134SOL    HW1 2409   3.695 -27.969   6.590
  134SOL    HW2 2410 -18.525   5.105   6.555
  135SOL     OW 2411   8.112   6.441   0.844
  135SOL    HW1 2412   8.179   6.406   0.786
  135SOL    HW2 2413  -2.988  -4.672   0.859
  136SOL     OW 2414  10.628   3.163   6.447
  136SOL    HW1 2415  10.690   3.114   6.392
  136SOL    HW2 2416  10.603   3.238   6.393
  137SOL     OW 2417   3.421   5.532   6.723
  137SOL    HW1 2418   3.441   5.460   6.782
  137SOL    HW2 2419  14.383  27.583   6.674
  138SOL     OW 2420   2.325   2.050   7.259
  138SOL    HW1 2421   2.313   2.010   7.174
  138SOL    HW2 2422   2.244   2.100  18.313
  139SOL     OW 2423   8.954   2.282   7.066
  139SOL    HW1 2424   8.951   2.187  -3.963
  139SOL    HW2 2425  -2.165   2.303   7.018
  140SOL     OW 2426   1.999   2.195   2.329
  140SOL    HW1 2427   1.971  24.349   2.277
  140SOL    HW2 2428   2.026   2.233   2.413
  141SOL     OW 2429   3.859   9.468   6.091
  141SOL    HW1 2430   3.848 -12.695 -16.032
  141SOL    HW2 2431   3.951  -1.571  39.236
  142SOL     OW 2432  10.285   1.659   2.974
  142SOL    HW1 2433  10.264   1.570   3.002
  142SOL    HW2 2434  10.348   1.648  13.943
  143SOL     OW 2435   0.174   1.051   7.547
  143SOL    HW1 2436   0.128   0.971   7.570
  143SOL    HW2 2437   0.151   1.067   7.456
  144SOL     OW 2438   9.885   1.624   1.551
  144SOL    HW1 2439   9.806   1.599   1.599
  144SOL    HW2 2440   9.896 -20.523   1.485
  145SOL     OW 2441  10.882   0.762   3.111
  145SOL    HW1 2442  10.974   0.788   3.100
  145SOL    HW2 2443  10.842   0.782  -8.014
  146SOL     OW 2444  10.585   2.235   1.824
  146SOL    HW1 2445  10.647  13.344   1.847
  146SOL    HW2 2446  10.499  13.313   1.840
  147SOL     OW 2447   5.171   8.949   4.390
  147SOL    HW1 2448   5.176   9.021  15.493
  147SOL    HW2 2449   5.262   8.920  48.539
  148SOL     OW 2450   6.255   6.776   2.938
  148SOL    HW1 2451   6.177   6.747  -8.054
  148SOL    HW2 2452   6.253   6.725   2.857
  149SOL     OW 2453   6.122   8.268   4.354
  149SOL    HW1 2454   6.188 -13.760   4.308
  149SOL    HW2 2455   6.048   8.263   4.293
  150SOL     OW 2456   0.991   6.726   4.301
  150SOL    HW1 2457   0.958   6.706   4.213
  150SOL    HW2 2458  34.177   6.793   4.287
  151SOL     OW 2459   6.210   0.809  -0.055
  151SOL    HW1 2460  17.300   0.890  -0.062
  151SOL    HW2 2461  17.311  44.905  55.182
  152SOL     OW 2462   4.033   3.877   3.109
  152SOL    HW1 2463   4.030   3.970  -7.953
  152SOL    HW2 2464  15.021   3.834   3.041
  153SOL     OW 2465   9.631   6.808   1.336
  153SOL    HW1 2466   9.673   6.841   1.257
  153SOL    HW2 2467  20.610  -4.299   1.306
  154SOL     OW 2468  11.406   3.808  10.913
  154SOL    HW1 2469  11.430   3.810  10.820
  154SOL    HW2 2470 -10.666  14.755  10.937
  155SOL     OW 2471   5.483  10.389   4.580
  155SOL    HW1 2472   5.416  -0.614   4.637
  155SOL    HW2 2473   5.556  10.451  -6.454
  156SOL     OW 2474   0.791   0.422   2.161
  156SOL    HW1 2475  11.897 -21.694  -8.936
  156SOL    HW2 2476   0.808  22.595   2.160
  157SOL     OW 2477   5.453   5.910   8.363
  157SOL    HW1 2478   5.402   5.928   8.442
  157SOL    HW2 2479   5.512   5.839   8.388
  158SOL     OW 2480   9.881   9.676   6.101
  158SOL    HW1 2481   9.799   9.635  -4.966
  158SOL    HW2 2482   9.856   9.765   6.125
  159SOL     OW 2483  -0.021   2.977   9.998
  159SOL    HW1 2484  10.997   3.033   9.923
  159SOL    HW2 2485   0.037  -8.129   9.962
  160SOL     OW 2486   2.565   1.150  11.565
  160SOL    HW1 2487   2.533   1.154  11.656
  160SOL    HW2 2488   2.491  23.259   0.473
  161SOL     OW 2489   6.715  11.063   4.578
  161SOL    HW1 2490  39.869   0.024   4.489
  161SOL    HW2 2491   6.718  11.155   4.605
  162SOL     OW 2492   2.578   2.990   3.173
  162SOL    HW1 2493  -8.387  -7.992  -7.884
  162SOL    HW2 2494   2.509  25.128   3.203
  163SOL     OW 2495   3.925   2.152   1.210
  163SOL    HW1 2496   3.948  24.139   1.196
  163SOL    HW2 2497   3.903   2.156   1.303
  164SOL     OW 2498   4.150   0.155   3.574
  164SOL    HW1 2499   4.162   0.246   3.599
  164SOL    HW2 2500   4.232   0.112   3.600
  165SOL     OW 2501   8.276   4.730   2.183
  165SOL    HW1 2502   8.365   4.757  35.279
  165SOL    HW2 2503  19.318   4.714   2.278
  166SOL     OW 2504   7.759   7.680   4.596
  166SOL    HW1 2505   7.838   7.656   4.549
  166SOL    HW2 2506   7.697  -3.333   4.528
  167SOL     OW 2507   2.994   7.420   6.196
  167SOL    HW1 2508   3.061   7.399   6.262
  167SOL    HW2 2509 -19.036   7.450  17.160
  168SOL     OW 2510  11.034  10.654   3.944
  168SOL    HW1 2511  -0.099  10.631   3.939
  168SOL    HW2 2512  11.069  10.630   3.858
  169SOL     OW 2513   6.096   1.613   0.067
  169SOL    HW1 2514   6.171   1.628  22.090
  169SOL    HW2 2515  17.060  -9.421  11.048
  170SOL     OW 2516   3.123   5.195   3.936
  170SOL    HW1 2517   3.144   5.116   3.987
  170SOL    HW2 2518  14.242  -5.792   3.941
  171SOL     OW 2519  -0.136   3.392  10.511
  171SOL    HW1 2520  10.846   3.464  -0.552
  171SOL    HW2 2521  -0.191   3.314  21.543
  172SOL     OW 2522   8.417   2.125   6.541
  172SOL    HW1 2523   8.350  -8.976   6.571
  172SOL    HW2 2524   8.492   2.070   6.518
  173SOL     OW 2525   2.658   5.772   0.954
  173SOL    HW1 2526   2.625  -5.356   0.937
  173SOL    HW2 2527  -8.298   5.758  12.038
  174SOL     OW 2528   6.558   0.521   2.917
  174SOL    HW1 2529   6.466   0.540   2.897
  174SOL    HW2 2530  17.640   0.520   2.831
  175SOL     OW 2531  10.258   3.362   5.907
  175SOL    HW1 2532  -0.787  -7.603   5.967
  175SOL    HW2 2533  10.185 -18.704  -5.193
  176SOL     OW 2534   6.452   4.983   5.781
  176SOL    HW1 2535  17.445   5.042   5.722
  176SOL    HW2 2536   6.388  15.954   5.802
  177SOL     OW 2537  10.209  10.411   9.112
  177SOL    HW1 2538 -11.837  -0.599  42.146
  177SOL    HW2 2539  10.242  21.362   9.121
  178SOL     OW 2540   5.216   9.614   9.720
  178SOL    HW1 2541  27.253   9.538  20.800
  178SOL    HW2 2542   5.302   9.582   9.692
  179SOL     OW 2543   8.408   9.448   6.190
  179SOL    HW1 2544   8.441   9.360  -4.834
  179SOL    HW2 2545   8.313   9.438   6.185
  180SOL     OW 2546   2.142   1.870  -0.029
  180SOL    HW1 2547   2.134  -9.102  11.079
  180SOL    HW2 2548   2.127   1.788  11.057
  181SOL     OW 2549   4.127   2.460   7.502
  181SOL    HW1 2550   4.163 -30.678   7.588
  181SOL    HW2 2551  -6.963   2.540   7.514
  182SOL     OW 2552   3.545   3.093   1.217
  182SOL    HW1 2553   3.520  25.254   1.175
  182SOL    HW2 2554   3.493   3.090  12.337
  183SOL     OW 2555   5.548   2.737   4.114
  183SOL    HW1 2556  -5.438   2.785   4.051
  183SOL    HW2 2557   5.595   2.747  26.276
  184SOL     OW 2558   3.062   2.524   6.082
  184SOL    HW1 2559   3.139 -19.524   6.035
  184SOL    HW2 2560   3.009   2.480   6.016
  185SOL     OW 2561   9.532   2.853   4.006
  185SOL    HW1 2562  -1.594   2.814  -7.025
  185SOL    HW2 2563  -1.478  -8.213  -7.121
  186SOL     OW 2564   8.888   6.682   8.199
  186SOL    HW1 2565   8.973   6.646   8.175
  186SOL    HW2 2566  19.943   6.775   8.212
  187SOL     OW 2567   7.162   1.561   4.546
  187SOL    HW1 2568  18.243   1.594   4.625
  187SOL    HW2 2569  -3.861  -9.573  15.586
  188SOL     OW 2570   0.210   6.115   9.136
  188SOL    HW1 2571   0.193  17.244   9.106
  188SOL    HW2 2572   0.224   6.123   9.230
  189SOL     OW 2573  10.306   5.490  11.026
  189SOL    HW1 2574  10.331   5.497  10.934
  189SOL    HW2 2575  10.308 -27.539  11.059
  190SOL     OW 2576   7.146   7.248   3.933
  190SOL    HW1 2577  18.167   7.337  14.944
  190SOL    HW2 2578 -14.999  18.270   4.000
  191SOL     OW 2579   8.685   4.928  10.347
  191SOL    HW1 2580   8.760  -6.151  10.302
  191SOL    HW2 2581   8.627   4.855 -11.714
  192SOL     OW 2582   8.027   8.492   4.959
  192SOL    HW1 2583  -3.087   8.541  -6.115
  192SOL    HW2 2584   8.039   8.526   5.048
  193SOL     OW 2585  11.378   0.160   1.762
  193SOL    HW1 2586  11.373   0.223   1.833
  193SOL    HW2 2587   0.361   0.212  12.724
  194SOL     OW 2588   0.383   3.748  10.057
  194SOL    HW1 2589   0.405   3.831  21.053
  194SOL    HW2 2590   0.338   3.775  10.137
  195SOL     OW 2591   0.209  10.430   6.759
  195SOL    HW1 2592   0.191  10.381   6.839
  195SOL    HW2 2593   0.199  10.522   6.785
  196SOL     OW 2594   0.940   0.298   1.104
  196SOL    HW1 2595   0.896  22.433  34.158
  196SOL    HW2 2596 -10.006   0.313   1.088
  197SOL     OW 2597   0.049   2.496   5.919
  197SOL    HW1 2598  11.009   2.535   5.956
  197SOL    HW2 2599 -10.936   2.476   5.995
  198SOL     OW 2600  -0.473   7.652  12.732
  198SOL    HW1 2601  21.596   7.675 -20.294
  198SOL    HW2 2602  21.638   7.561  12.734
  199SOL     OW 2603  10.353   9.960   6.073
  199SOL    HW1 2604  21.298   9.951   6.087
  199SOL    HW2 2605  10.392   9.947   6.159
  200SOL     OW 2606   4.714   2.731   2.221
  200SOL    HW1 2607   4.735   2.782  13.183
  200SOL    HW2 2608  -6.421   2.728   2.223
  201SOL     OW 2609  10.474   7.666   4.717
  201SOL    HW1 2610  10.472   7.595  15.693
  201SOL    HW2 2611  10.455  18.784  26.745
  202SOL     OW 2612   0.056   4.501   5.824
  202SOL    HW1 2613   0.151   4.492   5.833
  202SOL    HW2 2614   0.028   4.539   5.907
  203SOL     OW 2615   9.659   4.566   8.425
  203SOL    HW1 2616   9.706   4.611  -2.545
  203SOL    HW2 2617   9.683   4.614   8.345
  204SOL     OW 2618   5.101   6.884   6.566
  204SOL    HW1 2619 -17.041   6.900  28.715
  204SOL    HW2 2620   5.128   6.972   6.537
  205SOL     OW 2621   2.405  11.013   7.974
  205SOL    HW1 2622  -8.681   0.018   8.045
  205SOL    HW2 2623   2.484  -0.061   8.016
  206SOL     OW 2624  -1.650   3.811   6.181
  206SOL    HW1 2625  20.452  25.805   6.219
  206SOL    HW2 2626  20.349  25.917   6.227
  207SOL     OW 2627  10.021   0.313   6.029
  207SOL    HW1 2628  10.046   0.271   6.111
  207SOL    HW2 2629   9.935   0.278   6.009
  208SOL     OW 2630   3.455   4.811   4.711
  208SOL    HW1 2631   3.453  -6.268  15.838
  208SOL    HW2 2632   3.531  -6.171   4.713
  209SOL     OW 2633   7.391   6.955   2.268
  209SOL    HW1 2634 -25.704   7.013   2.340
  209SOL    HW2 2635   7.322  -4.140   2.303
  210SOL     OW 2636   5.863  10.710   3.298
  210SOL    HW1 2637   5.889  10.714   3.206
  210SOL    HW2 2638   5.942  10.731   3.347
  211SOL     OW 2639   5.735   8.423   5.725
  211SOL    HW1 2640  -5.341  -2.683  -5.257
  211SOL    HW2 2641  -5.211  19.465   5.746
  212SOL     OW 2642   7.759   2.208  11.040
  212SOL    HW1 2643   7.669   2.227   0.025
  212SOL    HW2 2644   7.787   2.284  -0.050
  213SOL     OW 2645   2.184   7.178   0.970
  213SOL    HW1 2646   2.148  40.357  11.945
  213SOL    HW2 2647   2.156   7.214 -21.025
  214SOL     OW 2648  -0.101   5.773   5.765
  214SOL    HW1 2649  -0.162   5.715   5.810
  214SOL    HW2 2650  22.020   5.718  16.739
  215SOL     OW 2651   8.764   5.314   4.434
  215SOL    HW1 2652 -13.244   5.277   4.487
  215SOL    HW2 2653   8.713  -5.802   4.405
  216SOL     OW 2654   5.245   7.712   6.397
  216SOL    HW1 2655  -5.849   7.740   6.323
  216SOL    HW2 2656 -38.841  18.704   6.357
  217SOL     OW 2657   0.327   8.809   9.482
  217SOL    HW1 2658  11.289  -2.174   9.495
  217SOL    HW2 2659   0.385   8.833   9.555
  218SOL     OW 2660   5.017   9.274  10.495
  218SOL    HW1 2661   4.960   9.229 -11.646
  218SOL    HW2 2662   5.101  -1.760  21.489
  219SOL     OW 2663  12.038   6.374   2.022
  219SOL    HW1 2664 -10.085   6.399  24.183
  219SOL    HW2 2665  12.032   6.278   2.021
  220SOL     OW 2666   4.032   2.698   8.494
  220SOL    HW1 2667  26.037   2.658   8.539
  220SOL    HW2 2668   4.085  13.663   8.465
  221SOL     OW 2669   6.592   8.465   7.437
  221SOL    HW1 2670   6.588   8.374  18.448
  221SOL    HW2 2671   6.685  -2.552   7.431
  222SOL     OW 2672  10.518   2.346  -0.758
  222SOL    HW1 2673  10.520   2.415  54.373
  222SOL    HW2 2674  10.458  -8.661  32.428
  223SOL     OW 2675   4.627  -0.520   1.560
  223SOL    HW1 2676  15.653  10.613   1.547
  223SOL    HW2 2677   4.718  -0.526  12.630
  224SOL     OW 2678  11.339   3.836   5.913
  224SOL    HW1 2679  11.420   3.882  16.975
  224SOL    HW2 2680   0.246  14.940 -16.212
  225SOL     OW 2681  10.053   9.132   2.745
  225SOL    HW1 2682  10.115   9.101   2.679
  225SOL    HW2 2683  10.051   9.063   2.810
  226SOL     OW 2684  11.808   7.039   5.603
  226SOL    HW1 2685 -10.225   7.118   5.575
  226SOL    HW2 2686  11.803  18.085  16.738
  227SOL     OW 2687   8.816   8.713   0.901
  227SOL    HW1 2688   8.902   8.742   0.931
  227SOL    HW2 2689   8.786  19.693   0.970
  228SOL     OW 2690   7.696   6.997  10.829
  228SOL    HW1 2691   7.704 -15.038  10.914
  228SOL    HW2 2692  18.809   7.032  10.778
  229SOL     OW 2693   7.866   8.563   9.756
  229SOL    HW1 2694   7.929   8.497 -12.354
  229SOL    HW2 2695  18.960   8.632   9.793
  230SOL     OW 2696   4.164   1.230   4.747
  230SOL    HW1 2697  -6.842   1.140   4.747
  230SOL    HW2 2698  -6.908   1.243   4.837
  231SOL     OW 2699   1.986   5.440   6.006
  231SOL    HW1 2700   2.056   5.390   6.047
  231SOL    HW2 2701   2.031   5.500  -5.094
  232SOL     OW 2702  -1.666   2.347   5.389
  232SOL    HW1 2703  20.465   2.426   5.404
  232SOL    HW2 2704  20.439   2.288   5.460
  233SOL     OW 2705   7.187   0.011   9.885
  233SOL    HW1 2706  18.149  11.108   9.879
  233SOL    HW2 2707  18.193  -0.077  20.909
  234SOL     OW 2708  10.147   9.794   4.094
  234SOL    HW1 2709  10.192   9.795 -17.900
  234SOL    HW2 2710  10.174   9.876  15.092
  235SOL     OW 2711   0.670  10.640   8.828
  235SOL    HW1 2712   0.668  10.544  19.871
  235SOL    HW2 2713  22.685  10.663   8.761
  236SOL     OW 2714   2.305   6.860   7.247
  236SOL    HW1 2715   2.282   6.876  -3.701
  236SOL    HW2 2716  13.361   6.947   7.210
  237SOL     OW 2717   3.213   0.105   2.953
  237SOL    HW1 2718   3.151   0.101   3.025
  237SOL    HW2 2719  36.359  22.276   2.948
  238SOL     OW 2720   0.288   2.509   6.441
  238SOL    HW1 2721   0.348  -8.486   6.500
  238SOL    HW2 2722   0.310   2.416  -4.591
  239SOL     OW 2723   3.460   6.664   6.870
  239SOL    HW1 2724   3.448  -4.292   6.915
  239SOL    HW2 2725   3.551   6.667   6.838
  240SOL     OW 2726   9.989  10.832   8.159
  240SOL    HW1 2727  21.097 -11.229   8.224
  240SOL    HW2 2728  10.019  10.755   8.112
  241SOL     OW 2729   1.949   0.369   5.751
  241SOL    HW1 2730   1.871   0.380   5.805
  241SOL    HW2 2731  -9.115   0.301   5.688
  242SOL     OW 2732  10.195   8.688   8.702
  242SOL    HW1 2733  -0.804   8.740   8.771
  242SOL    HW2 2734 -11.866  19.776   8.621
  243SOL     OW 2735   5.690   8.433   8.792
  243SOL    HW1 2736   5.777   8.418  19.870
  243SOL    HW2 2737 -16.371   8.472   8.707
  244SOL     OW 2738  10.319   5.225   7.142
  244SOL    HW1 2739  10.248   5.247  18.242
  244SOL    HW2 2740  -0.749 -16.818  18.098
  245SOL     OW 2741  -0.751   1.321   5.580
  245SOL    HW1 2742  32.319   1.264   5.521
  245SOL    HW2 2743  32.305   1.347   5.647
  246SOL     OW 2744   1.487   0.200   0.567
  246SOL    HW1 2745   1.512   0.189   0.659
  246SOL    HW2 2746 -20.667   0.142   0.555
  247SOL     OW 2747   0.926   6.479   2.255
  247SOL    HW1 2748   0.853   6.439   2.303
  247SOL    HW2 2749   1.004   6.445   2.299
  248SOL     OW 2750   2.324   4.849   0.886
  248SOL    HW1 2751   2.304   4.895  22.884
  248SOL    HW2 2752   2.255   4.783   0.895
  249SOL     OW 2753   0.934   4.834   3.698
  249SOL    HW1 2754   0.983   4.900  25.827
  249SOL    HW2 2755  12.003   4.846   3.608
  250SOL     OW 2756   5.090   6.146   3.446
  250SOL    HW1 2757   5.175  50.285   3.406
  250SOL    HW2 2758  16.088   6.061  -7.583
  251SOL     OW 2759   1.757   4.118   6.988
  251SOL    HW1 2760   1.690   4.051  -4.045
  251SOL    HW2 2761  23.791   4.195   6.954
  252SOL     OW 2762   9.945   4.407   7.761
  252SOL    HW1 2763   9.963  15.454   7.667
  252SOL    HW2 2764   9.853   4.430   7.769
  253SOL     OW 2765   6.712   5.158   5.641
  253SOL    HW1 2766 -15.421   5.231   5.611
  253SOL    HW2 2767   6.801   5.192   5.642
  254SOL     OW 2768   9.249  11.121   1.969
  254SOL    HW1 2769  -1.884  11.102   1.976
  254SOL    HW2 2770   9.283 -11.027  35.031
  255SOL     OW 2771   4.758   6.913  -2.686
  255SOL    HW1 2772  -6.290   6.865  41.390
  255SOL    HW2 2773 -17.230  17.940  19.419
  256SOL     OW 2774   6.503   2.212   6.873
  256SOL    HW1 2775   6.510   2.308  17.913
  256SOL    HW2 2776  28.489  24.274   6.868
  257SOL     OW 2777  -0.473   7.995   2.720
  257SOL    HW1 2778  10.541   8.004   2.811
  257SOL    HW2 2779  -0.405   8.061  13.746
  258SOL     OW 2780  11.635   1.223   7.628
  258SOL    HW1 2781  11.614   1.301  -3.463
  258SOL    HW2 2782   0.510   1.190   7.657
  259SOL     OW 2783  10.622  10.201   9.058
  259SOL    HW1 2784 -11.385  10.264   9.064
  259SOL    HW2 2785  -0.447  10.207   8.967
  260SOL     OW 2786   6.693   2.792   1.865
  260SOL    HW1 2787   6.739   2.778  -9.257
  260SOL    HW2 2788  17.746   2.711   1.914
  261SOL     OW 2789  11.166   9.711   3.875
  261SOL    HW1 2790 -10.903   9.807   3.878
  261SOL    HW2 2791 -22.001 -12.389   3.955
  262SOL     OW 2792   7.188   8.331  11.829
  262SOL    HW1 2793  -3.820   8.304  11.743
  262SOL    HW2 2794   7.214   8.423 -10.243
  263SOL     OW 2795   7.933   4.219   9.709
  263SOL    HW1 2796  40.970   4.190   9.749
  263SOL    HW2 2797   7.991  -6.896   9.714
  264SOL     OW 2798   3.504  10.727  10.690
  264SOL    HW1 2799   3.475  10.747  10.779
  264SOL    HW2 2800   3.588 -22.438  10.702
  265SOL     OW 2801   7.873   8.954   2.109
  265SOL    HW1 2802   7.843  19.998   2.200
  265SOL    HW2 2803   7.945   8.891   2.111
  266SOL     OW 2804   1.432   8.326   9.648
  266SOL    HW1 2805   1.440  -2.684   9.557
  266SOL    HW2 2806   1.355  -2.667  20.720
  267SOL     OW 2807   8.997   0.617   7.911
  267SOL    HW1 2808  -2.067   0.589   7.823
  267SOL    HW2 2809  -2.016   0.709  18.940
  268SOL     OW 2810   8.257   2.025   8.266
  268SOL    HW1 2811   8.308   1.960   8.314
  268SOL    HW2 2812  52.404  -9.052   8.179
  269SOL     OW 2813   9.193  10.367  10.065
  269SOL    HW1 2814   9.248  10.387  -1.050
  269SOL    HW2 2815   9.253  10.329  10.130
  270SOL     OW 2816   5.609   0.434   9.525
  270SOL    HW1 2817  49.859   0.455 -12.571
  270SOL    HW2 2818  16.627   0.365  -1.577
  271SOL     OW 2819   1.303   9.034   5.754
  271SOL    HW1 2820  12.300   9.108   5.797
  271SOL    HW2 2821  -9.810   8.983   5.718
  272SOL     OW 2822  13.378   3.760   3.843
  272SOL    HW1 2823   2.371  69.916  -7.235
  272SOL    HW2 2824 -19.835  14.797   3.827
  273SOL     OW 2825   1.601   3.389  -0.393
  273SOL    HW1 2826   1.676   3.433  21.726
  273SOL    HW2 2827   1.566  14.492 -11.495
  274SOL     OW 2828  10.845   5.009   6.486
  274SOL    HW1 2829  10.801  27.158  17.477
  274SOL    HW2 2830  10.939  38.146   6.474
  275SOL     OW 2831  10.111   0.781   5.873
  275SOL    HW1 2832 -11.876   0.804   5.865
  275SOL    HW2 2833  10.112   0.692   5.908
  276SOL     OW 2834   3.770   6.788   7.578
  276SOL    HW1 2835 -18.370  28.824   7.518
  276SOL    HW2 2836   3.765  17.776  18.698
  277SOL     OW 2837   1.913   0.829   9.588
  277SOL    HW1 2838   1.923   0.860  -1.361
  277SOL    HW2 2839   1.879   0.904   9.540
  278SOL     OW 2840   1.802   6.993  10.380
  278SOL    HW1 2841   1.874   7.056  -0.655
  278SOL    HW2 2842   1.793   6.973 -22.832
  279SOL     OW 2843   7.404   5.507   0.552
  279SOL    HW1 2844  -3.726 -16.540   0.553
  279SOL    HW2 2845  -3.592  16.596   0.620
  280SOL     OW 2846   8.368   4.237   1.812
  280SOL    HW1 2847   8.323   4.227   1.896
  280SOL    HW2 2848   8.321   4.178   1.752
  281SOL     OW 2849   2.132  10.320   9.792
  281SOL    HW1 2850   2.189  10.343   9.718
  281SOL    HW2 2851   2.190  10.322   9.868
  282SOL     OW 2852  10.863   2.958   2.106
  282SOL    HW1 2853  10.779   2.914   2.119
  282SOL    HW2 2854  10.840   3.049   2.090
  283SOL     OW 2855  11.068  10.027   2.609
  283SOL    HW1 2856  11.105 -11.979   2.559
  283SOL    HW2 2857   0.038   9.951   2.551
  284SOL     OW 2858   6.478   7.200   7.866
  284SOL    HW1 2859   6.490   7.108  -3.201
  284SOL    HW2 2860  -4.521   7.251   7.795
  285SOL     OW 2861   1.920   8.553   9.733
  285SOL    HW1 2862   1.921   8.606   9.653
  285SOL    HW2 2863  -9.148   8.614  20.841
  286SOL     OW 2864   6.624   6.158   8.055
  286SOL    HW1 2865   6.654 -27.048   8.031
  286SOL    HW2 2866   6.572   6.187   7.980
  287SOL     OW 2867   9.331   7.930   5.040
  287SOL    HW1 2868   9.412   7.970 -17.072
  287SOL    HW2 2869   9.270   8.003  -5.991
  288SOL     OW 2870   0.422   7.059   0.757
  288SOL    HW1 2871 -10.685  18.156  33.839
  288SOL    HW2 2872  11.442   6.973  44.878
  289SOL     OW 2873  11.986   1.893   9.466
  289SOL    HW1 2874  12.070  -9.130   9.510
  289SOL    HW2 2875 -21.171   1.980   9.455
  290SOL     OW 2876   2.132   8.367   6.285
  290SOL    HW1 2877   2.178   8.372   6.201
  290SOL    HW2 2878   2.175  -2.745   6.331
  291SOL     OW 2879   4.387  10.052   2.307
  291SOL    HW1 2880  15.425  10.144   2.336
  291SOL    HW2 2881  26.396  10.047   2.243
  292SOL     OW 2882   3.577   3.186   8.929
  292SOL    HW1 2883   3.561   3.156   9.018
  292SOL    HW2 2884  14.651 -18.970   8.884
  293SOL     OW 2885   6.071   4.076   5.804
  293SOL    HW1 2886   6.064  15.180   5.733
  293SOL    HW2 2887   6.024   4.116   5.877
  294SOL     OW 2888   7.656   9.265   7.713
  294SOL    HW1 2889 -25.517   9.226   7.645
  294SOL    HW2 2890   7.741  20.260   7.704
  295SOL     OW 2891   3.771   3.774   8.708
  295SOL    HW1 2892   3.740   3.758   8.619
  295SOL    HW2 2893  -7.224   3.858   8.704
  296SOL     OW 2894   7.667   5.443   3.050
  296SOL    HW1 2895  29.656 -16.631  -8.022
  296SOL    HW2 2896  18.697   5.444   3.146
  297SOL     OW 2897  10.217   9.728   6.913
  297SOL    HW1 2898  10.164   9.787   6.966
  297SOL    HW2 2899  21.263   9.771  28.907
  298SOL     OW 2900   7.759   4.828  10.546
  298SOL    HW1 2901   7.758   4.735  10.569
  298SOL    HW2 2902   7.818  49.026  10.610
  299SOL     OW 2903  10.376   3.742   4.172
  299SOL    HW1 2904  21.433   3.678  15.142
  299SOL    HW2 2905  10.282  25.839   4.165
  300SOL     OW 2906   7.232   9.829   3.281
  300SOL    HW1 2907 -14.836  20.813   3.204
  300SOL    HW2 2908   7.200   9.912   3.246
  301SOL     OW 2909   2.091   9.200  -1.722
  301SOL    HW1 2910   2.006   9.243   9.318
  301SOL    HW2 2911   2.153  -1.769  20.376
  302SOL     OW 2912   6.799   8.263   8.634
  302SOL    HW1 2913  -4.280  41.295   8.634
  302SOL    HW2 2914   6.779   8.298   8.547
  303SOL     OW 2915   9.550   8.863   2.179
  303SOL    HW1 2916   9.469  -2.160   2.132
  303SOL    HW2 2917  -1.515  -2.179   2.271
  304SOL     OW 2918   3.054   6.308   3.941
  304SOL    HW1 2919   3.133  -4.688  26.050
  304SOL    HW2 2920   3.081 -15.821   3.864
  305SOL     OW 2921   2.874   6.394  -0.056
  305SOL    HW1 2922   2.896   6.379  10.892
  305SOL    HW2 2923  25.001   6.327  22.071
  306SOL     OW 2924   8.045   1.507  10.267
  306SOL    HW1 2925   8.135  34.602  10.291
  306SOL    HW2 2926   8.029   1.589  10.314
  307SOL     OW 2927   2.055   5.482   6.800
  307SOL    HW1 2928   2.085   5.556  17.893
  307SOL    HW2 2929   1.962  -5.539  28.865
  308SOL     OW 2930   5.196   7.740   2.812
  308SOL    HW1 2931   5.176  -3.317   2.904
  308SOL    HW2 2932   5.268   7.803  -8.226
  309SOL     OW 2933   7.266   6.803   6.191
  309SOL    HW1 2934  -3.699   6.793   6.249
  309SOL    HW2 2935  -3.837 -15.226  17.282
  310SOL     OW 2936   2.657   9.841   4.851
  310SOL    HW1 2937  13.659   9.780   4.914
  310SOL    HW2 2938   2.593   9.844  15.819
  311SOL     OW 2939   2.940   3.748   8.276
  311SOL    HW1 2940   2.936   3.680  41.328
  311SOL    HW2 2941   2.875  14.852   8.249
  312SOL     OW 2942   9.395  10.485   7.451
  312SOL    HW1 2943   9.304  10.459   7.466
  312SOL    HW2 2944   9.438  10.473   7.536
  313SOL     OW 2945   4.869   7.062   8.021
  313SOL    HW1 2946  -6.090  40.190   8.073
  313SOL    HW2 2947   4.898   7.068   7.930
  314SOL     OW 2948   3.312  10.742   0.267
  314SOL    HW1 2949  -7.780 -11.376   0.338
  314SOL    HW2 2950   3.288  10.834   0.267
  315SOL     OW 2951   2.437   1.527   2.332
  315SOL    HW1 2952   2.509   1.583   2.359
  315SOL    HW2 2953 -19.689   1.577  24.345
  316SOL     OW 2954   8.590   1.751   7.264
  316SOL    HW1 2955  19.603   1.840  29.323
  316SOL    HW2 2956  19.606  12.740   7.187
  317SOL     OW 2957   4.285   1.756   4.905
  317SOL    HW1 2958   4.215   1.771   4.968
  317SOL    HW2 2959   4.299   1.661   4.908
  318SOL     OW 2960   9.387   1.768   6.710
  318SOL    HW1 2961   9.405   1.679  -4.300
  318SOL    HW2 2962  20.435   1.822   6.789
  319SOL     OW 2963   5.279   4.682   1.402
  319SOL    HW1 2964   5.203   4.715   1.450
  319SOL    HW2 2965   5.245   4.606   1.355
  320SOL     OW 2966   8.411   3.839  11.471
  320SOL    HW1 2967  19.505   3.761  11.481
  320SOL    HW2 2968  30.413   3.822 -10.555
  321SOL     OW 2969   8.872   4.032  10.407
  321SOL    HW1 2970  19.910   3.944  10.369
  321SOL    HW2 2971   8.947  -7.008  10.467
  322SOL     OW 2972   8.241   3.688   6.312
  322SOL    HW1 2973   8.211 -18.411   6.400
  322SOL    HW2 2974   8.258   3.603   6.272
  323SOL     OW 2975   3.771   0.258   5.046
  323SOL    HW1 2976  25.767   0.229   5.081
  323SOL    HW2 2977  14.841  11.224   4.992
  324SOL     OW 2978   1.082   7.183   8.183
  324SOL    HW1 2979   1.069   7.189   8.088
  324SOL    HW2 2980   1.176  40.288  19.232
  325SOL     OW 2981   2.550   4.465   7.258
  325SOL    HW1 2982   2.583   4.375   7.256
  325SOL    HW2 2983   2.621  -6.523  -3.820
  326SOL     OW 2984   6.842   9.718   4.475
  326SOL    HW1 2985   6.877 -12.306   4.405
  326SOL    HW2 2986   6.789   9.653   4.430
  327SOL     OW 2987   3.320   0.434  10.676
  327SOL    HW1 2988   3.254   0.469 -11.343
  327SOL    HW2 2989  14.309   0.391  -0.432
  328SOL     OW 2990   4.678   6.035   1.951
  328SOL    HW1 2991   4.691   6.128  13.012
  328SOL    HW2 2992   4.635   5.999  13.068
  329SOL     OW 2993   2.178   1.478   6.015
  329SOL    HW1 2994   2.217   1.564  28.110
  329SOL    HW2 2995   2.084 -20.586   6.011
  330SOL     OW 2996   7.673   6.030   7.766
  330SOL    HW1 2997  29.686   5.963  18.789
  330SOL    HW2 2998  29.705   6.098   7.815
  331SOL     OW 2999   0.678  10.629   6.557
  331SOL    HW1 3000   0.756  -0.435 -15.472
  331SOL    HW2 3001   0.652  10.548   6.513
  332SOL     OW 3002   1.768   4.828   8.721
  332SOL    HW1 3003   1.746  15.793   8.776
  332SOL    HW2 3004   1.721   4.813  -2.400
  333SOL     OW 3005   0.508   6.628   2.350
  333SOL    HW1 3006   0.470  -4.390   2.435
  333SOL    HW2 3007  11.641   6.644   2.362
  334SOL     OW 3008   6.021   2.404   8.577
  334SOL    HW1 3009   5.957   2.402   8.506
  334SOL    HW2 3010  17.144   2.421   8.533
  335SOL     OW 3011   4.719   8.256   0.047
  335SOL    HW1 3012  -6.338 -13.917   0.048
  335SOL    HW2 3013   4.811  -2.777   0.073
  336SOL     OW 3014  10.871   5.137   9.585
  336SOL    HW1 3015  10.821   5.219 -12.499
  336SOL    HW2 3016  -0.193   5.098   9.669
  337SOL     OW 3017   2.405   8.873   9.618
  337SOL    HW1 3018   2.374   8.940   9.678
  337SOL    HW2 3019   2.326   8.837   9.578
  338SOL     OW 3020   7.660   7.216   2.194
  338SOL    HW1 3021  18.620   7.269  -8.848
  338SOL    HW2 3022  40.774   7.169   2.277
  339SOL     OW 3023   7.108   5.696   3.355
  339SOL    HW1 3024  18.223   5.659   3.310
  339SOL    HW2 3025   7.141   5.721  14.481
  340SOL     OW 3026   2.294   4.178   4.770
  340SOL    HW1 3027   2.202 -17.928   4.771
  340SOL    HW2 3028   2.339   4.109   4.819
  341SOL     OW 3029   0.524   4.009   0.448
  341SOL    HW1 3030  11.564   4.077   0.515
  341SOL    HW2 3031   0.556   4.052   0.369
  342SOL     OW 3032  13.438   1.049   1.363
  342SOL    HW1 3033   2.395  12.007   1.313
  342SOL    HW2 3034 -19.597 -21.034   1.409
  343SOL     OW 3035   3.790   0.122   4.650
  343SOL    HW1 3036  -7.224   0.121   4.558
  343SOL    HW2 3037   3.695   0.139   4.648
  344SOL     OW 3038   3.006   6.778   7.653
  344SOL    HW1 3039   2.925   6.727  18.691
  344SOL    HW2 3040   3.036   6.774 -14.336
  345SOL     OW 3041   5.061  10.946   7.924
  345SOL    HW1 3042  -6.061  10.971   7.883
  345SOL    HW2 3043  49.241  11.020   7.981
  346SOL     OW 3044   4.301  10.645   7.764
  346SOL    HW1 3045   4.212 -33.478   7.758
  346SOL    HW2 3046   4.335 -22.438   7.846
  347SOL     OW 3047   8.251   4.510   5.200
  347SOL    HW1 3048   8.168   4.482   5.162
  347SOL    HW2 3049   8.250   4.606   5.193
  348SOL     OW 3050   5.628   3.750   8.191
  348SOL    HW1 3051   5.658  36.960   8.190
  348SOL    HW2 3052   5.567  -7.294   8.265
  349SOL     OW 3053   2.251   1.328   5.300
  349SOL    HW1 3054  13.196 -20.760   5.309
  349SOL    HW2 3055   2.285  23.384   5.387
  350SOL     OW 3056   9.170   2.432  10.885
  350SOL    HW1 3057 -12.882   2.476  10.805
  350SOL    HW2 3058   9.228  13.506  10.953
  351SOL     OW 3059   0.824   2.177   5.340
  351SOL    HW1 3060   0.900   2.235   5.329
  351SOL    HW2 3061   0.845   2.100   5.288
  352SOL     OW 3062   8.338   9.659   5.460
  352SOL    HW1 3063  19.430   9.583   5.486
  352SOL    HW2 3064   8.350   9.722  16.570
  353SOL     OW 3065  10.714   1.442   5.367
  353SOL    HW1 3066 -11.280   1.406   5.392
  353SOL    HW2 3067  -0.311   1.536   5.361
  354SOL     OW 3068   2.495   9.857   1.845
  354SOL    HW1 3069   2.417   9.849   1.790
  354SOL    HW2 3070   2.509   9.769   1.880
  355SOL     OW 3071   8.516   1.823   5.561
  355SOL    HW1 3072  41.554   1.772   5.571
  355SOL    HW2 3073   8.582  12.814   5.609
  356SOL     OW 3074   3.803   5.981  10.413
  356SOL    HW1 3075  -7.142  28.070  21.466
  356SOL    HW2 3076 -18.289   5.887  10.397
  357SOL     OW 3077   1.566   0.088   4.561
  357SOL    HW1 3078   1.659   0.106   4.572
  357SOL    HW2 3079   1.555  -0.002   4.592
  358SOL     OW 3080   8.252   1.816   3.349
  358SOL    HW1 3081   8.157   1.824   3.338
  358SOL    HW2 3082  -2.777  12.781   3.407
  359SOL     OW 3083   8.485   5.128   0.462
  359SOL    HW1 3084  19.469  16.117  11.561
  359SOL    HW2 3085  30.565 -16.863   0.499
  360SOL     OW 3086   0.774   0.737  10.578
  360SOL    HW1 3087   0.797 -10.349  -0.543
  360SOL    HW2 3088   0.681   0.719  -0.449
  361SOL     OW 3089   7.107  -0.355   4.100
  361SOL    HW1 3090   7.111  21.776   4.020
  361SOL    HW2 3091   7.143  10.599   4.076
  362SOL     OW 3092   0.945  10.209  10.761
  362SOL    HW1 3093   0.975  10.299  10.746
  362SOL    HW2 3094   0.877  21.234  10.695
  363SOL     OW 3095   5.609   2.619   7.690
  363SOL    HW1 3096   5.525   2.602   7.647
  363SOL    HW2 3097   5.673   2.576   7.634
  364SOL     OW 3098   8.070   6.231   6.980
  364SOL    HW1 3099   7.993 -15.835  -4.114
  364SOL    HW2 3100  19.123   6.136   6.979
  365SOL     OW 3101   0.168   2.165   9.772
  365SOL    HW1 3102  44.365  -8.921   9.699
  365SOL    HW2 3103  44.388   2.236   9.791
  366SOL     OW 3104   2.695   5.873   6.733
  366SOL    HW1 3105   2.689  38.926   6.802
  366SOL    HW2 3106   2.733  28.028   6.777
  367SOL     OW 3107   2.133   2.631   5.984
  367SOL    HW1 3108  13.079   2.610  -5.052
  367SOL    HW2 3109   2.159   2.610   5.894
  368SOL     OW 3110  -0.634   3.354   0.400
  368SOL    HW1 3111  -0.648   3.366 -10.546
  368SOL    HW2 3112  32.491   3.443  11.405
  369SOL     OW 3113   7.144  -1.342   5.505
  369SOL    HW1 3114  29.218  31.740   5.594
  369SOL    HW2 3115  29.263   9.627   5.453
  370SOL     OW 3116   1.834   1.007   9.155
  370SOL    HW1 3117   1.812   1.093   9.191
  370SOL    HW2 3118  12.966   0.994   9.179
  371SOL     OW 3119   2.304   0.985   2.413
  371SOL    HW1 3120  -8.719   1.079   2.407
  371SOL    HW2 3121  -8.673   0.954   2.479
  372SOL     OW 3122   7.209  10.946   7.940
  372SOL    HW1 3123 -25.878  10.955   7.850
  372SOL    HW2 3124   7.244  -0.178   7.969
  373SOL     OW 3125   5.972   4.502   8.897
  373SOL    HW1 3126   6.047   4.509   8.956
  373SOL    HW2 3127  17.049   4.480   8.812
  374SOL     OW 3128  11.211   6.368   4.872
  374SOL    HW1 3129  11.278   6.436   4.875
  374SOL    HW2 3130   0.220   6.288   4.849
  375SOL     OW 3131  10.455   1.339   1.881
  375SOL    HW1 3132  -0.540 -20.690   1.812
  375SOL    HW2 3133  21.402   1.348   1.860
  376SOL     OW 3134   2.513  -0.278   9.157
  376SOL    HW1 3135  -8.603  10.776  -1.938
  376SOL    HW2 3136   2.527  10.666   9.154
  377SOL     OW 3137   5.097   8.584   7.202
  377SOL    HW1 3138   5.048   8.618   7.127
  377SOL    HW2 3139  27.267   8.605  18.223
  378SOL     OW 3140   1.154   3.205   4.792
  378SOL    HW1 3141   1.152  36.266  26.795
  378SOL    HW2 3142   1.062   3.226  26.888
  379SOL     OW 3143   7.278   4.358  -0.319
  379SOL    HW1 3144  -3.795   4.306  10.794
  379SOL    HW2 3145  18.346  -6.599  10.761
  380SOL     OW 3146   6.127  10.196   0.259
  380SOL    HW1 3147   6.133  10.111   0.215
  380SOL    HW2 3148  17.081 -11.884   0.302
  381SOL     OW 3149   4.817   2.090   6.531
  381SOL    HW1 3150   4.854   2.082   6.443
  381SOL    HW2 3151  -6.170   2.030   6.584
  382SOL     OW 3152   7.005   7.404   4.646
  382SOL    HW1 3153   6.919   7.444   4.630
  382SOL    HW2 3154   7.040   7.452   4.721
  383SOL     OW 3155   8.339   0.568   1.674
  383SOL    HW1 3156   8.427   0.601   1.693
  383SOL    HW2 3157   8.346   0.473  23.768
  384SOL     OW 3158   7.868   7.674   1.908
  384SOL    HW1 3159   7.785   7.637  12.979
  384SOL    HW2 3160   7.926  -3.368   1.984
  385SOL     OW 3161   1.156   5.942   9.943
  385SOL    HW1 3162   1.139   5.900  21.067
  385SOL    HW2 3163   1.252   5.940   9.934
  386SOL     OW 3164   1.797   8.392   8.692
  386SOL    HW1 3165   1.734  -2.654   8.764
  386SOL    HW2 3166   1.815   8.301 -24.451
  387SOL     OW 3167   2.111   0.543   1.124
  387SOL    HW1 3168   2.184  11.588  12.225
  387SOL    HW2 3169   2.033   0.539   1.179
  388SOL     OW 3170   4.412   2.709   1.109
  388SOL    HW1 3171   4.332   2.762  12.157
  388SOL    HW2 3172   4.392   2.648   1.039
  389SOL     OW 3173   0.988   9.412   8.861
  389SOL    HW1 3174   1.012   9.504   8.872
  389SOL    HW2 3175   1.036   9.366   8.930
  390SOL     OW 3176   2.214   0.175  -0.029
  390SOL    HW1 3177  24.296   0.258  -0.076
  390SOL    HW2 3178   2.169   0.195  11.093
  391SOL     OW 3179   7.619   1.413   0.756
  391SOL    HW1 3180   7.529   1.394   0.783
  391SOL    HW2 3181  29.751   1.401   0.835
  392SOL     OW 3182   5.293   7.063   1.405
  392SOL    HW1 3183 -16.713   7.060   1.467
  392SOL    HW2 3184   5.246  -4.059   1.419
  393SOL     OW 3185  10.145  10.467   3.163
  393SOL    HW1 3186  10.218 -11.658   3.205
  393SOL    HW2 3187  -0.854  -0.508  14.146
  394SOL     OW 3188   4.716   7.646   4.821
  394SOL    HW1 3189   4.785   7.669   4.883
  394SOL    HW2 3190   4.726   7.710   4.750
  395SOL     OW 3191   4.033   5.698   9.795
  395SOL    HW1 3192   4.029   5.603   9.785
  395SOL    HW2 3193  15.166   5.718   9.797
  396SOL     OW 3194   6.235   6.141   8.569
  396SOL    HW1 3195 -15.823   6.208   8.504
  396SOL    HW2 3196 -15.839   6.058   8.520
  397SOL     OW 3197   4.126   3.114   7.176
  397SOL    HW1 3198   4.078   3.038  18.183
  397SOL    HW2 3199   4.134  14.137  -3.769
  398SOL     OW 3200   5.891   9.058  10.430
  398SOL    HW1 3201  16.865   9.018  10.487
  398SOL    HW2 3202  39.091   9.056  10.481
  399SOL     OW 3203   6.062  10.478   9.195
  399SOL    HW1 3204  -5.046  10.431   9.242
  399SOL    HW2 3205  28.113  10.569   9.196
  400SOL     OW 3206  11.324   5.289   3.308
  400SOL    HW1 3207   0.216  -5.733   3.243
  400SOL    HW2 3208 -10.759   5.195 -18.757
  401SOL     OW 3209   1.578   3.174   4.084
  401SOL    HW1 3210   1.643   3.104  -6.958
  401SOL    HW2 3211   1.533   3.162   4.167
  402SOL     OW 3212   3.544   0.194   9.290
  402SOL    HW1 3213   3.569  11.172  -1.818
  402SOL    HW2 3214   3.579   0.278  20.301
  403SOL     OW 3215   1.794   7.773   1.551
  403SOL    HW1 3216   1.733  18.818   1.477
  403SOL    HW2 3217  12.883  18.732   1.535
  404SOL     OW 3218   2.952   4.978   2.076
  404SOL    HW1 3219   2.887   5.035   2.035
  404SOL    HW2 3220   3.033  27.109   2.077
  405SOL     OW 3221  10.407   4.943   3.599
  405SOL    HW1 3222  10.423  -6.137   3.514
  405SOL    HW2 3223  10.437  -6.006   3.588
  406SOL     OW 3224  10.558   5.498   9.969
  406SOL    HW1 3225  -0.538   5.573   9.990
  406SOL    HW2 3226  10.634   5.537   9.925
  407SOL     OW 3227   0.343   5.540   2.066
  407SOL    HW1 3228   0.320  -5.451  35.264
  407SOL    HW2 3229   0.258   5.511   2.030
  408SOL     OW 3230   2.184   5.093   3.675
  408SOL    HW1 3231  46.298   5.128  -7.287
  408SOL    HW2 3232  13.180   5.134 -18.478
  409SOL     OW 3233   3.879   9.684   2.480
  409SOL    HW1 3234   3.896   9.653  35.687
  409SOL    HW2 3235  14.925   9.605  13.465
  410SOL     OW 3236   7.795   9.411   5.681
  410SOL    HW1 3237  -3.301   9.416   5.603
  410SOL    HW2 3238  -3.157   9.433  -5.391
  411SOL     OW 3239   0.988   7.597   8.161
  411SOL    HW1 3240  12.081  18.601   8.089
  411SOL    HW2 3241  12.054  18.585   8.238
  412SOL     OW 3242   3.455   2.184   4.999
  412SOL    HW1 3243   3.447   2.240   4.922
  412SOL    HW2 3244   3.518   2.116   4.974
  413SOL     OW 3245   3.879   9.634   7.258
  413SOL    HW1 3246 -18.131   9.609 -14.760
  413SOL    HW2 3247   3.912   9.713  -3.824
  414SOL     OW 3248   3.175   2.330  10.142
  414SOL    HW1 3249   3.160  24.386  10.234
  414SOL    HW2 3250   3.269  13.391  10.138
  415SOL     OW 3251  10.311   8.408  -1.349
  415SOL    HW1 3252  -0.704   8.406  -1.256
  415SOL    HW2 3253  10.285  19.538  31.753
  416SOL     OW 3254  11.085   5.070   3.196
  416SOL    HW1 3255 -22.032   5.154   3.149
  416SOL    HW2 3256  11.176   5.040   3.194
  417SOL     OW 3257   4.627   1.154  10.163
  417SOL    HW1 3258   4.574   1.093  10.215
  417SOL    HW2 3259 -17.508   1.231  -0.887
  418SOL     OW 3260   4.019   7.713   9.899
  418SOL    HW1 3261  -7.092   7.774  -1.125
  418SOL    HW2 3262  -6.997  18.721   9.987
  419SOL     OW 3263   6.729   1.837  -0.803
  419SOL    HW1 3264   6.799   1.775  10.253
  419SOL    HW2 3265   6.650   1.793  10.267
  420SOL     OW 3266   3.437   3.058   2.829
  420SOL    HW1 3267   3.483   3.115  -8.149
  420SOL    HW2 3268  -7.544   3.050   2.754
  421SOL     OW 3269   2.842   2.380   4.887
  421SOL    HW1 3270   2.837 -19.653  26.883
  421SOL    HW2 3271   2.774   2.312   4.882
  422SOL     OW 3272   2.043   8.682   1.151
  422SOL    HW1 3273   1.976   8.705   1.086
  422SOL    HW2 3274  -8.975   8.591   1.131
  423SOL     OW 3275   9.254   8.600   9.864
  423SOL    HW1 3276   9.307   8.676   9.843
  423SOL    HW2 3277   9.308   8.525   9.839
  424SOL     OW 3278   8.066   9.157   6.344
  424SOL    HW1 3279   7.987   9.203   6.318
  424SOL    HW2 3280   8.037   9.068   6.366
  425SOL     OW 3281   2.513   8.893   4.413
  425SOL    HW1 3282   2.531  -2.075   4.474
  425SOL    HW2 3283   2.590   8.837  26.497
  426SOL     OW 3284   5.258   1.461   9.816
  426SOL    HW1 3285  27.290  23.616   9.782
  426SOL    HW2 3286   5.230  23.533   9.907
  427SOL     OW 3287   1.648   0.126   0.830
  427SOL    HW1 3288   1.721   0.120   0.768
  427SOL    HW2 3289  12.725   0.165   0.908
  428SOL     OW 3290   4.256  -0.191   8.601
  428SOL    HW1 3291   4.213  -0.110   8.627
  428SOL    HW2 3292   4.347  10.873  19.626
  429SOL     OW 3293   4.217   8.092   8.042
  429SOL    HW1 3294  -6.774   8.141  -3.064
  429SOL    HW2 3295   4.251  -3.037 -80.280
  430SOL     OW 3296   4.183   0.769   5.686
  430SOL    HW1 3297   4.091   0.769   5.710
  430SOL    HW2 3298   4.229   0.762  -5.270
  431SOL     OW 3299  -0.904   0.022   3.637
  431SOL    HW1 3300  21.261  -0.011   3.665
  431SOL    HW2 3301  -0.885   0.104   3.593
  432SOL     OW 3302  10.304   9.309   0.772
  432SOL    HW1 3303  -0.685  -1.650 -10.283
  432SOL    HW2 3304  10.358  20.279  33.854
  433SOL     OW 3305  10.409   7.024  10.375
  433SOL    HW1 3306  10.365   7.099  10.415
  433SOL    HW2 3307  10.357  18.043  10.298
  434SOL     OW 3308   1.936   0.190   8.190
  434SOL    HW1 3309   1.971   0.229  19.149
  434SOL    HW2 3310   1.936   0.262   8.253
  435SOL     OW 3311   9.430   8.762   4.744
  435SOL    HW1 3312   9.440  19.880   4.798
  435SOL    HW2 3313  20.375  -2.286  15.772
  436SOL     OW 3314  10.628   6.874   1.943
  436SOL    HW1 3315  10.564   6.919  -9.152
  436SOL    HW2 3316  10.611   6.907  -9.008
  437SOL     OW 3317   6.343   0.814  10.393
  437SOL    HW1 3318  28.430 -10.180  10.477
  437SOL    HW2 3319  -4.616   0.837  10.346
  438SOL     OW 3320   0.012   1.970   5.414
  438SOL    HW1 3321   0.042   1.986   5.504
  438SOL    HW2 3322  -0.028   2.053   5.387
  439SOL     OW 3323  10.007  11.578   6.935
  439SOL    HW1 3324 -23.124   0.510  -4.014
  439SOL    HW2 3325  10.101  11.569   6.920
  440SOL     OW 3326   5.045   8.637   3.258
  440SOL    HW1 3327   5.123   8.582  14.292
  440SOL    HW2 3328   5.044  30.746   3.349
  441SOL     OW 3329   3.316   8.369   0.717
  441SOL    HW1 3330   3.261   8.295   0.693
  441SOL    HW2 3331   3.303  19.419   0.811
  442SOL     OW 3332   7.799   3.282  10.875
  442SOL    HW1 3333   7.769   3.248  10.960
  442SOL    HW2 3334   7.781 -18.868  10.813
  443SOL     OW 3335   8.539   0.265   8.076
  443SOL    HW1 3336   8.464  11.339   8.029
  443SOL    HW2 3337   8.554   0.328  -2.893
  444SOL     OW 3338   0.018   2.454   2.810
  444SOL    HW1 3339  -0.038   2.393  13.802
  444SOL    HW2 3340   0.034  13.564   2.747
  445SOL     OW 3341   1.281   8.299  10.786
  445SOL    HW1 3342   1.260   8.334  10.700
  445SOL    HW2 3343   1.369 -13.817  10.777
  446SOL     OW 3344   7.387   9.788   1.511
  446SOL    HW1 3345  -3.682  20.916   1.531
  446SOL    HW2 3346  18.360   9.730   1.549
  447SOL     OW 3347   5.409   1.370   0.360
  447SOL    HW1 3348   5.334  12.350   0.363
  447SOL    HW2 3349   5.484 -20.762  11.426
  448SOL     OW 3350   7.547   7.457   4.300
  448SOL    HW1 3351   7.456   7.429  15.347
  448SOL    HW2 3352   7.543   7.538   4.248
  449SOL     OW 3353   6.015  11.794   7.405
  449SOL    HW1 3354  28.124 -10.285   7.496
  449SOL    HW2 3355   6.001  11.701   7.384
  450SOL     OW 3356   6.712  10.207   6.121
  450SOL    HW1 3357  28.866  10.207   6.062
  450SOL    HW2 3358   6.638  10.236   6.067
  451SOL     OW 3359   0.515   9.606   1.259
  451SOL    HW1 3360   0.568   9.554  12.237
  451SOL    HW2 3361   0.433   9.558   1.266
  452SOL     OW 3362   4.594   5.086  10.850
  452SOL    HW1 3363   4.579   5.004  10.802
  452SOL    HW2 3364   4.531   5.085  10.922
  453SOL     OW 3365   2.696   1.453   6.744
  453SOL    HW1 3366   2.758   1.506   6.795
  453SOL    HW2 3367 -30.385  -9.587  -4.384
  454SOL     OW 3368   2.539   7.997   0.437
  454SOL    HW1 3369   2.604   8.020  33.622
  454SOL    HW2 3370   2.459   7.982  22.566
  455SOL     OW 3371   7.951   2.240   7.898
  455SOL    HW1 3372  18.970   2.319   7.949
  455SOL    HW2 3373   8.034   2.261   7.855
  456SOL     OW 3374   5.152   5.492   9.357
  456SOL    HW1 3375   5.126   5.407   9.391
  456SOL    HW2 3376   5.204  -5.508  20.466
  457SOL     OW 3377   2.622   5.304   1.802
  457SOL    HW1 3378   2.674   5.356  12.780
  457SOL    HW2 3379   2.673   5.304  23.962
  458SOL     OW 3380   5.164   7.881   0.653
  458SOL    HW1 3381  16.267   7.882 -10.315
  458SOL    HW2 3382  16.199   7.789   0.627
  459SOL     OW 3383  -0.063  11.200   1.343
  459SOL    HW1 3384  10.998 -10.882  -9.604
  459SOL    HW2 3385  -0.044  11.290   1.316
  460SOL     OW 3386   6.635  -1.063   0.557
  460SOL    HW1 3387   6.688  -0.984   0.564
  460SOL    HW2 3388   6.693  31.986   0.587
  461SOL     OW 3389   7.522   5.272   1.792
  461SOL    HW1 3390   7.478   5.251   1.709
  461SOL    HW2 3391   7.453   5.312  -9.194
  462SOL     OW 3392   7.477   3.205   7.902
  462SOL    HW1 3393   7.487  -7.752   7.949
  462SOL    HW2 3394   7.489   3.228  18.849
  463SOL     OW 3395   7.390   6.733   4.840
  463SOL    HW1 3396  29.431   6.806   4.791
  463SOL    HW2 3397  18.388   6.656 -17.277
  464SOL     OW 3398   9.549   7.768   2.722
  464SOL    HW1 3399   9.531   7.722   2.640
  464SOL    HW2 3400 -12.614   7.773  -8.273
  465SOL     OW 3401   0.396   5.246   2.466
  465SOL    HW1 3402  11.430   5.253  -8.478
  465SOL    HW2 3403  22.561  -5.757   2.444
  466SOL     OW 3404   8.502   4.690   9.077
  466SOL    HW1 3405   8.499   4.707  20.022
  466SOL    HW2 3406   8.552   4.609   9.085
  467SOL     OW 3407   4.692   6.097   3.465
  467SOL    HW1 3408   4.679  17.054   3.511
  467SOL    HW2 3409  -6.367   6.165   3.529
  468SOL     OW 3410   2.887   3.981   3.497
  468SOL    HW1 3411   2.898  15.003   3.590
  468SOL    HW2 3412   2.834   3.908   3.465
  469SOL     OW 3413   8.936   8.896   8.206
  469SOL    HW1 3414  19.883   8.877   8.190
  469SOL    HW2 3415   8.981   8.864   8.127
  470SOL     OW 3416   6.356   4.956  11.191
  470SOL    HW1 3417  17.383   5.046  11.222
  470SOL    HW2 3418  17.435   4.911   0.226
  471SOL     OW 3419  10.595   9.551   8.485
  471SOL    HW1 3420 -11.410   9.573  19.468
  471SOL    HW2 3421  10.603   9.456   8.498
  472SOL     OW 3422   5.016   1.020   2.382
  472SOL    HW1 3423   5.083   0.963   2.346
  472SOL    HW2 3424   4.951   0.961   2.419
  473SOL     OW 3425   2.786  -0.796   4.841
  473SOL    HW1 3426   2.741  -0.767   4.920
  473SOL    HW2 3427   2.854  21.348 -17.252
  474SOL     OW 3428   7.295   9.804   6.023
  474SOL    HW1 3429   7.345   9.851  -4.949
  474SOL    HW2 3430   7.337   9.828   5.941
  475SOL     OW 3431   2.540   6.379   7.747
  475SOL    HW1 3432  -8.526   6.312  -3.229
  475SOL    HW2 3433   2.466  17.425   7.687
  476SOL     OW 3434   3.509   6.437   7.863
  476SOL    HW1 3435   3.471   6.442   7.951
  476SOL    HW2 3436   3.442   6.474   7.806
  477SOL     OW 3437   4.548   3.068  10.182
  477SOL    HW1 3438   4.630   3.044 -11.853
  477SOL    HW2 3439   4.528 -19.087 -11.952
  478SOL     OW 3440   7.476   7.952   0.442
  478SOL    HW1 3441  40.643  18.910  33.577
  478SOL    HW2 3442  18.424   7.929  11.497
  479SOL     OW 3443   4.122   5.324   5.661
  479SOL    HW1 3444  15.203   5.325  16.614
  479SOL    HW2 3445  37.304  -5.673  -5.321
  480SOL     OW 3446  10.932   7.377  -1.111
  480SOL    HW1 3447  -0.017   7.363  20.940
  480SOL    HW2 3448  10.914  18.343   9.988
  481SOL     OW 3449   4.156   2.089  10.367
  481SOL    HW1 3450   4.242   2.047  10.373
  481SOL    HW2 3451   4.145   2.108  10.274
  482SOL     OW 3452   6.228  11.577   5.162
  482SOL    HW1 3453   6.143   0.573   5.187
  482SOL    HW2 3454  -4.771  11.646   5.109
  483SOL     OW 3455   7.470   7.859  10.365
  483SOL    HW1 3456   7.464   7.764 -11.729
  483SOL    HW2 3457   7.460   7.869  -0.580
  484SOL     OW 3458   8.072   9.636   5.358
  484SOL    HW1 3459  19.081   9.723  -5.655
  484SOL    HW2 3460   8.167   9.641 -16.715
  485SOL     OW 3461   3.873   7.979   8.132
  485SOL    HW1 3462   3.848   7.918   8.063
  485SOL    HW2 3463   3.938   7.932   8.184
  486SOL     OW 3464   1.777   0.151   3.359
  486SOL    HW1 3465   1.828   0.099   3.296
  486SOL    HW2 3466   1.807   0.240  25.426
  487SOL     OW 3467   3.500   3.343   3.412
  487SOL    HW1 3468  25.530   3.353  -7.546
  487SOL    HW2 3469   3.554  -7.617   3.407
  488SOL     OW 3470   9.119   8.919  -0.181
  488SOL    HW1 3471   9.166   8.938  -0.262
  488SOL    HW2 3472   9.075  19.875  10.843
  489SOL     OW 3473   7.074   1.397   6.026
  489SOL    HW1 3474  -3.971   1.491   6.006
  489SOL    HW2 3475   6.998   1.359   5.982
  490SOL     OW 3476  10.377   2.541   4.324
  490SOL    HW1 3477  10.389   2.466   4.266
  490SOL    HW2 3478  10.452   2.537  15.424
  491SOL     OW 3479   3.915   7.505   5.075
  491SOL    HW1 3480   3.964   7.557  -6.028
  491SOL    HW2 3481   3.835   7.555 -16.988
  492SOL     OW 3482   2.420   2.960  10.147
  492SOL    HW1 3483   2.495  13.948  10.177
  492SOL    HW2 3484   2.371   2.901  10.090
  493SOL     OW 3485   8.959   7.941   6.333
  493SOL    HW1 3486  -2.159   7.917   6.381
  493SOL    HW2 3487 -24.129   7.859   6.294
  494SOL     OW 3488  11.170   5.510  10.225
  494SOL    HW1 3489 -11.002  -5.525  10.201
  494SOL    HW2 3490  22.255   5.548  21.189
  495SOL     OW 3491   4.718   7.807   3.921
  495SOL    HW1 3492   4.668   7.889   3.917
  495SOL    HW2 3493  15.797 -14.281   3.834
  496SOL     OW 3494   9.108   5.639   4.722
  496SOL    HW1 3495 -13.018  16.641   4.648
  496SOL    HW2 3496 -12.939  16.763 -17.390
  497SOL     OW 3497   2.392   3.623   5.798
  497SOL    HW1 3498   2.300  -7.422   5.825
  497SOL    HW2 3499   2.416   3.533  16.817
  498SOL     OW 3500  12.501   3.097   4.988
  498SOL    HW1 3501 -20.574   3.046  16.096
  498SOL    HW2 3502  12.525 -18.891   5.007
  499SOL     OW 3503  10.175   2.997   7.657
  499SOL    HW1 3504  10.083   2.989   7.685
  499SOL    HW2 3505  10.217  36.038   7.693
  500SOL     OW 3506   4.079   3.135   8.232
  500SOL    HW1 3507   4.143   3.202   8.255
  500SOL    HW2 3508   4.062   3.148 -24.980
  501SOL     OW 3509   2.977   2.014   1.253
  501SOL    HW1 3510   3.067   2.047   1.244
  501SOL    HW2 3511   2.923   2.085  -9.822
  502SOL     OW 3512   9.000   6.626   1.725
  502SOL    HW1 3513   8.957  -4.487   1.768
  502SOL    HW2 3514  20.019 -15.377   1.779
  503SOL     OW 3515  11.477   3.336   5.032
  503SOL    HW1 3516   0.454  14.298   4.978
  503SOL    HW2 3517  11.449   3.403   4.970
  504SOL     OW 3518   1.903  10.609   0.965
  504SOL    HW1 3519  12.908  10.523   0.941
  504SOL    HW2 3520   1.942  10.643  11.925
  505SOL     OW 3521   0.964   8.193   6.966
  505SOL    HW1 3522   0.983  19.320   6.933
  505SOL    HW2 3523   1.048   8.160   6.999
  506SOL     OW 3524   6.177   0.344   1.423
  506SOL    HW1 3525 -27.021   0.398  12.462
  506SOL    HW2 3526  50.383   0.371   1.344
  507SOL     OW 3527   7.228   0.684   3.585
  507SOL    HW1 3528  29.229   0.638   3.555
  507SOL    HW2 3529   7.267  11.666  14.690
  508SOL     OW 3530   6.732   1.567   6.148
  508SOL    HW1 3531   6.766   1.517   6.222
  508SOL    HW2 3532   6.811   1.599   6.103
  509SOL     OW 3533  10.301   2.394   3.392
  509SOL    HW1 3534  10.220  -8.695  -7.643
  509SOL    HW2 3535  -0.729  -8.607  -7.560
  510SOL     OW 3536   8.107   7.271   4.940
  510SOL    HW1 3537   8.134   7.198  -6.043
  510SOL    HW2 3538   8.052   7.230 -17.206
  511SOL     OW 3539   4.038   2.967   1.768
  511SOL    HW1 3540   3.990   2.991   1.689
  511SOL    HW2 3541   4.063   2.875  -9.286
  512SOL     OW 3542   6.365   9.225   9.636
  512SOL    HW1 3543  17.405   9.315   9.604
  512SOL    HW2 3544   6.314   9.177   9.571
  513SOL     OW 3545   7.361   6.525  11.195
  513SOL    HW1 3546   7.442   6.561 -21.887
  513SOL    HW2 3547   7.387   6.440  11.158
  514SOL     OW 3548  -0.207   4.847  10.346
  514SOL    HW1 3549  10.778 -17.303  21.420
  514SOL    HW2 3550  -0.133   4.851 -11.673
  515SOL     OW 3551   0.685   8.327   3.986
  515SOL    HW1 3552  22.851   8.292  -7.073
  515SOL    HW2 3553   0.698   8.377  15.106
  516SOL     OW 3554   6.701   6.677  10.578
  516SOL    HW1 3555   6.717   6.609  10.512
  516SOL    HW2 3556  17.794   6.650  10.653
  517SOL     OW 3557   4.866   1.495   1.280
  517SOL    HW1 3558  -6.236   1.445   1.332
  517SOL    HW2 3559   4.904   1.559   1.342
  518SOL     OW 3560   6.917   4.991   3.531
  518SOL    HW1 3561   6.823   4.989   3.512
  518SOL    HW2 3562   6.950   4.907   3.500
  519SOL     OW 3563   3.372   9.421   2.876
  519SOL    HW1 3564   3.434   9.370   2.824
  519SOL    HW2 3565   3.396   9.404   2.967
  520SOL     OW 3566   1.643   4.032   8.469
  520SOL    HW1 3567  -9.419  -7.090 -13.566
  520SOL    HW2 3568  -9.480   4.080 -13.612
  521SOL     OW 3569   5.970   9.981   6.723
  521SOL    HW1 3570  -5.160   9.975   6.754
  521SOL    HW2 3571   5.970   9.933   6.640
  522SOL     OW 3572   9.411   2.710   9.670
  522SOL    HW1 3573   9.346   2.770   9.633
  522SOL    HW2 3574  -1.652   2.702 -56.475
  523SOL     OW 3575   6.773   4.241   6.396
  523SOL    HW1 3576   6.853   4.208   6.435
  523SOL    HW2 3577  -4.336   4.188  17.475
  524SOL     OW 3578   6.600   5.073  11.560
  524SOL    HW1 3579  -4.443   5.168  11.554
  524SOL    HW2 3580   6.639  -5.995   0.437
  525SOL     OW 3581   2.243   2.345   4.162
  525SOL    HW1 3582   2.161   2.362   4.209
  525SOL    HW2 3583  35.430  13.415   4.221
  526SOL     OW 3584   3.960   6.313   3.765
  526SOL    HW1 3585 -29.085   6.374   3.751
  526SOL    HW2 3586   4.002  17.270   3.788
  527SOL     OW 3587   0.875   9.953   4.334
  527SOL    HW1 3588   0.945  10.009  -6.672
  527SOL    HW2 3589   0.833   9.919   4.413
  528SOL     OW 3590   9.341   6.344   1.670
  528SOL    HW1 3591   9.266 -15.768   1.718
  528SOL    HW2 3592   9.331   6.439   1.672
  529SOL     OW 3593   9.420   2.039   8.286
  529SOL    HW1 3594 -12.583   1.982   8.295
  529SOL    HW2 3595  -1.587   2.126   8.306
  530SOL     OW 3596   0.192  10.290   6.526
  530SOL    HW1 3597   0.272 -11.825   6.487
  530SOL    HW2 3598   0.222  10.339   6.603
  531SOL     OW 3599   9.834   9.466   6.924
  531SOL    HW1 3600   9.830   9.372  -4.133
  531SOL    HW2 3601   9.890  -1.538   6.855
  532SOL     OW 3602   3.709   9.671   8.622
  532SOL    HW1 3603   3.675  31.835  19.691
  532SOL    HW2 3604   3.631 -12.464   8.615
  533SOL     OW 3605  -0.900   8.644   5.143
  533SOL    HW1 3606  10.148   8.556   5.179
  533SOL    HW2 3607  10.094   8.693   5.211
  534SOL     OW 3608   8.393   7.576   5.846
  534SOL    HW1 3609   8.335   7.650   5.865
  534SOL    HW2 3610  -2.705  18.549  -5.229
  535SOL     OW 3611   5.107   9.200   7.516
  535SOL    HW1 3612   5.055   9.272   7.551
  535SOL    HW2 3613   5.044  -1.912   7.506
  536SOL     OW 3614   9.076   5.260   7.726
  536SOL    HW1 3615   9.164  27.349 -14.317
  536SOL    HW2 3616   9.066   5.166   7.710
  537SOL     OW 3617   1.971   6.514   9.756
  537SOL    HW1 3618   1.960  -4.561   9.844
  537SOL    HW2 3619   2.056   6.559   9.759
  538SOL     OW 3620   7.357   3.137   9.239
  538SOL    HW1 3621  29.479   3.216  20.311
  538SOL    HW2 3622  18.343   3.107   9.313
  539SOL     OW 3623   9.968  10.848   2.872
  539SOL    HW1 3624  10.001  10.910   2.937
  539SOL    HW2 3625 -23.185  10.775   2.924
  540SOL     OW 3626   1.932   8.386   9.097
  540SOL    HW1 3627   2.005   8.334  20.102
  540SOL    HW2 3628   1.868   8.321   9.126
  541SOL     OW 3629   7.717   5.868   6.147
  541SOL    HW1 3630  18.791  16.961  -4.964
  541SOL    HW2 3631   7.661   5.803   6.105
  542SOL     OW 3632   5.438   1.578   0.545
  542SOL    HW1 3633 -27.679   1.503   0.485
  542SOL    HW2 3634   5.511   1.563   0.605
  543SOL     OW 3635   7.864   9.871   9.857
  543SOL    HW1 3636  18.905   9.955   9.902
  543SOL    HW2 3637   7.894   9.808   9.923
  544SOL     OW 3638   5.722   6.927   1.065
  544SOL    HW1 3639   5.659 -15.206  34.230
  544SOL    HW2 3640   5.750   6.874   0.990
  545SOL     OW 3641   6.906   7.475   2.695
  545SOL    HW1 3642  -4.143   7.549   2.756
  545SOL    HW2 3643  17.919   7.399  24.825
  546SOL     OW 3644   9.905   8.185   2.415
  546SOL    HW1 3645   9.959   8.170   2.338
  546SOL    HW2 3646  -1.158 -13.982   2.445
  547SOL     OW 3647   7.367   1.991   1.644
  547SOL    HW1 3648  -3.623   1.952  -9.324
  547SOL    HW2 3649   7.431   2.045  -9.443
  548SOL     OW 3650   4.474   8.817   5.942
  548SOL    HW1 3651   4.519   8.787  16.903
  548SOL    HW2 3652  15.580   8.812   6.011
  549SOL     OW 3653   3.272   4.510  10.314
  549SOL    HW1 3654   3.243   4.575  10.250
  549SOL    HW2 3655   3.259   4.552  10.399
  550SOL     OW 3656   6.808   8.982   4.988
  550SOL    HW1 3657   6.824   9.070   5.022
  550SOL    HW2 3658   6.723   8.957   5.024
  551SOL     OW 3659   9.597   1.687   7.534
  551SOL    HW1 3660   9.636   1.773   7.523
  551SOL    HW2 3661  -1.371  -9.408  -3.474
  552SOL     OW 3662   8.455   8.010   0.535
  552SOL    HW1 3663  30.478  -3.100  11.541
  552SOL    HW2 3664  19.578  -3.041  11.530
  553SOL     OW 3665   3.712   4.311   1.521
  553SOL    HW1 3666 -18.435   4.324  23.534
  553SOL    HW2 3667   3.774  -6.789  12.520
  554SOL     OW 3668   8.282   9.705  -0.789
  554SOL    HW1 3669   8.316   9.680  -0.875
  554SOL    HW2 3670   8.278 -23.318  21.287
  555SOL     OW 3671   6.608   9.150   3.242
  555SOL    HW1 3672   6.643   9.063  25.301
  555SOL    HW2 3673   6.532   9.159  14.225
  556SOL     OW 3674   0.974   6.362   3.330
  556SOL    HW1 3675   1.001   6.306   3.257
  556SOL    HW2 3676  12.088   6.418   3.347
  557SOL     OW 3677  -0.125   3.664   8.731
  557SOL    HW1 3678  -0.119  25.658   8.774
  557SOL    HW2 3679  32.900  14.723  19.768
  558SOL     OW 3680   0.446   3.999   1.109
  558SOL    HW1 3681  11.394   4.023   1.124
  558SOL    HW2 3682   0.459  14.958   1.159
  559SOL     OW 3683   3.765   1.440   6.941
  559SOL    HW1 3684  -7.283   1.484 -15.223
  559SOL    HW2 3685   3.695   1.375  17.981
  560SOL     OW 3686  10.794   6.636   7.934
  560SOL    HW1 3687  -0.303   6.559   7.934
  560SOL    HW2 3688  21.858  -4.392   8.026
  561SOL     OW 3689  10.375   9.886   4.611
  561SOL    HW1 3690 -11.690  -1.107  15.733
  561SOL    HW2 3691  -0.715   9.809   4.635
  562SOL     OW 3692   3.098   0.536  10.826
  562SOL    HW1 3693   3.073   0.451  10.860
  562SOL    HW2 3694   3.091   0.595  10.902
  563SOL     OW 3695   7.090   1.973   5.082
  563SOL    HW1 3696   7.084   1.942  -5.867
  563SOL    HW2 3697  18.141  12.932   5.031
  564SOL     OW 3698   5.049   0.697   5.750
  564SOL    HW1 3699  16.078   0.689   5.845
  564SOL    HW2 3700   4.979  11.682   5.714
  565SOL     OW 3701   9.934   0.765   2.498
  565SOL    HW1 3702  10.011  11.787   2.552
  565SOL    HW2 3703   9.864   0.784   2.560
  566SOL     OW 3704   5.049   0.817   8.970
  566SOL    HW1 3705   4.993   0.749  -2.033
  566SOL    HW2 3706   5.074   0.871   9.045
  567SOL     OW 3707   8.929   3.217   8.012
  567SOL    HW1 3708   8.843   3.194  19.016
  567SOL    HW2 3709   8.909  25.356  -2.955
  568SOL     OW 3710   4.276  10.186   6.170
  568SOL    HW1 3711   4.225  10.168  -4.948
  568SOL    HW2 3712   4.367  21.229   6.140
  569SOL     OW 3713   2.636   5.053   3.792
  569SOL    HW1 3714   2.687   5.125  14.793
  569SOL    HW2 3715  13.734  16.054   3.858
  570SOL     OW 3716   0.268   1.342   3.747
  570SOL    HW1 3717   0.205  12.412   3.681
  570SOL    HW2 3718   0.234   1.257  -7.264
  571SOL     OW 3719  10.962   5.177   5.576
  571SOL    HW1 3720  10.915  16.207  -5.546
  571SOL    HW2 3721   0.005   5.131   5.562
  572SOL     OW 3722   8.943   5.368   9.293
  572SOL    HW1 3723   8.866   5.313   9.281
  572SOL    HW2 3724   8.909   5.457   9.292
  573SOL     OW 3725   2.757   7.852   1.121
  573SOL    HW1 3726   2.774  18.833   1.195
  573SOL    HW2 3727  24.746   7.881   1.133
  574SOL     OW 3728   1.570  -0.108   5.400
  574SOL    HW1 3729   1.647  -0.052  16.450
  574SOL    HW2 3730   1.589  21.894   5.452
  575SOL     OW 3731   6.647   7.144   8.071
  575SOL    HW1 3732   6.597   7.164   7.992
  575SOL    HW2 3733   6.588  18.128   8.123
  576SOL     OW 3734   7.325   1.289   5.424
  576SOL    HW1 3735   7.351   1.290   5.332
  576SOL    HW2 3736   7.360   1.371  16.499
  577SOL     OW 3737   3.441   9.565   4.517
  577SOL    HW1 3738   3.444   9.654 -17.528
  577SOL    HW2 3739   3.527  -1.490  -6.560
  578SOL     OW 3740   5.304   3.919   1.752
  578SOL    HW1 3741  16.271   3.862   1.776
  578SOL    HW2 3742   5.350   3.935   1.835
  579SOL     OW 3743   7.236   2.154   3.784
  579SOL    HW1 3744   7.229   2.114  -7.168
  579SOL    HW2 3745   7.293   2.230   3.797
  580SOL     OW 3746   9.451   7.689   8.644
  580SOL    HW1 3747  -1.497   7.696   8.671
  580SOL    HW2 3748 -12.638   7.597   8.617
  581SOL     OW 3749   8.199   3.016   2.885
  581SOL    HW1 3750   8.242   3.046   2.965
  581SOL    HW2 3751  30.349  -8.031   2.821
  582SOL     OW 3752  10.138   5.363   3.940
  582SOL    HW1 3753  10.138   5.303  36.984
  582SOL    HW2 3754  10.060  16.457   3.927
  583SOL     OW 3755   3.624   8.286   4.526
  583SOL    HW1 3756   3.650   8.194   4.523
  583SOL    HW2 3757  -7.452  -2.742  15.654
  584SOL     OW 3758   5.075   1.395  10.858
  584SOL    HW1 3759 -16.992 -20.771  10.818
  584SOL    HW2 3760   5.128   1.453  10.804
  585SOL     OW 3761   4.567   0.547  12.132
  585SOL    HW1 3762   4.579  11.680  12.145
  585SOL    HW2 3763   4.523  11.556 -20.907
  586SOL     OW 3764  12.192   1.164   4.243
  586SOL    HW1 3765 -42.994  -9.804 -17.899
  586SOL    HW2 3766  -9.828  12.225  -6.724
  587SOL     OW 3767   9.338   3.424   4.208
  587SOL    HW1 3768  -1.681   3.487  -6.762
  587SOL    HW2 3769 -23.827   3.354   4.253
  588SOL     OW 3770   4.100   8.907   3.689
  588SOL    HW1 3771   4.064   8.993  25.790
  588SOL    HW2 3772   4.026  30.936   3.655
  589SOL     OW 3773   8.034   4.134   3.890
  589SOL    HW1 3774   8.071 -18.017  14.980
  589SOL    HW2 3775  19.121  -6.828  26.000
  590SOL     OW 3776   9.403   9.545   3.231
  590SOL    HW1 3777   9.389   9.578   3.142
  590SOL    HW2 3778   9.323   9.496  25.330
  591SOL     OW 3779   8.993   1.357   1.871
  591SOL    HW1 3780   8.933  12.429   1.938
  591SOL    HW2 3781   9.065   1.420   1.872
  592SOL     OW 3782   7.362   3.411   7.221
  592SOL    HW1 3783   7.338   3.319   7.209
  592SOL    HW2 3784   7.350   3.450   7.135
  593SOL     OW 3785   4.306   3.871  10.957
  593SOL    HW1 3786  26.456   3.823  11.000
  593SOL    HW2 3787   4.342   3.895  10.871
  594SOL     OW 3788  11.821   3.698   7.797
  594SOL    HW1 3789  11.848   3.764   7.733
  594SOL    HW2 3790 -10.313   3.746   7.859
  595SOL     OW 3791   8.385   3.001   1.270
  595SOL    HW1 3792   8.393   3.085   1.316
  595SOL    HW2 3793   8.475   2.979   1.245
  596SOL     OW 3794   8.814  11.982   5.505
  596SOL    HW1 3795  -2.224   0.872   5.570
  596SOL    HW2 3796 -13.339   0.998  16.571
  597SOL     OW 3797   9.887   6.945   9.624
  597SOL    HW1 3798  -1.107   6.922   9.705
  597SOL    HW2 3799   9.891   6.865   9.571
  598SOL     OW 3800   5.790   7.882   6.210
  598SOL    HW1 3801   5.882   7.896   6.191
  598SOL    HW2 3802  -5.252  29.943   6.304
  599SOL     OW 3803   9.839   5.312   0.054
  599SOL    HW1 3804   9.761   5.279   0.010
  599SOL    HW2 3805  20.940   5.330  11.022
  600SOL     OW 3806   5.357   4.563  -0.157
  600SOL    HW1 3807  16.366   4.653  21.937
  600SOL    HW2 3808   5.303   4.532  10.810
  601SOL     OW 3809  -0.616   1.226   9.682
  601SOL    HW1 3810  10.361   1.160   9.711
  601SOL    HW2 3811  -0.569   1.183   9.610
  602SOL     OW 3812   6.292   3.910   3.658
  602SOL    HW1 3813   6.297  14.875  14.639
  602SOL    HW2 3814   6.203  14.983   3.647
  603SOL     OW 3815   4.129   8.592   8.102
  603SOL    HW1 3816   4.150   8.638 -13.896
  603SOL    HW2 3817  15.210  -2.534   8.112
  604SOL     OW 3818   8.855   3.133  11.135
  604SOL    HW1 3819   8.866   3.183  11.054
  604SOL    HW2 3820   8.762   3.141 -10.924
  605SOL     OW 3821   3.607   8.654   3.713
  605SOL    HW1 3822   3.602 -13.494  25.858
  605SOL    HW2 3823   3.599 -24.511  14.669
  606SOL     OW 3824   1.950   1.620   0.676
  606SOL    HW1 3825  12.959  12.680   0.765
  606SOL    HW2 3826   1.919  12.570   0.660
  607SOL     OW 3827   6.455   9.257   8.637
  607SOL    HW1 3828  28.527   9.236   8.730
  607SOL    HW2 3829  17.588  -1.793   8.617
  608SOL     OW 3830   5.486   8.820   2.733
  608SOL    HW1 3831  27.559   8.909   2.700
  608SOL    HW2 3832  16.607   8.786   2.697
  609SOL     OW 3833   1.291   5.686   4.341
  609SOL    HW1 3834  -9.792   5.734   4.411
  609SOL    HW2 3835   1.223   5.671   4.275
  610SOL     OW 3836   2.333   4.910   7.329
  610SOL    HW1 3837   2.261   4.853  18.342
  610SOL    HW2 3838   2.297   4.963   7.400
  611SOL     OW 3839   4.711   1.068   8.653
  611SOL    HW1 3840  15.765   1.163   8.659
  611SOL    HW2 3841  26.821   1.035  19.777
  612SOL     OW 3842   9.365   6.554   1.267
  612SOL    HW1 3843   9.306   6.624   1.293
  612SOL    HW2 3844 -23.743  17.605  -9.867
  613SOL     OW 3845   2.704   3.179   8.299
  613SOL    HW1 3846  13.725   3.098   8.251
  613SOL    HW2 3847  24.697  14.254   8.321
  614SOL     OW 3848   5.414   5.818  11.841
  614SOL    HW1 3849 -16.743   5.807  11.787
  614SOL    HW2 3850   5.461   5.734 -10.247
  615SOL     OW 3851   8.085   7.999   3.831
  615SOL    HW1 3852   8.061   7.936   3.898
  615SOL    HW2 3853   8.038  -3.070   3.752
  616SOL     OW 3854   6.821   0.725   6.909
  616SOL    HW1 3855   6.909  33.880   6.919
  616SOL    HW2 3856  17.857  11.692   6.970
  617SOL     OW 3857  -0.219   6.951  10.183
  617SOL    HW1 3858  -0.229  29.116  21.182
  617SOL    HW2 3859  10.846   6.970 -22.845
  618SOL     OW 3860   3.955   1.946   9.192
  618SOL    HW1 3861  26.104   2.002   9.158
  618SOL    HW2 3862   3.986   1.922  20.319
  619SOL     OW 3863  12.835   5.787   4.838
  619SOL    HW1 3864 -20.304   5.747   4.923
  619SOL    HW2 3865  12.765  16.797   4.780
  620SOL     OW 3866   2.547   1.426   5.539
  620SOL    HW1 3867   2.552 -31.679 -38.714
  620SOL    HW2 3868  -8.416  12.412   5.560
  621SOL     OW 3869   9.023   9.109  -0.573
  621SOL    HW1 3870   8.978  -1.848  10.485
  621SOL    HW2 3871   9.114  -1.914  -0.550
  622SOL     OW 3872   1.499  10.548   3.768
  622SOL    HW1 3873  -9.590  10.467   3.752
  622SOL    HW2 3874   1.496  10.560  14.902
  623SOL     OW 3875   9.625   6.958   5.998
  623SOL    HW1 3876   9.684 -15.054  -5.009
  623SOL    HW2 3877   9.683  -4.150   5.964
  624SOL     OW 3878   9.970   2.471   9.253
  624SOL    HW1 3879   9.921   2.418   9.189
  624SOL    HW2 3880   9.904   2.499  20.355
  625SOL     OW 3881   2.716   9.456   7.374
  625SOL    HW1 3882   2.663   9.377   7.362
  625SOL    HW2 3883   2.762  31.520   7.456
  626SOL     OW 3884   7.521   4.980   3.948
  626SOL    HW1 3885   7.476   5.063   3.965
  626SOL    HW2 3886  18.587   4.950   4.035
  627SOL     OW 3887   5.602   2.930   9.564
  627SOL    HW1 3888  27.631  13.972   9.646
  627SOL    HW2 3889  38.745  14.061   9.549
  628SOL     OW 3890   1.878  10.881   9.021
  628SOL    HW1 3891   1.826  10.957  20.084
  628SOL    HW2 3892   1.889  10.887   8.926
  629SOL     OW 3893   9.472   3.075   6.795
  629SOL    HW1 3894   9.398   3.047   6.848
  629SOL    HW2 3895  31.614 -30.008   6.858
  630SOL     OW 3896   0.447   3.513   0.008
  630SOL    HW1 3897   0.444   3.489  -0.085
  630SOL    HW2 3898   0.540   3.520   0.028
  631SOL     OW 3899   4.498   8.604   5.528
  631SOL    HW1 3900   4.525   8.627   5.439
  631SOL    HW2 3901  -6.578 -24.433  -5.476
  632SOL     OW 3902   3.984   2.285   2.995
  632SOL    HW1 3903  -7.141   2.242   2.993
  632SOL    HW2 3904  26.126  24.293  -8.051
  633SOL     OW 3905   2.286  10.950   6.611
  633SOL    HW1 3906   2.268  21.922   6.546
  633SOL    HW2 3907   2.325  -0.018  17.601
  634SOL     OW 3908   8.091   2.166   2.258
  634SOL    HW1 3909   8.154   2.198   2.193
  634SOL    HW2 3910   8.029   2.113 -30.912
  635SOL     OW 3911   8.262   0.795  -0.557
  635SOL    HW1 3912   8.349   0.757  -0.551
  635SOL    HW2 3913   8.276   0.890  10.482
  636SOL     OW 3914   8.339   0.444   5.050
  636SOL    HW1 3915  30.424   0.515   5.114
  636SOL    HW2 3916  19.299   0.463   5.000
  637SOL     OW 3917   5.657   5.385   9.085
  637SOL    HW1 3918   5.708   5.322   9.033
  637SOL    HW2 3919   5.592  16.460   9.025
  638SOL     OW 3920   6.209  10.235   4.026
  638SOL    HW1 3921   6.238  10.288   4.100
  638SOL    HW2 3922   6.138  10.181  -6.978
  639SOL     OW 3923   4.861   4.645   0.585
  639SOL    HW1 3924  26.901   4.702   0.519
  639SOL    HW2 3925   4.859   4.698   0.665
  640SOL     OW 3926   2.005  10.859  -0.822
  640SOL    HW1 3927   2.038  10.777  -0.859
  640SOL    HW2 3928   2.053  10.870  21.339
  641SOL     OW 3929  11.235   1.460   3.162
  641SOL    HW1 3930  11.157   1.507  14.171
  641SOL    HW2 3931 -10.778   1.528   3.172
  642SOL     OW 3932   3.854   3.755   2.920
  642SOL    HW1 3933  14.799   3.759   2.902
  642SOL    HW2 3934   3.893   3.723   2.839
  643SOL     OW 3935   2.939   3.835   1.418
  643SOL    HW1 3936  -8.018  -7.200   1.466
  643SOL    HW2 3937   2.965   3.820   1.327
  644SOL     OW 3938   7.987   0.247   6.567
  644SOL    HW1 3939   7.898   0.280   6.556
  644SOL    HW2 3940  19.019   0.153   6.553
  645SOL     OW 3941   9.161   3.234   6.243
  645SOL    HW1 3942  -1.792   3.213  17.319
  645SOL    HW2 3943   9.142   3.162  17.223
  646SOL     OW 3944   0.237   9.885   8.597
  646SOL    HW1 3945 -21.888   9.951 -13.535
  646SOL    HW2 3946  33.335   9.908   8.688
  647SOL     OW 3947   5.001   4.092   6.135
  647SOL    HW1 3948   4.941   4.166  17.170
  647SOL    HW2 3949  15.987   4.017  17.149
  648SOL     OW 3950   4.828  10.304   7.167
  648SOL    HW1 3951  15.904  21.255   7.167
  648SOL    HW2 3952 -28.225  10.357   7.211
  649SOL     OW 3953   3.826   8.799   2.829
  649SOL    HW1 3954 -18.173  19.826   2.880
  649SOL    HW2 3955  14.895   8.836   2.746
  650SOL     OW 3956  10.106  10.692   1.766
  650SOL    HW1 3957  10.050  10.617  12.787
  650SOL    HW2 3958  10.176  10.656  12.861
  651SOL     OW 3959   3.757   2.054   9.040
  651SOL    HW1 3960  14.744   1.982   9.007
  651SOL    HW2 3961  14.834   2.020   9.122
  652SOL     OW 3962   5.023   6.295  10.592
  652SOL    HW1 3963   5.006   6.229  10.525
  652SOL    HW2 3964   5.018   6.247  -0.365
  653SOL     OW 3965   9.278   0.358  -0.350
  653SOL    HW1 3966   9.319   0.351  -0.263
  653SOL    HW2 3967   9.208   0.293  21.731
  654SOL     OW 3968   1.653   8.506   9.226
  654SOL    HW1 3969  12.716   8.467   9.142
  654SOL    HW2 3970   1.643   8.600   9.207
  655SOL     OW 3971   2.623   6.609   0.515
  655SOL    HW1 3972 -19.487   6.697   0.535
  655SOL    HW2 3973  13.584  17.599   0.494
  656SOL     OW 3974   7.039   6.343   4.997
  656SOL    HW1 3975   7.096  -4.687  16.113
  656SOL    HW2 3976   7.088   6.384   4.926
  657SOL     OW 3977   4.807   9.467   5.308
  657SOL    HW1 3978   4.821   9.559   5.285
  657SOL    HW2 3979   4.871  20.489  16.417
  658SOL     OW 3980  11.559   0.604   1.799
  658SOL    HW1 3981   0.584 -10.506   1.806
  658SOL    HW2 3982  11.522  11.634   1.712
  659SOL     OW 3983   8.637  10.015   1.890
  659SOL    HW1 3984   8.701  10.055  -9.091
  659SOL    HW2 3985  -2.386  10.056   1.805
  660SOL     OW 3986   2.695   3.484   6.303
  660SOL    HW1 3987  13.815 -18.595   6.354
  660SOL    HW2 3988  -8.403   3.545   6.349
  661SOL     OW 3989   2.584   6.388   0.948
  661SOL    HW1 3990   2.662   6.339 -10.066
  661SOL    HW2 3991   2.617  -4.566   0.921
  662SOL     OW 3992  10.726   7.006   8.041
  662SOL    HW1 3993  10.685  18.003   7.965
  662SOL    HW2 3994  10.698  18.137   8.035
  663SOL     OW 3995   9.440  11.302   1.989
  663SOL    HW1 3996   9.383  11.227  24.054
  663SOL    HW2 3997  -1.512 -21.853  46.151
  664SOL     OW 3998   6.927   1.334   6.982
  664SOL    HW1 3999  -4.140  12.465   6.986
  664SOL    HW2 4000   6.933   1.314   6.888
  665SOL     OW 4001   4.597   7.647   2.075
  665SOL    HW1 4002   4.507  -3.371  -8.991
  665SOL    HW2 4003   4.608  -3.484   2.051
  666SOL     OW 4004  10.577   6.861   8.972
  666SOL    HW1 4005  -0.495  17.857   9.051
  666SOL    HW2 4006  10.543  17.990   8.978
  667SOL     OW 4007   1.532   3.117   8.295
  667SOL    HW1 4008  23.525   3.146   8.265
  667SOL    HW2 4009   1.529  -7.912   8.390
  668SOL     OW 4010   9.378   7.201  10.401
  668SOL    HW1 4011   9.299   7.207  10.347
  668SOL    HW2 4012   9.393   7.291  -0.608
  669SOL     OW 4013   1.458   4.023   2.922
  669SOL    HW1 4014  12.409   3.987   2.915
  669SOL    HW2 4015   1.454   4.080  14.038
  670SOL     OW 4016   4.947   4.694   9.618
  670SOL    HW1 4017  27.054   4.703   9.526
  670SOL    HW2 4018  15.947   4.778  -1.400
  671SOL     OW 4019   9.465   0.094   7.258
  671SOL    HW1 4020   9.472  22.254   7.207
  671SOL    HW2 4021   9.431  11.162   7.343
  672SOL     OW 4022   1.635   0.847   3.154
  672SOL    HW1 4023 -20.485   0.889   3.230
  672SOL    HW2 4024   1.653  11.958   3.093
  673SOL     OW 4025   4.466   0.957   0.604
  673SOL    HW1 4026  15.453   0.922   0.532
  673SOL    HW2 4027  15.514  -9.989   0.584
  674SOL     OW 4028   2.861   9.880   6.641
  674SOL    HW1 4029   2.827 -12.265 -15.499
  674SOL    HW2 4030  35.943 -45.235   6.610
  675SOL     OW 4031   6.961   2.097  11.854
  675SOL    HW1 4032   7.012   2.176  11.832
  675SOL    HW2 4033   6.883   2.103 -10.280
  676SOL     OW 4034   2.373   9.910   2.447
  676SOL    HW1 4035   2.428   9.899  13.563
  676SOL    HW2 4036   2.297  21.000   2.478
  677SOL     OW 4037   7.297   0.634   6.229
  677SOL    HW1 4038   7.373   0.681   6.263
  677SOL    HW2 4039  18.369   0.589   6.151
  678SOL     OW 4040   9.153   4.889   1.893
  678SOL    HW1 4041  -1.956   4.901   1.959
  678SOL    HW2 4042   9.233   4.915   1.938
  679SOL     OW 4043   1.817   6.756   2.547
  679SOL    HW1 4044   1.884 -15.389   2.566
  679SOL    HW2 4045   1.843 -15.247   2.599
  680SOL     OW 4046   4.199   9.501   7.815
  680SOL    HW1 4047   4.200  20.636   7.820
  680SOL    HW2 4048  -6.911  20.521 -14.326
  681SOL     OW 4049   2.097   4.665   2.307
  681SOL    HW1 4050   2.071   4.573   2.308
  681SOL    HW2 4051   2.192  -6.376   2.298
  682SOL     OW 4052   7.449   0.701   1.567
  682SOL    HW1 4053   7.460   0.730   1.477
  682SOL    HW2 4054 -25.581   0.677   1.596
  683SOL     OW 4055   6.977   1.593   0.934
  683SOL    HW1 4056   7.035   1.669  11.969
  683SOL    HW2 4057   6.914  12.655  12.042
  684SOL     OW 4058  11.476   4.375   8.547
  684SOL    HW1 4059   0.515   4.401   8.499
  684SOL    HW2 4060   0.455  15.439   8.638
  685SOL     OW 4061  10.418   0.529   6.284
  685SOL    HW1 4062  10.354  11.531   6.345
  685SOL    HW2 4063  10.387  22.697   6.269
  686SOL     OW 4064   8.670   4.151   0.579
  686SOL    HW1 4065   8.644  -6.899   0.488
  686SOL    HW2 4066  -2.452   4.164   0.626
  687SOL     OW 4067   9.699   1.069   1.765
  687SOL    HW1 4068   9.652   1.101   1.688
  687SOL    HW2 4069   9.635   1.015   1.812
  688SOL     OW 4070  10.050   6.527   7.451
  688SOL    HW1 4071  10.019   6.437   7.440
  688SOL    HW2 4072  -1.065  17.621   7.426
  689SOL     OW 4073   8.973   2.765   0.243
  689SOL    HW1 4074  30.958   2.748  11.291
  689SOL    HW2 4075   8.981   2.816 -10.877
  690SOL     OW 4076   4.733  11.143   5.807
  690SOL    HW1 4077   4.748   0.016  -5.196
  690SOL    HW2 4078   4.803  11.197   5.844
  691SOL     OW 4079  10.145   4.222   8.046
  691SOL    HW1 4080  10.147   4.248   8.138
  691SOL    HW2 4081  10.156  37.422   7.997
  692SOL     OW 4082   1.107  12.856   9.241
  692SOL    HW1 4083   1.038  -9.229  20.215
  692SOL    HW2 4084  12.100   1.827  20.364
  693SOL     OW 4085   1.793   2.182   5.164
  693SOL    HW1 4086   1.772   2.176   5.071
  693SOL    HW2 4087   1.886 -19.919   5.169
  694SOL     OW 4088   8.100   1.527   4.814
  694SOL    HW1 4089   8.163   1.456   4.805
  694SOL    HW2 4090 -25.064   1.531   4.730
  695SOL     OW 4091   2.664   6.439   9.282
  695SOL    HW1 4092  24.704 -26.725  -1.683
  695SOL    HW2 4093  24.669   6.467   9.229
  696SOL     OW 4094   8.927   5.635   2.058
  696SOL    HW1 4095   8.858   5.664   2.118
  696SOL    HW2 4096  -2.133   5.679  13.015
  697SOL     OW 4097   5.111   0.859   7.869
  697SOL    HW1 4098 -17.015  33.986   7.952
  697SOL    HW2 4099   5.042   0.857   7.803
  698SOL     OW 4100   0.305   3.886   1.396
  698SOL    HW1 4101   0.329   3.975  12.460
  698SOL    HW2 4102   0.215   3.876   1.425
  699SOL     OW 4103   7.816   9.291  11.562
  699SOL    HW1 4104 -14.302   9.379   0.522
  699SOL    HW2 4105   7.775   9.247   0.448
  700SOL     OW 4106   5.446   1.420   5.788
  700SOL    HW1 4107   5.464   1.486   5.722
  700SOL    HW2 4108  -5.607  12.510   5.869
  701SOL     OW 4109   5.610   6.544   0.996
  701SOL    HW1 4110   5.662   6.557   0.917
  701SOL    HW2 4111   5.672   6.507  23.138
  702SOL     OW 4112   4.142   5.652  10.813
  702SOL    HW1 4113   4.138   5.601  10.894
  702SOL    HW2 4114 -28.912   5.607  10.759
  703SOL     OW 4115   3.109   0.715   2.284
  703SOL    HW1 4116  -7.969   0.763  24.436
  703SOL    HW2 4117  -7.839  22.781   2.309
  704SOL     OW 4118   6.573   5.019   3.108
  704SOL    HW1 4119  28.732   5.067   3.130
  704SOL    HW2 4120  28.628  -6.066  14.228
  705SOL     OW 4121   5.155   9.442  10.799
  705SOL    HW1 4122   5.138   9.419  10.708
  705SOL    HW2 4123   5.107   9.377  10.849
  706SOL     OW 4124   1.232   8.465   1.938
  706SOL    HW1 4125  45.454  -2.585  12.907
  706SOL    HW2 4126  12.194   8.502   1.896
  707SOL     OW 4127   5.648  -1.329   4.571
  707SOL    HW1 4128   5.728  64.936  15.567
  707SOL    HW2 4129   5.643  42.735  15.594
  708SOL     OW 4130  -0.743   4.235   6.617
  708SOL    HW1 4131  -0.666 -17.872   6.567
  708SOL    HW2 4132  32.325   4.155  28.708
  709SOL     OW 4133   0.324   5.423  11.588
  709SOL    HW1 4134  11.360   5.390 -10.581
  709SOL    HW2 4135 -10.692   5.347  22.681
  710SOL     OW 4136  10.386   9.803   4.348
  710SOL    HW1 4137  10.396  20.870   4.439
  710SOL    HW2 4138  10.367   9.709  -6.687
  711SOL     OW 4139   9.088   4.640   7.273
  711SOL    HW1 4140   9.082  15.772  40.414
  711SOL    HW2 4141  -1.868  15.651   7.310
  712SOL     OW 4142   4.582  12.029   6.380
  712SOL    HW1 4143   4.528   1.047   6.434
  712SOL    HW2 4144   4.557   1.011  17.330
  713SOL     OW 4145   2.670   4.923   4.805
  713SOL    HW1 4146   2.596   4.983   4.792
  713SOL    HW2 4147  13.692  15.889  26.827
  714SOL     OW 4148   3.853   4.795  10.103
  714SOL    HW1 4149   3.896  15.917  10.080
  714SOL    HW2 4150  14.900  -6.250 -22.920
  715SOL     OW 4151   7.080   1.324   3.219
  715SOL    HW1 4152   7.052   1.298   3.307
  715SOL    HW2 4153  -3.972   1.244 -18.912
  716SOL     OW 4154   4.519   6.475   9.972
  716SOL    HW1 4155   4.504  -4.659  -1.064
  716SOL    HW2 4156   4.467 -37.653   9.898
  717SOL     OW 4157  11.208   1.145   6.367
  717SOL    HW1 4158  11.287   1.152   6.313
  717SOL    HW2 4159 -10.891  12.091   6.367
  718SOL     OW 4160   4.952   1.138   9.349
  718SOL    HW1 4161  15.970   1.203  20.322
  718SOL    HW2 4162  15.988   1.186   9.432
  719SOL     OW 4163   0.318   6.837   0.665
  719SOL    HW1 4164   0.317  -4.251  11.622
  719SOL    HW2 4165   0.333   6.770  11.771
  720SOL     OW 4166   2.327   6.651   4.770
  720SOL    HW1 4167   2.329  28.804   4.832
  720SOL    HW2 4168   2.411   6.606   4.783
  721SOL     OW 4169   7.545  10.510   3.417
  721SOL    HW1 4170  18.565  -0.441   3.384
  721SOL    HW2 4171   7.615 -11.601   3.360
  722SOL     OW 4172   8.598   1.610   2.629
  722SOL    HW1 4173  -2.473   1.628   2.718
  722SOL    HW2 4174 -24.597   1.577  13.622
  723SOL     OW 4175   6.497   1.954   3.370
  723SOL    HW1 4176   6.571  -9.145   3.358
  723SOL    HW2 4177  28.501   1.906   3.336
  724SOL     OW 4178   3.040   2.558   8.608
  724SOL    HW1 4179   3.001   2.578   8.523
  724SOL    HW2 4180   3.134 -19.523   8.592
  725SOL     OW 4181   9.018   3.509   2.065
  725SOL    HW1 4182   9.098  25.596   2.117
  725SOL    HW2 4183  -2.078  14.619   2.097
  726SOL     OW 4184  -1.117   8.335   9.037
  726SOL    HW1 4185   9.864   8.347   8.962
  726SOL    HW2 4186   9.870   8.289   9.102
  727SOL     OW 4187   2.493   6.368   5.636
  727SOL    HW1 4188  -8.601   6.296   5.667
  727SOL    HW2 4189   2.486   6.434  -5.335
  728SOL     OW 4190   7.397   1.040   1.263
  728SOL    HW1 4191   7.445   1.059   1.182
  728SOL    HW2 4192   7.399 -10.095   1.270
  729SOL     OW 4193   0.981   2.488   5.081
  729SOL    HW1 4194   1.059   2.543   5.073
  729SOL    HW2 4195  34.110  13.484  16.205
  730SOL     OW 4196   7.982   0.829   8.913
  730SOL    HW1 4197   7.902 -10.241   8.957
  730SOL    HW2 4198   7.987   0.922   8.933
  731SOL     OW 4199   0.087   8.270   6.232
  731SOL    HW1 4200   0.056   8.224   6.310
  731SOL    HW2 4201   0.147   8.209   6.190
  732SOL     OW 4202   5.909   3.478   0.434
  732SOL    HW1 4203  28.073   3.502   0.397
  732SOL    HW2 4204  -5.142   3.538   0.508
  733SOL     OW 4205   0.362   1.880   7.622
  733SOL    HW1 4206   0.314  12.901   7.541
  733SOL    HW2 4207   0.301  12.898   7.692
  734SOL     OW 4208   2.096   7.656   9.363
  734SOL    HW1 4209   2.045  40.821  20.469
  734SOL    HW2 4210  13.126  29.643   9.386
  735SOL     OW 4211  10.312   5.874   7.206
  735SOL    HW1 4212  -0.673  38.914   7.200
  735SOL    HW2 4213  32.447   5.939  29.326
  736SOL     OW 4214   0.073  10.008   3.091
  736SOL    HW1 4215  11.163   9.946   3.143
  736SOL    HW2 4216  -0.017   9.977   3.097
  737SOL     OW 4217   4.331   4.191   9.399
  737SOL    HW1 4218   4.354  26.354   9.358
  737SOL    HW2 4219   4.326   4.211   9.492
  738SOL     OW 4220   4.696   1.124   4.351
  738SOL    HW1 4221  15.772   1.210  -6.710
  738SOL    HW2 4222   4.606   1.143   4.379
  739SOL     OW 4223  10.627   4.444  10.511
  739SOL    HW1 4224  10.616   4.534  10.481
  739SOL    HW2 4225  10.544 -28.717 -11.588
  740SOL     OW 4226   9.735   6.643   9.640
  740SOL    HW1 4227   9.698   6.693   9.713
  740SOL    HW2 4228   9.807   6.594   9.680
  741SOL     OW 4229   7.324   8.830   4.667
  741SOL    HW1 4230  -3.672   8.820   4.582
  741SOL    HW2 4231   7.293   8.921   4.667
  742SOL     OW 4232   1.857   5.169   5.560
  742SOL    HW1 4233  46.077   5.118   5.507
  742SOL    HW2 4234  45.982   5.107   5.625
  743SOL     OW 4235   4.837   6.148   8.069
  743SOL    HW1 4236   4.870   6.060   8.088
  743SOL    HW2 4237   4.775   6.135   7.997
  744SOL     OW 4238   4.499   3.081   5.179
  744SOL    HW1 4239   4.438   3.022  27.302
  744SOL    HW2 4240   4.578   3.077   5.232
  745SOL     OW 4241   7.743   3.301   4.772
  745SOL    HW1 4242   7.766 -18.701   4.720
  745SOL    HW2 4243  18.856   3.291  15.873
  746SOL     OW 4244   3.415   4.662  -0.246
  746SOL    HW1 4245  25.563   4.597  -0.238
  746SOL    HW2 4246   3.374  15.704  21.920
  747SOL     OW 4247   3.043   3.506   0.202
  747SOL    HW1 4248   3.031   3.439   0.270
  747SOL    HW2 4249   3.067   3.456   0.124
  748SOL     OW 4250   8.253   8.563   4.146
  748SOL    HW1 4251   8.191   8.630   4.117
  748SOL    HW2 4252  -2.842  30.568  -6.869
  749SOL     OW 4253   6.595   7.459   6.419
  749SOL    HW1 4254  17.626   7.364   6.427
  749SOL    HW2 4255   6.643   7.486  -4.542
  750SOL     OW 4256   8.259   8.460   6.642
  750SOL    HW1 4257   8.304  -2.606   6.722
  750SOL    HW2 4258   8.173   8.490   6.672
  751SOL     OW 4259   5.119  10.675   5.819
  751SOL    HW1 4260   5.159  10.683   5.732
  751SOL    HW2 4261   5.064  10.597   5.813
  752SOL     OW 4262   7.602  10.217   3.991
  752SOL    HW1 4263   7.663  21.206   3.937
  752SOL    HW2 4264   7.517  10.178  -7.067
  753SOL     OW 4265   0.393   3.884   7.217
  753SOL    HW1 4266   0.337  -7.202  29.358
  753SOL    HW2 4267   0.430   3.956 -14.812
  754SOL     OW 4268   2.978   2.316   7.350
  754SOL    HW1 4269   2.967   2.297   7.443
  754SOL    HW2 4270  14.104   2.356  18.383
  755SOL     OW 4271   8.953   1.743   4.718
  755SOL    HW1 4272  20.042   1.798   4.658
  755SOL    HW2 4273   8.867  -9.253  15.765
  756SOL     OW 4274   8.326   1.713   9.372
  756SOL    HW1 4275   8.381  23.721  20.378
  756SOL    HW2 4276   8.338   1.710  20.506
  757SOL     OW 4277   9.407   0.844   8.027
  757SOL    HW1 4278   9.361   0.815  -2.934
  757SOL    HW2 4279  31.569   0.796  -3.011
  758SOL     OW 4280   7.778   5.813   5.728
  758SOL    HW1 4281   7.711  27.825  -5.329
  758SOL    HW2 4282   7.759  16.922   5.665
  759SOL     OW 4283   7.164   8.330   9.669
  759SOL    HW1 4284   7.166   8.415   9.713
  759SOL    HW2 4285   7.071   8.317   9.647
  760SOL     OW 4286   3.858   1.598   7.124
  760SOL    HW1 4287  14.861  -9.501   7.058
  760SOL    HW2 4288  14.856  12.611  18.246
  761SOL     OW 4289   0.064   4.163   8.340
  761SOL    HW1 4290  -0.005   4.209  19.428
  761SOL    HW2 4291   0.125   4.133   8.407
  762SOL     OW 4292  -0.856   3.414   2.294
  762SOL    HW1 4293  21.216  -7.552   2.233
  762SOL    HW2 4294  -0.775   3.370   2.268
  763SOL     OW 4295   9.505   3.004   9.252
  763SOL    HW1 4296   9.501   2.914  20.259
  763SOL    HW2 4297  20.476   3.050   9.203
  764SOL     OW 4298   0.587   1.396  12.900
  764SOL    HW1 4299   0.588  23.434  -9.266
  764SOL    HW2 4300  33.767   1.470  -9.187
  765SOL     OW 4301   1.182  11.905  -1.377
  765SOL    HW1 4302   1.143  11.975  20.649
  765SOL    HW2 4303   1.259 -10.201  20.652
  766SOL     OW 4304   5.591   8.557   6.677
  766SOL    HW1 4305  16.615   8.597   6.592
  766SOL    HW2 4306   5.587   8.629  17.779
  767SOL     OW 4307   2.949   6.040   3.960
  767SOL    HW1 4308  -8.158   6.032   4.028
  767SOL    HW2 4309   2.941  39.250   3.929
  768SOL     OW 4310   5.424   8.504   7.826
  768SOL    HW1 4311   5.403   8.496  -3.120
  768SOL    HW2 4312   5.485   8.577   7.821
  769SOL     OW 4313  12.114   6.632   6.684
  769SOL    HW1 4314  12.099   6.538   6.681
  769SOL    HW2 4315 -10.004   6.660   6.767
  770SOL     OW 4316   2.996   1.911   5.218
  770SOL    HW1 4317   2.985   1.950  16.345
  770SOL    HW2 4318   3.004   1.987   5.160
  771SOL     OW 4319   2.228  10.236   6.368
  771SOL    HW1 4320   2.264  10.321  -4.649
  771SOL    HW2 4321   2.136  10.241 -15.687
  772SOL     OW 4322   3.635   3.654   8.103
  772SOL    HW1 4323 -18.425   3.627  19.053
  772SOL    HW2 4324   3.545  -7.354  19.139
  773SOL     OW 4325   1.827  10.071  15.064
  773SOL    HW1 4326   1.764  10.130 -18.012
  773SOL    HW2 4327  12.854 -12.092 -62.169
  774SOL     OW 4328   4.317   4.332   1.266
  774SOL    HW1 4329   4.254  15.309   1.303
  774SOL    HW2 4330   4.297   4.415  -9.729
  775SOL     OW 4331   7.052   3.105   5.313
  775SOL    HW1 4332   7.011 -30.045  -5.646
  775SOL    HW2 4333  18.018   3.125   5.255
  776SOL     OW 4334   6.947   8.500   1.931
  776SOL    HW1 4335  17.893   8.492  -9.126
  776SOL    HW2 4336   6.956   8.481   2.025
  777SOL     OW 4337   4.517   0.676  10.400
  777SOL    HW1 4338   4.562   0.594  10.380
  777SOL    HW2 4339   4.453  11.692  10.467
  778SOL     OW 4340   2.541   8.692   1.536
  778SOL    HW1 4341   2.449  19.726   1.509
  778SOL    HW2 4342  -8.502  30.817   1.620
  779SOL     OW 4343   5.723   1.513   4.816
  779SOL    HW1 4344   5.634   1.508  -6.189
  779SOL    HW2 4345  27.847  23.517   4.855
  780SOL     OW 4346   5.401   0.327   7.420
  780SOL    HW1 4347   5.440   0.260   7.477
  780SOL    HW2 4348   5.393  11.324   7.335
  781SOL     OW 4349   4.990   6.576   6.228
  781SOL    HW1 4350   4.985   6.585   6.133
  781SOL    HW2 4351   5.004  -4.557   6.242
  782SOL     OW 4352   3.238  11.614   4.166
  782SOL    HW1 4353  -7.886  11.579   4.195
  782SOL    HW2 4354  36.373 -21.430   4.224
  783SOL     OW 4355  10.315  -0.557   2.748
  783SOL    HW1 4356  -0.688  10.416   2.690
  783SOL    HW2 4357  10.255  -0.507   2.693
  784SOL     OW 4358   8.981   3.427   3.332
  784SOL    HW1 4359   8.961   3.421   3.426
  784SOL    HW2 4360   8.911  -7.663   3.290
  785SOL     OW 4361  10.246   1.878   2.179
  785SOL    HW1 4362  10.296   1.956   2.153
  785SOL    HW2 4363  -0.788   1.820  13.143
  786SOL     OW 4364   3.506   3.862   5.977
  786SOL    HW1 4365   3.412   3.879   5.986
  786SOL    HW2 4366   3.514   3.766  17.022
  787SOL     OW 4367   9.877   4.658   7.275
  787SOL    HW1 4368   9.886   4.752   7.293
  787SOL    HW2 4369  21.002  -6.418  29.375
  788SOL     OW 4370   0.964   6.117   2.007
  788SOL    HW1 4371   0.896  -4.920  12.979
  788SOL    HW2 4372  23.111   6.060   1.970
  789SOL     OW 4373   8.688   8.815   8.516
  789SOL    HW1 4374   8.671 -13.355   8.493
  789SOL    HW2 4375  19.724   8.862   8.432
  790SOL     OW 4376   6.285  10.636   3.967
  790SOL    HW1 4377   6.336  21.720 -29.084
  790SOL    HW2 4378   6.287  -0.344   3.892
  791SOL     OW 4379   0.538   9.736   7.958
  791SOL    HW1 4380   0.574   9.738   8.046
  791SOL    HW2 4381   0.558  -1.217   7.922
  792SOL     OW 4382   0.021   9.260   2.068
  792SOL    HW1 4383   0.003  20.208 -19.989
  792SOL    HW2 4384   0.012   9.264   1.973
  793SOL     OW 4385   3.335   0.268   9.455
  793SOL    HW1 4386  14.453  33.358   9.409
  793SOL    HW2 4387   3.286   0.319 -34.768
  794SOL     OW 4388   8.356   6.264   5.046
  794SOL    HW1 4389  -2.689  -4.705  27.189
  794SOL    HW2 4390   8.431  17.251   5.074
  795SOL     OW 4391  11.625   1.987   7.749
  795SOL    HW1 4392   0.514  46.094   7.711
  795SOL    HW2 4393  11.589  -9.018  18.871
  796SOL     OW 4394   3.668   2.598   2.588
  796SOL    HW1 4395  -7.438   2.538  -8.415
  796SOL    HW2 4396   3.744   2.543  13.613
  797SOL     OW 4397   8.415   9.134   0.303
  797SOL    HW1 4398   8.411   9.084  44.544
  797SOL    HW2 4399   8.405   9.067   0.235
  798SOL     OW 4400   4.201   2.171   7.556
  798SOL    HW1 4401   4.154 -19.852  18.534
  798SOL    HW2 4402   4.132   2.129  18.647
  799SOL     OW 4403  11.536   5.672  10.689
  799SOL    HW1 4404  11.467   5.655  10.625
  799SOL    HW2 4405   0.495   5.595  10.747
  800SOL     OW 4406   4.724   5.709   2.832
  800SOL    HW1 4407  26.710   5.725 -19.264
  800SOL    HW2 4408   4.729   5.692   2.926
  801SOL     OW 4409   9.705   2.824   3.026
  801SOL    HW1 4410   9.655  13.892   2.949
  801SOL    HW2 4411  -1.275   2.897  14.084
  802SOL     OW 4412   7.598   5.502   8.811
  802SOL    HW1 4413   7.692   5.509 -24.288
  802SOL    HW2 4414   7.556   5.558 -13.203
  803SOL     OW 4415   4.475   9.853   4.131
  803SOL    HW1 4416   4.436   9.841   4.044
  803SOL    HW2 4417   4.511   9.768   4.154
  804SOL     OW 4418   4.445   4.126   0.601
  804SOL    HW1 4419   4.390  -6.894   0.526
  804SOL    HW2 4420   4.533   4.150   0.572
  805SOL     OW 4421   2.796   9.153   2.557
  805SOL    HW1 4422   2.784   9.185   2.468
  805SOL    HW2 4423  13.899   9.213   2.596
  806SOL     OW 4424   3.636   2.259   6.352
  806SOL    HW1 4425   3.651  -8.750   6.442
  806SOL    HW2 4426  14.758   2.217   6.328
  807SOL     OW 4427   5.637   4.584   4.643
  807SOL    HW1 4428  38.738   4.670   4.680
  807SOL    HW2 4429   5.626   4.596  -6.491
  808SOL     OW 4430   5.870   8.926   1.078
  808SOL    HW1 4431   5.820   8.925 -20.920
  808SOL    HW2 4432   5.911  19.879  12.112
  809SOL     OW 4433   2.806   4.603   8.677
  809SOL    HW1 4434   2.829   4.635  -2.450
  809SOL    HW2 4435   2.720   4.563   8.667
  810SOL     OW 4436   5.861   2.048   2.379
  810SOL    HW1 4437   5.936   1.989   2.384
  810SOL    HW2 4438  -5.141  13.173   2.361
  811SOL     OW 4439  10.521  -0.163   1.815
  811SOL    HW1 4440  -0.441  -0.119  -9.260
  811SOL    HW2 4441  10.473  10.946   1.859
  812SOL     OW 4442   7.526   4.006   2.740
  812SOL    HW1 4443   7.557   3.950  13.850
  812SOL    HW2 4444   7.484  -6.960  13.824
  813SOL     OW 4445   1.020   6.171   2.512
  813SOL    HW1 4446 -10.037   6.180   2.606
  813SOL    HW2 4447   0.935  17.228   2.471
  814SOL     OW 4448   8.689  11.279   9.386
  814SOL    HW1 4449  -2.280   0.254   9.450
  814SOL    HW2 4450   8.633   0.174 -23.693
  815SOL     OW 4451  10.049   5.663   1.728
  815SOL    HW1 4452  10.049   5.744   1.779
  815SOL    HW2 4453   9.995  16.643   1.779
  816SOL     OW 4454   2.242   8.623   7.670
  816SOL    HW1 4455  -8.709   8.652   7.690
  816SOL    HW2 4456   2.233 -24.481   7.576
  817SOL     OW 4457   9.474   8.245   0.763
  817SOL    HW1 4458 -12.517  -2.762   0.742
  817SOL    HW2 4459   9.443   8.205   0.682
  818SOL     OW 4460   9.653   9.531   6.040
  818SOL    HW1 4461  -1.392   9.437   6.059
  818SOL    HW2 4462  20.666   9.538  28.028
  819SOL     OW 4463   9.800   6.678   8.766
  819SOL    HW1 4464   9.870   6.676   8.830
  819SOL    HW2 4465   9.788  17.626   8.740
  820SOL     OW 4466   2.135   9.657   7.517
  820SOL    HW1 4467   2.170  -1.306   7.563
  820SOL    HW2 4468   2.049 -12.394   7.486
  821SOL     OW 4469   3.677   3.216   3.867
  821SOL    HW1 4470   3.615   3.222  -7.100
  821SOL    HW2 4471   3.713 -18.775   3.858
  822SOL     OW 4472   2.702   3.117   8.727
  822SOL    HW1 4473  -8.402  -7.972   8.677
  822SOL    HW2 4474   2.695   3.082   8.816
  823SOL     OW 4475   1.106   5.235   2.120
  823SOL    HW1 4476   1.144   5.197  -8.999
  823SOL    HW2 4477   1.146   5.185   2.191
  824SOL     OW 4478   6.678  11.536   4.020
  824SOL    HW1 4479   6.726  11.565   4.098
  824SOL    HW2 4480   6.637   0.576  -7.054
  825SOL     OW 4481   0.448   4.887   3.455
  825SOL    HW1 4482   0.494   4.971   3.447
  825SOL    HW2 4483   0.378   4.904  -7.522
  826SOL     OW 4484   4.863   5.928  11.663
  826SOL    HW1 4485  15.896   5.840  11.700
  826SOL    HW2 4486  -6.170  -5.054 -10.339
  827SOL     OW 4487   7.693   5.407   2.351
  827SOL    HW1 4488  18.645 -16.688   2.316
  827SOL    HW2 4489  18.792   5.382   2.280
  828SOL     OW 4490   9.033   1.863   8.372
  828SOL    HW1 4491  -2.057  23.923  -2.747
  828SOL    HW2 4492  20.055   1.955   8.390
  829SOL     OW 4493   2.277  11.053  11.397
  829SOL    HW1 4494  13.319 -10.990  11.485
  829SOL    HW2 4495  -8.685  11.090 -10.725
  830SOL     OW 4496   1.096   6.624   0.712
  830SOL    HW1 4497   1.110   6.710  11.792
  830SOL    HW2 4498  12.196   6.566   0.758
  831SOL     OW 4499  10.607   7.492   4.249
  831SOL    HW1 4500  10.626   7.491   4.156
  831SOL    HW2 4501  -0.440  29.664  37.390
  832SOL     OW 4502   3.920   3.552   1.460
  832SOL    HW1 4503  -7.070 -40.573   1.385
  832SOL    HW2 4504   3.916   3.457   1.445
  833SOL     OW 4505   1.962   5.468   8.780
  833SOL    HW1 4506   1.867   5.480  -2.259
  833SOL    HW2 4507   1.977   5.400 -24.405
  834SOL     OW 4508   0.131   3.009   4.939
  834SOL    HW1 4509   0.062  -7.987  -6.051
  834SOL    HW2 4510   0.199   2.990   5.003
  835SOL     OW 4511   5.976   6.054   2.327
  835SOL    HW1 4512   5.939  28.087   2.252
  835SOL    HW2 4513   6.012   6.135   2.290
  836SOL     OW 4514   1.394  10.235   4.050
  836SOL    HW1 4515   1.299  21.271 -18.043
  836SOL    HW2 4516   1.414  10.328   4.058
  837SOL     OW 4517   5.344  10.858   6.443
  837SOL    HW1 4518  16.386  10.859 -15.732
  837SOL    HW2 4519   5.338  10.765   6.466
  838SOL     OW 4520   9.470   0.556  10.970
  838SOL    HW1 4521   9.432   0.569  11.057
  838SOL    HW2 4522   9.415  11.647  10.912
  839SOL     OW 4523   0.921   5.921   8.673
  839SOL    HW1 4524   0.844  16.996   8.629
  839SOL    HW2 4525   0.980   5.996   8.684
  840SOL     OW 4526   0.153   1.995   6.118
  840SOL    HW1 4527   0.099   1.951   6.183
  840SOL    HW2 4528   0.239   2.002   6.158
  841SOL     OW 4529   7.506   3.599   7.453
  841SOL    HW1 4530 -14.633   3.571   7.384
  841SOL    HW2 4531   7.492   3.693   7.462
  842SOL     OW 4532   2.480  10.486  10.023
  842SOL    HW1 4533 -19.597  10.565   9.970
  842SOL    HW2 4534   2.559  10.437   9.996
  843SOL     OW 4535   6.281   5.465   3.106
  843SOL    HW1 4536   6.270   5.376  14.178
  843SOL    HW2 4537   6.372  16.509  14.118
  844SOL     OW 4538   4.972   6.252   0.313
  844SOL    HW1 4539  27.001 -15.771   0.373
  844SOL    HW2 4540  27.119   6.214   0.368
  845SOL     OW 4541   2.774   7.546   7.040
  845SOL    HW1 4542   2.742   7.513   7.123
  845SOL    HW2 4543   2.867  29.645   7.056
  846SOL     OW 4544   1.259   5.454   2.222
  846SOL    HW1 4545  -9.819   5.392  -8.880
  846SOL    HW2 4546  -9.690   5.463  -8.847
  847SOL     OW 4547   9.640   4.883   6.029
  847SOL    HW1 4548   9.727   4.921   6.028
  847SOL    HW2 4549   9.634 -17.247   5.948
  848SOL     OW 4550   1.940  10.189   0.741
  848SOL    HW1 4551   1.898  -0.931   0.710
  848SOL    HW2 4552   2.014  10.158  11.833
  849SOL     OW 4553   6.451   5.459   4.782
  849SOL    HW1 4554  17.540   5.416   4.712
  849SOL    HW2 4555   6.359  16.476   4.764
  850SOL     OW 4556   4.821   7.189   5.190
  850SOL    HW1 4557  -6.310   7.163  16.247
  850SOL    HW2 4558   4.829   7.276   5.230
  851SOL     OW 4559   9.568   2.622   7.442
  851SOL    HW1 4560   9.565   2.584   7.354
  851SOL    HW2 4561  -1.556   2.597   7.481
  852SOL     OW 4562   3.693   3.707   9.646
  852SOL    HW1 4563   3.769   3.650   9.651
  852SOL    HW2 4564   3.619   3.651   9.669
  853SOL     OW 4565   1.057   3.521   5.565
  853SOL    HW1 4566   0.963   3.536   5.562
  853SOL    HW2 4567   1.092  -7.468   5.491
  854SOL     OW 4568   6.256   7.504   0.455
  854SOL    HW1 4569  17.315   7.597   0.453
  854SOL    HW2 4570   6.174   7.498   0.503
  855SOL     OW 4571   2.185   6.385  10.148
  855SOL    HW1 4572  13.143  17.393  10.108
  855SOL    HW2 4573   2.240   6.409  21.113
  856SOL     OW 4574   6.069   1.517   3.530
  856SOL    HW1 4575  17.066   1.567 -18.619
  856SOL    HW2 4576  -5.042  12.517   3.579
  857SOL     OW 4577   3.810   2.189   6.031
  857SOL    HW1 4578  -7.211   2.208   5.939
  857SOL    HW2 4579  -7.248   2.274   6.070
  858SOL     OW 4580   0.132   1.311   5.996
  858SOL    HW1 4581   0.166  -9.709   5.909
  858SOL    HW2 4582   0.203   1.334  -4.983
  859SOL     OW 4583  10.665  10.065   7.172
  859SOL    HW1 4584  10.632  10.039  29.165
  859SOL    HW2 4585  10.709   9.987   7.205
  860SOL     OW 4586   8.984  11.746   8.359
  860SOL    HW1 4587   8.898  11.706   8.343
  860SOL    HW2 4588   9.046 -10.395   8.320
  861SOL     OW 4589   1.583  10.832   2.101
  861SOL    HW1 4590   1.591  10.859   2.009
  861SOL    HW2 4591   1.654  10.769   2.112
  862SOL     OW 4592   1.542   9.670   8.763
  862SOL    HW1 4593   1.600  -1.435   8.802
  862SOL    HW2 4594   1.528   9.734 -13.246
  863SOL     OW 4595   0.195   0.355   4.524
  863SOL    HW1 4596   0.165   0.366   4.614
  863SOL    HW2 4597   0.127   0.398   4.471
  864SOL     OW 4598   2.397   9.370   5.291
  864SOL    HW1 4599   2.439  20.404   5.377
  864SOL    HW2 4600   2.471  20.411   5.229
  865SOL     OW 4601   6.879   7.244   7.482
  865SOL    HW1 4602  -4.208   7.185   7.540
  865SOL    HW2 4603 -26.179  18.227  18.473
  866SOL     OW 4604   9.609   9.615   6.951
  866SOL    HW1 4605   9.689   9.566  40.050
  866SOL    HW2 4606   9.600  -1.364   6.877
  867SOL     OW 4607  10.270   0.447   7.535
  867SOL    HW1 4608  10.259  11.551   7.465
  867SOL    HW2 4609  10.194   0.459   7.591
  868SOL     OW 4610  10.405   7.978   3.484
  868SOL    HW1 4611  10.373   7.936   3.564
  868SOL    HW2 4612  10.430   7.905  -7.613
  869SOL     OW 4613   5.594   3.716   3.978
  869SOL    HW1 4614 -16.489 -18.365   4.073
  869SOL    HW2 4615   5.502   3.716  14.990
  870SOL     OW 4616   2.499   9.817   4.619
  870SOL    HW1 4617  13.457   9.862  15.682
  870SOL    HW2 4618  13.547  -1.208   4.525
  871SOL     OW 4619   3.808   2.003   6.244
  871SOL    HW1 4620   3.825   2.016   6.150
  871SOL    HW2 4621  14.927   1.960   6.276
  872SOL     OW 4622   1.698   9.551  10.837
  872SOL    HW1 4623   1.689   9.487  10.767
  872SOL    HW2 4624  -9.430  -1.454  -0.190
  873SOL     OW 4625   7.133   1.330   7.568
  873SOL    HW1 4626   7.209   1.369   7.611
  873SOL    HW2 4627   7.059   1.354  18.664
  874SOL     OW 4628   6.009   9.020   4.203
  874SOL    HW1 4629  16.999  31.090   4.284
  874SOL    HW2 4630   5.958   8.972   4.138
  875SOL     OW 4631   6.044   8.180  11.026
  875SOL    HW1 4632  17.009 -13.888  10.968
  875SOL    HW2 4633   6.034   8.250  11.091
  876SOL     OW 4634   4.125   5.573   0.017
  876SOL    HW1 4635   4.122   5.479 -11.006
  876SOL    HW2 4636   4.052   5.608  22.147
  877SOL     OW 4637   9.030   0.874   3.604
  877SOL    HW1 4638   8.945   0.868 -29.471
  877SOL    HW2 4639 -13.012   0.956   3.635
  878SOL     OW 4640   5.007   7.322   5.050
  878SOL    HW1 4641  -6.066   7.266   5.120
  878SOL    HW2 4642   4.956   7.297   4.973
  879SOL     OW 4643   2.773   8.676   7.322
  879SOL    HW1 4644   2.869  19.722   7.325
  879SOL    HW2 4645  24.829   8.627   7.401
  880SOL     OW 4646   5.287   7.549   4.345
  880SOL    HW1 4647  -5.757   7.531   4.439
  880SOL    HW2 4648  16.238   7.579  -6.718
  881SOL     OW 4649   3.888   5.063   6.323
  881SOL    HW1 4650  -7.188   5.113   6.395
  881SOL    HW2 4651   3.981   5.055   6.344
  882SOL     OW 4652   1.975   6.807   6.602
  882SOL    HW1 4653  -9.123   6.839  17.572
  882SOL    HW2 4654   2.018   6.731   6.564
  883SOL     OW 4655  10.337  11.597   3.010
  883SOL    HW1 4656  10.316   0.474   3.053
  883SOL    HW2 4657 -22.866  11.629   2.978
  884SOL     OW 4658   2.857   9.909  10.553
  884SOL    HW1 4659   2.891  20.971  10.639
  884SOL    HW2 4660  35.882   9.927  -0.481
  885SOL     OW 4661   3.780   4.216   2.233
  885SOL    HW1 4662   3.789   4.127  -8.839
  885SOL    HW2 4663   3.832  26.297  -8.726
  886SOL     OW 4664   4.235   8.790   2.592
  886SOL    HW1 4665   4.152   8.801  13.584
  886SOL    HW2 4666  15.282  19.910   2.644
  887SOL     OW 4667   1.174   4.498   4.439
  887SOL    HW1 4668  12.143   4.488   4.504
  887SOL    HW2 4669   1.135   4.551   4.370
  888SOL     OW 4670  10.771   0.713   9.265
  888SOL    HW1 4671  10.797   0.778   9.199
  888SOL    HW2 4672  10.675   0.718   9.267
  889SOL     OW 4673   3.739   4.593   0.686
  889SOL    HW1 4674   3.651   4.553   0.688
  889SOL    HW2 4675  47.899 -17.435   0.605
  890SOL     OW 4676   5.604   6.522   0.161
  890SOL    HW1 4677   5.601  17.657   0.166
  890SOL    HW2 4678   5.589  -4.537   0.068
  891SOL     OW 4679  11.187  11.076   5.266
  891SOL    HW1 4680   0.102  -0.048   5.264
  891SOL    HW2 4681  11.219  11.084  38.475
  892SOL     OW 4682   9.521   7.729   4.868
  892SOL    HW1 4683  -1.533  18.782 -17.118
  892SOL    HW2 4684   9.580   7.800   4.842
  893SOL     OW 4685  -0.395   4.477   1.565
  893SOL    HW1 4686  -0.372  15.474   1.483
  893SOL    HW2 4687  10.621   4.567   1.540
  894SOL     OW 4688   3.469  10.232   5.942
  894SOL    HW1 4689 -18.545  10.258   6.007
  894SOL    HW2 4690 -29.697 -22.959  -5.057
  895SOL     OW 4691   3.126   5.706   4.223
  895SOL    HW1 4692  25.147   5.668  15.329
  895SOL    HW2 4693   3.190   5.757   4.274
  896SOL     OW 4694   1.122   3.889  12.095
  896SOL    HW1 4695   1.121   3.845   0.971
  896SOL    HW2 4696   1.091   3.977   1.038
  897SOL     OW 4697   1.748   0.655   6.742
  897SOL    HW1 4698  12.766  33.852  17.832
  897SOL    HW2 4699 -20.247   0.674   6.701
  898SOL     OW 4700   8.357   8.433   2.691
  898SOL    HW1 4701  19.405   8.368   2.622
  898SOL    HW2 4702   8.336   8.514   2.645
  899SOL     OW 4703   5.227   0.086   7.354
  899SOL    HW1 4704   5.289   0.020  -3.717
  899SOL    HW2 4705   5.243   0.091  18.488
  900SOL     OW 4706   7.420   9.600   5.072
  900SOL    HW1 4707  18.540   9.558  16.141
  900SOL    HW2 4708  -3.680   9.527   5.058
  901SOL     OW 4709   9.207   6.825  10.480
  901SOL    HW1 4710   9.133   6.777  -0.597
  901SOL    HW2 4711  -1.822  17.828  10.568
  902SOL     OW 4712   5.715   2.214   5.090
  902SOL    HW1 4713   5.811  13.250  16.132
  902SOL    HW2 4714 -16.388   2.280   5.155
  903SOL     OW 4715  11.096   8.623   5.054
  903SOL    HW1 4716   0.124   8.600   4.991
  903SOL    HW2 4717  11.138   8.684   5.115
  904SOL     OW 4718   9.533   3.196   3.390
  904SOL    HW1 4719   9.461   3.183  14.368
  904SOL    HW2 4720  -1.545   3.178   3.476
  905SOL     OW 4721   2.383   4.814   4.831
  905SOL    HW1 4722   2.319   4.823   4.902
  905SOL    HW2 4723   2.332   4.818   4.751
  906SOL     OW 4724  10.030  10.373   2.803
  906SOL    HW1 4725  10.041  10.364   2.708
  906SOL    HW2 4726  -0.940  10.434   2.829
  907SOL     OW 4727   1.075   0.356   0.410
  907SOL    HW1 4728  -9.944   0.387   0.322
  907SOL    HW2 4729   1.135   0.404   0.467
  908SOL     OW 4730   5.700   6.887   2.699
  908SOL    HW1 4731  27.872  -4.170   2.712
  908SOL    HW2 4732  27.744   6.901  -8.253
  909SOL     OW 4733   1.007   3.887   1.893
  909SOL    HW1 4734 -10.078   3.910  24.053
  909SOL    HW2 4735   0.941  14.879  12.881
  910SOL     OW 4736   1.813   8.853   1.451
  910SOL    HW1 4737   1.907   8.846   1.434
  910SOL    HW2 4738   1.779   8.904   1.378
  911SOL     OW 4739   2.281   4.400   2.376
  911SOL    HW1 4740   2.370  -6.669  -8.641
  911SOL    HW2 4741  13.267   4.372 -19.629
  912SOL     OW 4742   3.686  10.567   9.457
  912SOL    HW1 4743  14.706  10.564   9.363
  912SOL    HW2 4744   3.650  10.651   9.486
  913SOL     OW 4745   4.508   9.405  -0.501
  913SOL    HW1 4746   4.603   9.416  10.535
  913SOL    HW2 4747   4.474  -1.545  -0.491
  914SOL     OW 4748   8.512   3.826   1.966
  914SOL    HW1 4749   8.445 -18.223   2.027
  914SOL    HW2 4750   8.569   3.902  -9.085
  915SOL     OW 4751   5.599   3.853   3.607
  915SOL    HW1 4752   5.507 -18.240   3.627
  915SOL    HW2 4753   5.627  -7.268   3.565
  916SOL     OW 4754   2.522   7.346  -0.142
  916SOL    HW1 4755  -8.431   7.364  -0.179
  916SOL    HW2 4756   2.478   7.293  10.832
  917SOL     OW 4757   4.298   8.605   1.481
  917SOL    HW1 4758   4.393   8.602   1.469
  917SOL    HW2 4759   4.272   8.688  12.480
  918SOL     OW 4760   3.253   3.146   4.055
  918SOL    HW1 4761   3.208  14.253  26.184
  918SOL    HW2 4762   3.193   3.125  15.023
  919SOL     OW 4763   7.657  10.144   9.693
  919SOL    HW1 4764   7.615  10.066 -12.349
  919SOL    HW2 4765   7.625  21.256   9.747
  920SOL     OW 4766  12.927   0.643   2.882
  920SOL    HW1 4767 -20.274   0.594   2.885
  920SOL    HW2 4768 -42.219   0.599   2.814
  921SOL     OW 4769   0.181   5.046   1.662
  921SOL    HW1 4770  22.211   5.111  12.752
  921SOL    HW2 4771   0.132  16.004   1.674
  922SOL     OW 4772   4.721  10.879   9.177
  922SOL    HW1 4773   4.696  10.904   9.088
  922SOL    HW2 4774   4.815  10.863   9.172
  923SOL     OW 4775  10.898   5.524   4.369
  923SOL    HW1 4776  -0.130  -5.508   4.274
  923SOL    HW2 4777  -0.170   5.434  26.462
  924SOL     OW 4778   5.017   7.006   7.036
  924SOL    HW1 4779  -5.954   7.061  18.038
  924SOL    HW2 4780   4.957   7.068   7.078
  925SOL     OW 4781  10.621  11.115   2.420
  925SOL    HW1 4782  10.664  11.058   2.485
  925SOL    HW2 4783  10.544   0.026 -19.687
  926SOL     OW 4784   7.501   3.258  -0.580
  926SOL    HW1 4785   7.545   3.305  21.571
  926SOL    HW2 4786   7.411  -7.749  -0.577
  927SOL     OW 4787   5.322  10.093   2.225
  927SOL    HW1 4788   5.284  10.177   2.252
  927SOL    HW2 4789  27.367  10.079   2.137
  928SOL     OW 4790   1.614   1.158  10.906
  928SOL    HW1 4791  23.629   1.144  10.977
  928SOL    HW2 4792  34.780  -9.964 -22.219
  929SOL     OW 4793   3.070   3.369  14.734
  929SOL    HW1 4794  -7.916   3.395 -18.310
  929SOL    HW2 4795   3.110  36.530 -18.459
  930SOL     OW 4796   7.373   5.122   9.436
  930SOL    HW1 4797   7.306   5.083   9.380
  930SOL    HW2 4798   7.441   5.152   9.376
  931SOL     OW 4799   5.840   7.167   9.503
  931SOL    HW1 4800   5.896   7.126 -12.642
  931SOL    HW2 4801   5.898  -3.862   9.579
  932SOL     OW 4802   4.781   2.280   2.439
  932SOL    HW1 4803   4.834   2.345   2.484
  932SOL    HW2 4804   4.843   2.213   2.409
  933SOL     OW 4805   2.437   4.664   7.539
  933SOL    HW1 4806  13.564   4.626   7.533
  933SOL    HW2 4807  -8.661  37.709   7.522
  934SOL     OW 4808   4.124   5.328   0.152
  934SOL    HW1 4809   4.143  27.315  22.248
  934SOL    HW2 4810   4.170  -5.665   0.222
  935SOL     OW 4811   7.314   6.000   2.005
  935SOL    HW1 4812  -3.633   5.991  46.184
  935SOL    HW2 4813   7.310   5.988  12.950
  936SOL     OW 4814   8.667   3.262   9.682
  936SOL    HW1 4815  -2.334   3.339  20.680
  936SOL    HW2 4816  19.625   3.248   9.634
  937SOL     OW 4817   6.812   3.138   0.792
  937SOL    HW1 4818   6.894   3.161   0.746
  937SOL    HW2 4819   6.766   3.221  11.841
  938SOL     OW 4820  10.760   6.045   7.288
  938SOL    HW1 4821  10.716   6.097   7.355
  938SOL    HW2 4822  -0.348   6.027  -3.816
  939SOL     OW 4823   3.575  -0.452   6.031
  939SOL    HW1 4824   3.595  10.618   5.942
  939SOL    HW2 4825   3.607  -0.542   6.033
  940SOL     OW 4826  10.973   6.553   6.425
  940SOL    HW1 4827 -22.058   6.571   6.393
  940SOL    HW2 4828  21.959  17.587  28.425
  941SOL     OW 4829   7.622   6.408   8.783
  941SOL    HW1 4830  -3.474 -26.635   8.771
  941SOL    HW2 4831 -14.381   6.425  -2.312
  942SOL     OW 4832  11.089   9.791   5.100
  942SOL    HW1 4833   0.123   9.798   5.038
  942SOL    HW2 4834  11.088  -1.164   5.146
  943SOL     OW 4835   3.731   6.180   7.571
  943SOL    HW1 4836  -7.309  17.130   7.605
  943SOL    HW2 4837   3.640  17.237  -3.492
  944SOL     OW 4838   8.181   8.125   0.565
  944SOL    HW1 4839   8.157 -25.023   0.653
  944SOL    HW2 4840   8.275   8.107  11.598
  945SOL     OW 4841   3.296   6.906   9.455
  945SOL    HW1 4842 -18.716   6.870   9.396
  945SOL    HW2 4843   3.245  18.004   9.399
  946SOL     OW 4844   9.997   4.064   1.716
  946SOL    HW1 4845   9.934   3.994   1.696
  946SOL    HW2 4846   9.987   4.126  23.723
  947SOL     OW 4847   6.566   1.574   4.197
  947SOL    HW1 4848   6.511   1.652   4.196
  947SOL    HW2 4849   6.507 -20.575   4.225
  948SOL     OW 4850   5.370   4.636   8.826
  948SOL    HW1 4851   5.323 -17.486   8.755
  948SOL    HW2 4852   5.385   4.566   8.890
  949SOL     OW 4853   4.382   0.049  -0.644
  949SOL    HW1 4854  26.433  11.052  21.519
  949SOL    HW2 4855  15.462 -10.906  -0.620
  950SOL     OW 4856  10.451   5.149  10.563
  950SOL    HW1 4857  -0.493   5.160  10.564
  950SOL    HW2 4858  10.438   5.063  10.523
  951SOL     OW 4859   7.839   8.381   2.840
  951SOL    HW1 4860   7.777   8.342   2.779
  951SOL    HW2 4861   7.871  30.387   2.893
  952SOL     OW 4862   6.144   2.434   1.400
  952SOL    HW1 4863   6.178   2.455   1.313
  952SOL    HW2 4864  17.091   2.415   1.386
  953SOL     OW 4865  11.340   8.249   3.381
  953SOL    HW1 4866   0.355   8.269   3.457
  953SOL    HW2 4867  11.355   8.156   3.365
  954SOL     OW 4868   7.349   8.167   1.514
  954SOL    HW1 4869  -3.601   8.194   1.492
  954SOL    HW2 4870   7.318   8.121   1.437
  955SOL     OW 4871  -0.503   2.161   3.508
  955SOL    HW1 4872  10.477 -19.876   3.568
  955SOL    HW2 4873  -0.507  13.107   3.530
  956SOL     OW 4874   3.514   4.945   8.165
  956SOL    HW1 4875   3.592   5.001   8.163
  956SOL    HW2 4876  14.484   5.000   8.130
  957SOL     OW 4877   1.122   8.472   4.462
  957SOL    HW1 4878   1.082   8.540  -6.631
  957SOL    HW2 4879  12.183  -2.638   4.401
  958SOL     OW 4880  11.767   1.965  11.878
  958SOL    HW1 4881  11.728   1.887 -10.240
  958SOL    HW2 4882 -10.338   1.962  11.970
  959SOL     OW 4883   1.065   5.658   6.025
  959SOL    HW1 4884  12.098  27.645   6.049
  959SOL    HW2 4885  23.208   5.694  -4.953
  960SOL     OW 4886  -0.588  10.355   9.843
  960SOL    HW1 4887  10.416  -0.713   9.759
  960SOL    HW2 4888  -0.521  -0.620  -1.220
  961SOL     OW 4889   2.776   9.712   4.617
  961SOL    HW1 4890   2.686 -12.380   4.588
  961SOL    HW2 4891  13.808   9.759   4.700
  962SOL     OW 4892  10.802   3.340   7.523
  962SOL    HW1 4893  10.771   3.363   7.611
  962SOL    HW2 4894  10.796  -7.795   7.520
  963SOL     OW 4895   5.071   9.920   5.382
  963SOL    HW1 4896  27.158   9.958   5.469
  963SOL    HW2 4897  -5.908   9.846   5.382
  964SOL     OW 4898   6.028   4.807   8.647
  964SOL    HW1 4899  28.122  48.966   8.552
  964SOL    HW2 4900   5.940   4.844  30.737
  965SOL     OW 4901   8.287   5.631   6.215
  965SOL    HW1 4902  -2.783   5.562  -4.765
  965SOL    HW2 4903  19.265 -16.451   6.142
  966SOL     OW 4904   3.597   7.672   1.562
  966SOL    HW1 4905   3.627 -14.497   1.556
  966SOL    HW2 4906  -7.417   7.712   1.478
  967SOL     OW 4907   2.498   2.577  10.635
  967SOL    HW1 4908  -8.599   2.528  10.576
  967SOL    HW2 4909  24.516 -19.456  10.693
  968SOL     OW 4910   5.842   5.891  10.513
  968SOL    HW1 4911  27.955   5.977 -33.670
  968SOL    HW2 4912   5.772   5.873  10.450
  969SOL     OW 4913   8.438   7.312   5.324
  969SOL    HW1 4914  30.506  18.266   5.367
  969SOL    HW2 4915  19.421  62.505  16.286
  970SOL     OW 4916   2.939   4.733   2.984
  970SOL    HW1 4917   2.892   4.703   3.062
  970SOL    HW2 4918  -8.141   4.816   2.962
  971SOL     OW 4919   7.638  10.063   2.868
  971SOL    HW1 4920   7.726  10.099   2.857
  971SOL    HW2 4921   7.585  -0.901   2.896
  972SOL     OW 4922   5.234   3.935   8.168
  972SOL    HW1 4923   5.199  14.906   8.111
  972SOL    HW2 4924   5.168   3.944  -2.802
  973SOL     OW 4925   7.917   8.691   5.675
  973SOL    HW1 4926   7.999  -2.395   5.693
  973SOL    HW2 4927   7.849  -2.415 -16.391
  974SOL     OW 4928   0.850   3.705   2.143
  974SOL    HW1 4929   0.764 -29.450   2.161
  974SOL    HW2 4930 -10.181   3.778 -19.874
  975SOL     OW 4931  -0.777   5.961   2.796
  975SOL    HW1 4932  21.262  27.953   2.788
  975SOL    HW2 4933  10.342  16.995  24.824
  976SOL     OW 4934   9.076   1.905   9.211
  976SOL    HW1 4935  20.076   1.820  20.235
  976SOL    HW2 4936  -1.974  -9.088   9.128
  977SOL     OW 4937   7.889   1.602   6.757
  977SOL    HW1 4938   7.809  12.694  17.795
  977SOL    HW2 4939   7.859   1.513  39.894
  978SOL     OW 4940  11.456   5.078   6.091
  978SOL    HW1 4941  11.382   5.059   6.034
  978SOL    HW2 4942   0.449   5.163   6.062
  979SOL     OW 4943   8.797   6.467   2.241
  979SOL    HW1 4944  -2.274   6.524 -30.949
  979SOL    HW2 4945   8.743   6.492  13.356
  980SOL     OW 4946   4.877   2.178   4.924
  980SOL    HW1 4947   4.868   2.215   4.836
  980SOL    HW2 4948   4.937 -19.975   4.913
  981SOL     OW 4949   6.206   4.097   6.148
  981SOL    HW1 4950  17.286   4.033   6.089
  981SOL    HW2 4951  28.334  -6.861  17.172
  982SOL     OW 4952   2.636   5.246   9.406
  982SOL    HW1 4953 -19.474   5.325   9.451
  982SOL    HW2 4954   2.611  -5.780   9.315
  983SOL     OW 4955   4.378   2.481   1.560
  983SOL    HW1 4956  -6.614   2.454 -20.440
  983SOL    HW2 4957   4.440   2.534   1.511
  984SOL     OW 4958   8.805   9.506   3.276
  984SOL    HW1 4959   8.849   9.538  -7.685
  984SOL    HW2 4960   8.853   9.427  -7.788
  985SOL     OW 4961   2.065   1.181   8.334
  985SOL    HW1 4962   2.109   1.224   8.408
  985SOL    HW2 4963   2.043  -9.786  19.315
  986SOL     OW 4964   8.322   3.222   3.365
  986SOL    HW1 4965   8.282   3.174   3.437
  986SOL    HW2 4966   8.366   3.296   3.407
  987SOL     OW 4967  10.651   0.070   0.925
  987SOL    HW1 4968  10.654  -0.025   0.936
  987SOL    HW2 4969  10.710  22.166   0.851
  988SOL     OW 4970   7.400   1.793   5.119
  988SOL    HW1 4971   7.440   1.877   5.139
  988SOL    HW2 4972   7.375   1.799   5.027
  989SOL     OW 4973   0.386   1.169   5.632
  989SOL    HW1 4974   0.296   1.163  16.640
  989SOL    HW2 4975   0.436  12.233   5.554
  990SOL     OW 4976   1.620   6.715   9.418
  990SOL    HW1 4977   1.616   6.691 -23.793
  990SOL    HW2 4978   1.560   6.655   9.461
  991SOL     OW 4979  10.047   2.017   5.440
  991SOL    HW1 4980  10.128   2.004  27.469
  991SOL    HW2 4981  21.027   2.061   5.379
  992SOL     OW 4982   0.230  10.337   7.432
  992SOL    HW1 4983  11.185  10.325   7.476
  992SOL    HW2 4984   0.293  10.346   7.504
  993SOL     OW 4985   8.273   8.313   5.288
  993SOL    HW1 4986   8.232   8.310   5.202
  993SOL    HW2 4987   8.247  -2.808   5.330
  994SOL     OW 4988   5.271   8.242   5.068
  994SOL    HW1 4989  -5.762   8.337   5.060
  994SOL    HW2 4990   5.347   8.208   5.022
  995SOL     OW 4991   6.572   4.301   4.404
  995SOL    HW1 4992  -4.374 -17.757   4.407
  995SOL    HW2 4993   6.549  15.349   4.311
  996SOL     OW 4994   5.578   6.825   7.886
  996SOL    HW1 4995   5.603   6.738   7.854
  996SOL    HW2 4996   5.500   6.848  -3.204
  997SOL     OW 4997  10.391   1.607   9.205
  997SOL    HW1 4998  10.394   1.621  31.189
  997SOL    HW2 4999  10.473   1.645 -12.842
  998SOL     OW 5000   8.307   3.524   4.884
  998SOL    HW1 5001 -13.706  -7.474  27.019
  998SOL    HW2 5002   8.263  -7.578   4.942
  999SOL     OW 5003  10.228   4.303   4.720
  999SOL    HW1 5004  10.271   4.328  15.841
  999SOL    HW2 5005  10.265   4.218   4.697
 1000SOL     OW 5006   5.337   3.279   5.340
 1000SOL    HW1 5007  27.486   3.293 -16.804
 1000SOL    HW2 5008   5.375  14.259   5.404
 1001SOL     OW 5009   2.859  10.259   6.983
 1001SOL    HW1 5010   2.902  10.322   6.925
 1001SOL    HW2 5011   2.768  10.288  -4.053
 1002SOL     OW 5012   2.586   7.112   9.002
 1002SOL    HW1 5013 -30.599  18.084  20.033
 1002SOL    HW2 5014   2.543 -14.897   9.052
 1003SOL     OW 5015   3.685   2.132   6.688
 1003SOL    HW1 5016   3.625  13.232   6.645
 1003SOL    HW2 5017   3.665   2.141 -15.298
 1004SOL     OW 5018   0.739   7.092   9.625
 1004SOL    HW1 5019   0.806 -14.967  31.640
 1004SOL    HW2 5020   0.661   7.139   9.594
 1005SOL     OW 5021   0.213   4.714   5.395
 1005SOL    HW1 5022   0.254   4.680  -5.724
 1005SOL    HW2 5023   0.124   4.737 -27.752
 1006SOL     OW 5024   5.194   6.376   8.336
 1006SOL    HW1 5025   5.186  -4.758   8.324
 1006SOL    HW2 5026   5.106   6.410  19.358
 1007SOL     OW 5027   7.819   3.868   9.455
 1007SOL    HW1 5028   7.811   3.834  20.584
 1007SOL    HW2 5029   7.910 -18.229   9.431
 1008SOL     OW 5030   1.428   1.474  -1.229
 1008SOL    HW1 5031   1.499   1.410  20.852
 1008SOL    HW2 5032   1.445   1.531  -1.154
 1009SOL     OW 5033   0.268   4.796   5.666
 1009SOL    HW1 5034   0.255   4.772  -5.465
 1009SOL    HW2 5035  33.413   4.714   5.709
 1010SOL     OW 5036   9.822   5.719   0.666
 1010SOL    HW1 5037  -1.188   5.717 -10.465
 1010SOL    HW2 5038   9.853   5.637   0.703
 1011SOL     OW 5039   9.546  10.132   8.883
 1011SOL    HW1 5040   9.530  10.118  20.016
 1011SOL    HW2 5041   9.642  21.180   8.876
 1012SOL     OW 5042   2.952   9.180   1.173
 1012SOL    HW1 5043   2.867   9.201   1.212
 1012SOL    HW2 5044   2.935   9.106   1.115
 1013SOL     OW 5045   2.342   4.489   0.617
 1013SOL    HW1 5046   2.398   4.450   0.550
 1013SOL    HW2 5047  -8.664  15.618   0.627
 1014SOL     OW 5048   8.100   3.645   5.945
 1014SOL    HW1 5049  30.160  25.630   5.936
 1014SOL    HW2 5050   8.139   3.669   5.861
 1015SOL     OW 5051   9.402   8.331   3.322
 1015SOL    HW1 5052   9.377  30.384  -7.806
 1015SOL    HW2 5053   9.318   8.344   3.367
 1016SOL     OW 5054   5.246  10.467   4.733
 1016SOL    HW1 5055   5.267  10.551 -28.346
 1016SOL    HW2 5056   5.226  10.410   4.808
 1017SOL     OW 5057  10.995   6.830   3.353
 1017SOL    HW1 5058 -33.145  17.946   3.298
 1017SOL    HW2 5059  11.014   6.860   3.442
 1018SOL     OW 5060  11.003   8.792   8.948
 1018SOL    HW1 5061  -0.081   8.856   9.004
 1018SOL    HW2 5062  11.096  -2.230  20.000
 1019SOL     OW 5063  11.244  -0.924   0.836
 1019SOL    HW1 5064   0.282  21.208   0.854
 1019SOL    HW2 5065  11.255  -1.002   0.891
 1020SOL     OW 5066   9.087   6.940  10.143
 1020SOL    HW1 5067   9.163   6.889  10.115
 1020SOL    HW2 5068  20.107 -15.083  10.068
 1021SOL     OW 5069  10.138   6.554   3.327
 1021SOL    HW1 5070  10.049 -15.553  -7.690
 1021SOL    HW2 5071  10.194   6.504   3.386
 1022SOL     OW 5072   2.717   8.516   4.701
 1022SOL    HW1 5073   2.657 -13.505   4.748
 1022SOL    HW2 5074   2.779  19.526   4.767
 1023SOL     OW 5075  10.746  14.365   3.360
 1023SOL    HW1 5076  10.745 -18.670   3.405
 1023SOL    HW2 5077  10.722 -18.734   3.270
 1024SOL     OW 5078   4.893  10.186   7.602
 1024SOL    HW1 5079  15.981  10.257  18.599
 1024SOL    HW2 5080  15.970  10.181   7.690
 1025SOL     OW 5081   0.976   2.490   1.574
 1025SOL    HW1 5082   1.035   2.417  23.635
 1025SOL    HW2 5083   0.916   2.491   1.500
 1026SOL     OW 5084   2.400   4.692   8.027
 1026SOL    HW1 5085   2.436   4.781   8.028
 1026SOL    HW2 5086   2.477   4.635 -14.049
 1027SOL     OW 5087   6.523   3.587   1.618
 1027SOL    HW1 5088  -4.528   3.681  12.667
 1027SOL    HW2 5089   6.435  -7.487   1.606
 1028SOL     OW 5090  10.708   5.688  10.255
 1028SOL    HW1 5091  -0.412  16.679  21.314
 1028SOL    HW2 5092  10.677  -5.263  10.234
 1029SOL     OW 5093   5.261   3.215   3.747
 1029SOL    HW1 5094   5.303   3.217   3.661
 1029SOL    HW2 5095   5.237  -7.733   3.763
 1030SOL     OW 5096   9.565  10.615   6.362
 1030SOL    HW1 5097   9.607  10.644   6.443
 1030SOL    HW2 5098   9.472  10.635   6.376
 1031SOL     OW 5099   2.617   4.646  10.361
 1031SOL    HW1 5100   2.667   4.572  21.435
 1031SOL    HW2 5101   2.535   4.646  10.410
 1032SOL     OW 5102   7.150   0.249   3.894
 1032SOL    HW1 5103  40.224   0.171   3.925
 1032SOL    HW2 5104  18.283   0.227   3.897
 1033SOL     OW 5105  10.228  10.694   3.717
 1033SOL    HW1 5106  21.304  10.611   3.686
 1033SOL    HW2 5107  10.282  10.761   3.676
 1034SOL     OW 5108   3.039  10.420   9.600
 1034SOL    HW1 5109   3.084  -0.601   9.518
 1034SOL    HW2 5110 -19.034 -11.577   9.649
 1035SOL     OW 5111  10.621   0.850   5.442
 1035SOL    HW1 5112  21.688   0.931   5.400
 1035SOL    HW2 5113  -0.494   0.874   5.495
 1036SOL     OW 5114  10.298   1.994   5.317
 1036SOL    HW1 5115  10.374  12.999   5.363
 1036SOL    HW2 5116  10.335   2.048   5.247
 1037SOL     OW 5117   4.322   8.717  10.675
 1037SOL    HW1 5118  15.378   8.717  10.769
 1037SOL    HW2 5119  37.515   8.669  -0.402
 1038SOL     OW 5120   7.397   3.189   9.974
 1038SOL    HW1 5121   7.370   3.131   9.903
 1038SOL    HW2 5122   7.462  -7.793  20.974
 1039SOL     OW 5123   8.237   2.325   6.451
 1039SOL    HW1 5124   8.282   2.253  -4.545
 1039SOL    HW2 5125  19.343  -8.677  -4.647
 1040SOL     OW 5126   7.698   1.376   9.331
 1040SOL    HW1 5127   7.661   1.429   9.260
 1040SOL    HW2 5128  -3.257  23.425   9.296
 1041SOL     OW 5129  11.543  10.386   3.069
 1041SOL    HW1 5130   0.539  10.475   3.073
 1041SOL    HW2 5131  11.448  10.398   3.065
 1042SOL     OW 5132   9.690   9.074   1.030
 1042SOL    HW1 5133   9.604   9.086   0.988
 1042SOL    HW2 5134  -1.367   9.013   1.101
 1043SOL     OW 5135   2.255   6.257   4.014
 1043SOL    HW1 5136   2.349   6.262  -7.007
 1043SOL    HW2 5137   2.236  28.242   4.013
 1044SOL     OW 5138   5.689   6.902   0.591
 1044SOL    HW1 5139   5.602  28.956   0.560
 1044SOL    HW2 5140  16.740   6.854   0.672
 1045SOL     OW 5141   8.176   3.310   4.716
 1045SOL    HW1 5142   8.236   3.381   4.740
 1045SOL    HW2 5143   8.206   3.235   4.767
 1046SOL     OW 5144   3.928  10.467   3.861
 1046SOL    HW1 5145   3.901  10.537   3.921
 1046SOL    HW2 5146   3.942  10.511   3.778
 1047SOL     OW 5147   1.117   4.142   4.671
 1047SOL    HW1 5148  12.171   4.059   4.716
 1047SOL    HW2 5149   1.115 -17.871  -6.299
 1048SOL     OW 5150   8.140  -0.562   8.620
 1048SOL    HW1 5151  -2.967  -0.496   8.603
 1048SOL    HW2 5152   8.189  10.513  -2.345
 1049SOL     OW 5153  11.996   4.348   0.533
 1049SOL    HW1 5154   1.027   4.337   0.597
 1049SOL    HW2 5155   0.961  15.310   0.478
 1050SOL     OW 5156   9.901   9.891   3.962
 1050SOL    HW1 5157   9.981   9.909   4.012
 1050SOL    HW2 5158   9.830   9.919  -7.019
 1051SOL     OW 5159  10.405   9.594   2.737
 1051SOL    HW1 5160  10.413   9.684  -8.271
 1051SOL    HW2 5161  10.490   9.554  13.796
 1052SOL     OW 5162   6.602   7.320   7.008
 1052SOL    HW1 5163   6.656   7.333  29.165
 1052SOL    HW2 5164   6.538   7.253   7.033
 1053SOL     OW 5165   1.943   5.329  10.416
 1053SOL    HW1 5166   1.910   5.414  21.484
 1053SOL    HW2 5167  13.077  -5.705  10.426
 1054SOL     OW 5168   9.144   8.859   1.613
 1054SOL    HW1 5169   9.104  -2.259   1.577
 1054SOL    HW2 5170   9.215  -2.213   1.669
 1055SOL     OW 5171   8.328   5.224   9.783
 1055SOL    HW1 5172   8.267  16.204   9.826
 1055SOL    HW2 5173   8.414  16.223  20.836
 1056SOL     OW 5174   5.382  11.969   8.168
 1056SOL    HW1 5175   5.426 -10.032 -13.945
 1056SOL    HW2 5176   5.329  12.002   8.242
 1057SOL     OW 5177   4.125   3.501   8.830
 1057SOL    HW1 5178   4.152 -29.591   8.743
 1057SOL    HW2 5179  15.157   3.406  -2.214
 1058SOL     OW 5180   9.406   5.631   7.848
 1058SOL    HW1 5181   9.319   5.624 -14.191
 1058SOL    HW2 5182   9.455   5.687   7.909
 1059SOL     OW 5183   6.255   9.577  10.044
 1059SOL    HW1 5184   6.325   9.559  -1.058
 1059SOL    HW2 5185   6.178   9.533  10.008
 1060SOL     OW 5186   1.543   2.334   6.560
 1060SOL    HW1 5187   1.594   2.393   6.505
 1060SOL    HW2 5188  12.638   2.318   6.636
 1061SOL     OW 5189   3.774   6.799  10.840
 1061SOL    HW1 5190   3.834  -4.201  10.777
 1061SOL    HW2 5191   3.720  -4.300  10.788
 1062SOL     OW 5192   7.408   8.225   4.020
 1062SOL    HW1 5193  18.382   8.213   4.088
 1062SOL    HW2 5194   7.384   8.308  15.018
 1063SOL     OW 5195   4.762   8.228   3.425
 1063SOL    HW1 5196  15.874   8.217   3.487
 1063SOL    HW2 5197   4.761   8.147  25.454
 1064SOL     OW 5198   4.580   2.452   8.154
 1064SOL    HW1 5199   4.550   2.476  19.106
 1064SOL    HW2 5200   4.525   2.377  30.257
 1065SOL     OW 5201   7.063   2.680   6.687
 1065SOL    HW1 5202   7.001 -19.337   6.725
 1065SOL    HW2 5203   7.087   2.622   6.759
 1066SOL     OW 5204   6.921   2.505   8.957
 1066SOL    HW1 5205   6.852   2.569  20.015
 1066SOL    HW2 5206   6.951   2.477   9.043
 1067SOL     OW 5207   0.042   4.019   8.085
 1067SOL    HW1 5208   0.016   4.064   8.166
 1067SOL    HW2 5209  10.999  -7.042  19.082
 1068SOL     OW 5210   4.122   8.065   0.330
 1068SOL    HW1 5211  -6.965   8.112   0.262
 1068SOL    HW2 5212   4.121 -36.033   0.405
 1069SOL     OW 5213   5.733   9.684   3.577
 1069SOL    HW1 5214   5.744  20.791  -7.529
 1069SOL    HW2 5215   5.816   9.635  14.615
 1070SOL     OW 5216  10.586   4.974   6.941
 1070SOL    HW1 5217  10.527   4.976   7.016
 1070SOL    HW2 5218  10.608   5.066   6.925
 1071SOL     OW 5219   9.730   9.336   4.662
 1071SOL    HW1 5220   9.698   9.291   4.584
 1071SOL    HW2 5221 -12.371   9.277   4.734
 1072SOL     OW 5222   2.438  11.194   4.470
 1072SOL    HW1 5223   2.371 -10.856   4.408
 1072SOL    HW2 5224  13.429  11.172   4.549
 1073SOL     OW 5225   5.453   4.419   8.999
 1073SOL    HW1 5226   5.451  -6.569   9.080
 1073SOL    HW2 5227   5.522   4.354  31.093
 1074SOL     OW 5228   4.960   6.686   1.775
 1074SOL    HW1 5229   5.003   6.770   1.757
 1074SOL    HW2 5230   5.001   6.625   1.714
 1075SOL     OW 5231   2.260   4.841   9.208
 1075SOL    HW1 5232  -8.726  -6.278   9.217
 1075SOL    HW2 5233   2.198   4.820  -1.902
 1076SOL     OW 5234  10.805   5.763   4.984
 1076SOL    HW1 5235 -11.271   5.785 -28.228
 1076SOL    HW2 5236 -11.269   5.667   4.986
 1077SOL     OW 5237   4.533   3.830   1.852
 1077SOL    HW1 5238   4.484  25.983 -20.263
 1077SOL    HW2 5239  -6.568   3.757   1.848
 1078SOL     OW 5240  10.915   0.068   9.569
 1078SOL    HW1 5241  -0.172  11.184  20.640
 1078SOL    HW2 5242  -0.046   0.064   9.624
 1079SOL     OW 5243   3.003   8.492   7.183
 1079SOL    HW1 5244   3.043   8.540   7.256
 1079SOL    HW2 5245   3.051  19.560  18.145
 1080SOL     OW 5246   2.877   6.238   1.396
 1080SOL    HW1 5247   2.888  17.371   1.376
 1080SOL    HW2 5248   2.962  -4.840   1.379
 1081SOL     OW 5249  14.699   0.315   7.621
 1081SOL    HW1 5250 -29.525  11.393   7.563
 1081SOL    HW2 5251 -29.500  11.274   7.653
 1082SOL     OW 5252   9.067   6.878   9.490
 1082SOL    HW1 5253   9.057   6.961   9.537
 1082SOL    HW2 5254   9.157   6.851   9.509
 1083SOL     OW 5255   6.397   5.449   9.041
 1083SOL    HW1 5256   6.341   5.375   9.062
 1083SOL    HW2 5257   6.338   5.514   9.003
 1084SOL     OW 5258   7.221   9.733   8.350
 1084SOL    HW1 5259   7.309   9.766 -13.746
 1084SOL    HW2 5260   7.166  20.817   8.285
 1085SOL     OW 5261   3.340   2.822   2.955
 1085SOL    HW1 5262 -18.731  13.953   2.983
 1085SOL    HW2 5263 -18.738  13.865   2.860
 1086SOL     OW 5264   3.600   0.163  10.552
 1086SOL    HW1 5265   3.622   0.090  10.610
 1086SOL    HW2 5266   3.647   0.144  10.471
 1087SOL     OW 5267  10.391   6.285   7.493
 1087SOL    HW1 5268  10.459  17.258   7.505
 1087SOL    HW2 5269  10.326   6.243   7.436
 1088SOL     OW 5270  -0.272   6.426   7.699
 1088SOL    HW1 5271  10.843   6.422  18.797
 1088SOL    HW2 5272  -0.346   6.444   7.757
 1089SOL     OW 5273  -0.089   0.565   0.264
 1089SOL    HW1 5274  10.942   0.650   0.221
 1089SOL    HW2 5275  -0.092   0.501   0.193
 1090SOL     OW 5276   7.654   7.833   8.137
 1090SOL    HW1 5277   7.734   7.821  -2.954
 1090SOL    HW2 5278   7.583   7.825   8.073
 1091SOL     OW 5279  -1.652   1.032   6.629
 1091SOL    HW1 5280  -1.699  12.019   6.565
 1091SOL    HW2 5281  31.399  23.146 -26.432
 1092SOL     OW 5282   4.230   9.400   4.649
 1092SOL    HW1 5283 -17.803   9.318 -17.412
 1092SOL    HW2 5284   4.292   9.468   4.674
 1093SOL     OW 5285   4.837   3.838   1.827
 1093SOL    HW1 5286  26.938  -7.171   1.739
 1093SOL    HW2 5287   4.743  -7.219  12.862
 1094SOL     OW 5288  10.397   0.891   2.367
 1094SOL    HW1 5289  10.426 -10.226   2.415
 1094SOL    HW2 5290  -0.711   0.929   2.421
 1095SOL     OW 5291   6.343   1.716   6.644
 1095SOL    HW1 5292   6.268   1.776  28.723
 1095SOL    HW2 5293   6.361   1.701   6.551
 1096SOL     OW 5294   9.286   0.081   6.530
 1096SOL    HW1 5295  -1.834   0.034  17.594
 1096SOL    HW2 5296 -12.757   0.112   6.613
 1097SOL     OW 5297   8.876   8.085   2.327
 1097SOL    HW1 5298  19.999   8.120   2.296
 1097SOL    HW2 5299  19.939   8.025   2.397
 1098SOL     OW 5300   1.442   1.763   8.166
 1098SOL    HW1 5301  -9.541   1.701   8.212
 1098SOL    HW2 5302   1.470   1.849   8.197
 1099SOL     OW 5303   1.870   5.089   8.807
 1099SOL    HW1 5304   1.908   5.132   8.730
 1099SOL    HW2 5305   1.842   5.003  -2.266
 1100SOL     OW 5306   3.544   6.775   4.893
 1100SOL    HW1 5307  14.565  17.755   4.966
 1100SOL    HW2 5308   3.623   6.821   4.920
 1101SOL     OW 5309   6.397   2.246   3.508
 1101SOL    HW1 5310  17.354  13.273   3.555
 1101SOL    HW2 5311   6.373   2.239  -7.624
 1102SOL     OW 5312   0.952  10.894   9.726
 1102SOL    HW1 5313   0.903 -44.274  20.842
 1102SOL    HW2 5314   0.886  10.886  -1.383
 1103SOL     OW 5315   0.888   5.964   2.680
 1103SOL    HW1 5316   0.827   6.007  -8.419
 1103SOL    HW2 5317  11.906  -5.041   2.766
 1104SOL     OW 5318   4.453   7.228   2.238
 1104SOL    HW1 5319   4.368  -3.770   2.251
 1104SOL    HW2 5320   4.466  -3.864  -8.722
 1105SOL     OW 5321   4.477   6.381  10.500
 1105SOL    HW1 5322  15.423   6.370  10.483
 1105SOL    HW2 5323  15.540   6.306  10.556
 1106SOL     OW 5324   0.984   3.930   1.331
 1106SOL    HW1 5325   1.052  -7.158   1.283
 1106SOL    HW2 5326  34.149  15.044  12.409
 1107SOL     OW 5327  12.680   5.998   7.835
 1107SOL    HW1 5328  -9.433  28.070   7.746
 1107SOL    HW2 5329  -9.476  17.029   7.891
 1108SOL     OW 5330   2.712   8.512   0.029
 1108SOL    HW1 5331   2.733   8.606   0.024
 1108SOL    HW2 5332 -19.403   8.491  -0.058
 1109SOL     OW 5333   9.924   9.012   2.217
 1109SOL    HW1 5334   9.980   8.943   2.253
 1109SOL    HW2 5335   9.878   9.048   2.293
 1110SOL     OW 5336   8.962   1.734   4.414
 1110SOL    HW1 5337   8.922   1.820  -6.614
 1110SOL    HW2 5338   9.051   1.753   4.386
 1111SOL     OW 5339   4.078   7.187  10.713
 1111SOL    HW1 5340  -6.976  18.187  10.627
 1111SOL    HW2 5341 -18.012   7.281  10.699
 1112SOL     OW 5342   6.994   6.690   9.488
 1112SOL    HW1 5343   6.990  28.728   9.574
 1112SOL    HW2 5344  -4.120   6.655   9.440
 1113SOL     OW 5345   3.153   3.837  -0.517
 1113SOL    HW1 5346  14.151   3.851  -0.431
 1113SOL    HW2 5347  -7.807   3.788  21.582
 1114SOL     OW 5348   3.389   8.066  10.103
 1114SOL    HW1 5349   3.303   8.053  10.063
 1114SOL    HW2 5350   3.451   8.056  10.031
 1115SOL     OW 5351   1.901   1.368   3.960
 1115SOL    HW1 5352  13.022   1.379   3.910
 1115SOL    HW2 5353   1.869   1.282  14.974
 1116SOL     OW 5354   4.287   5.589   5.486
 1116SOL    HW1 5355  15.274   5.567   5.563
 1116SOL    HW2 5356  15.413   5.610   5.521
 1117SOL     OW 5357   0.795   0.284   8.518
 1117SOL    HW1 5358   0.734   0.348  30.560
 1117SOL    HW2 5359   0.764   0.270   8.607
 1118SOL     OW 5360   8.729   4.498   0.062
 1118SOL    HW1 5361   8.761   4.433  11.164
 1118SOL    HW2 5362   8.736   4.454  33.096
 1119SOL     OW 5363   3.747   2.836   2.957
 1119SOL    HW1 5364   3.811   2.767   2.975
 1119SOL    HW2 5365   3.746   2.890   3.036
 1120SOL     OW 5366   5.504   8.108   5.426
 1120SOL    HW1 5367   5.420   8.128   5.467
 1120SOL    HW2 5368   5.562   8.180 -16.626
 1121SOL     OW 5369   8.467   0.189   7.742
 1121SOL    HW1 5370 -13.633   0.282  -3.292
 1121SOL    HW2 5371   8.383   0.145   7.730
 1122SOL     OW 5372   1.823   2.542   8.621
 1122SOL    HW1 5373  12.954   2.514   8.625
 1122SOL    HW2 5374   1.773   2.460   8.622
 1123SOL     OW 5375   5.025   9.422   8.252
 1123SOL    HW1 5376   4.943 -23.724   8.212
 1123SOL    HW2 5377  -6.028   9.514  -2.764
 1124SOL     OW 5378   6.298   9.669  10.840
 1124SOL    HW1 5379   6.360   9.659 -33.246
 1124SOL    HW2 5380   6.310   9.758  -0.230
 1125SOL     OW 5381   3.692   0.350   9.568
 1125SOL    HW1 5382   3.630   0.361   9.640
 1125SOL    HW2 5383  14.806  22.484 -12.487
 1126SOL     OW 5384   0.186   3.373   9.670
 1126SOL    HW1 5385   0.216  14.411  20.801
 1126SOL    HW2 5386  11.277  25.384   9.627
 1127SOL     OW 5387   2.922   6.546   9.575
 1127SOL    HW1 5388  13.893   6.485   9.548
 1127SOL    HW2 5389   2.912  17.592   9.670
 1128SOL     OW 5390  10.934   9.809   5.579
 1128SOL    HW1 5391  10.913   9.892  -5.502
 1128SOL    HW2 5392  10.902   9.818   5.669
 1129SOL     OW 5393   3.037   6.824   7.372
 1129SOL    HW1 5394  14.071  39.952   7.467
 1129SOL    HW2 5395  -8.091   6.799   7.345
 1130SOL     OW 5396  11.667   4.629   6.649
 1130SOL    HW1 5397  11.678   4.567  -4.319
 1130SOL    HW2 5398 -10.453   4.578   6.579
 1131SOL     OW 5399   8.610   1.883   0.314
 1131SOL    HW1 5400  19.727 -20.205  11.410
 1131SOL    HW2 5401   8.625   1.821   0.243
 1132SOL     OW 5402   3.103   7.927   4.050
 1132SOL    HW1 5403   3.196   7.903   4.055
 1132SOL    HW2 5404   3.059   7.864   4.107
 1133SOL     OW 5405   7.551   8.065   2.845
 1133SOL    HW1 5406   7.465   8.070  -8.237
 1133SOL    HW2 5407  18.597   8.148   2.894
 1134SOL     OW 5408   1.737   8.252   4.579
 1134SOL    HW1 5409   1.768  19.204   4.603
 1134SOL    HW2 5410  12.852   8.293 -17.543
 1135SOL     OW 5411   8.300   4.373  11.937
 1135SOL    HW1 5412   8.323  15.370 -10.059
 1135SOL    HW2 5413   8.207   4.393  11.945
 1136SOL     OW 5414   2.728  10.173   4.600
 1136SOL    HW1 5415   2.737  10.186 -28.424
 1136SOL    HW2 5416   2.816  10.188   4.566
 1137SOL     OW 5417   0.904  -0.018   8.512
 1137SOL    HW1 5418   0.949  11.007 -13.651
 1137SOL    HW2 5419   0.957   0.047   8.557
 1138SOL     OW 5420   9.132   6.529   9.983
 1138SOL    HW1 5421   9.191  17.507  10.028
 1138SOL    HW2 5422   9.168   6.615  10.003
 1139SOL     OW 5423   6.311   5.385   8.774
 1139SOL    HW1 5424  17.336   5.466 -35.335
 1139SOL    HW2 5425   6.389   5.402  30.801
 1140SOL     OW 5426   1.724   9.788   4.840
 1140SOL    HW1 5427   1.651  31.927   4.854
 1140SOL    HW2 5428   1.771   9.788  15.963
 1141SOL     OW 5429   3.370   9.951  10.716
 1141SOL    HW1 5430  -7.693   9.862  10.691
 1141SOL    HW2 5431  -7.574   9.953 -11.366
 1142SOL     OW 5432   2.956   6.923   1.246
 1142SOL    HW1 5433   2.917 -15.095   1.184
 1142SOL    HW2 5434   3.003  51.136   1.309
 1143SOL     OW 5435   3.354   2.734   7.427
 1143SOL    HW1 5436  14.371   2.817   7.469
 1143SOL    HW2 5437  14.353   2.739  18.380
 1144SOL     OW 5438  -0.512   6.721   0.730
 1144SOL    HW1 5439  10.552  17.680   0.684
 1144SOL    HW2 5440  -0.603  -4.305   0.706
 1145SOL     OW 5441   5.330   7.356   3.915
 1145SOL    HW1 5442   5.260  29.372   3.898
 1145SOL    HW2 5443   5.284   7.439   3.931
 1146SOL     OW 5444   4.302   7.223   5.549
 1146SOL    HW1 5445   4.258   7.189   5.627
 1146SOL    HW2 5446  37.365   7.195   5.476
 1147SOL     OW 5447  10.152   9.132   5.790
 1147SOL    HW1 5448  10.118   9.118   5.701
 1147SOL    HW2 5449  10.116   9.216  -5.223
 1148SOL     OW 5450   4.230   7.777  12.079
 1148SOL    HW1 5451   4.326   7.777 -10.001
 1148SOL    HW2 5452   4.206   7.865  12.108
 1149SOL     OW 5453   0.336   2.164   4.373
 1149SOL    HW1 5454   0.401   2.226   4.406
 1149SOL    HW2 5455   0.345   2.087  -6.610
 1150SOL     OW 5456   5.836   4.061  10.177
 1150SOL    HW1 5457   5.847   3.967  21.200
 1150SOL    HW2 5458   5.754   4.066  -0.813
 1151SOL     OW 5459   6.304   8.013  11.533
 1151SOL    HW1 5460   6.237  -2.958  11.529
 1151SOL    HW2 5461   6.380   8.056   0.532
 1152SOL     OW 5462   4.505   8.692   2.187
 1152SOL    HW1 5463   4.502   8.785   2.210
 1152SOL    HW2 5464  15.630   8.681   2.145
 1153SOL     OW 5465   3.471   1.412   4.115
 1153SOL    HW1 5466   3.535   1.357   4.160
 1153SOL    HW2 5467   3.394  12.452   4.172
 1154SOL     OW 5468   2.839   6.135   6.794
 1154SOL    HW1 5469   2.862  28.242   6.705
 1154SOL    HW2 5470  25.002   6.129   6.839
 1155SOL     OW 5471   0.995   8.597   9.726
 1155SOL    HW1 5472   1.081   8.627  -1.343
 1155SOL    HW2 5473 -10.059   8.516   9.678
 1156SOL     OW 5474   4.559   4.533   5.475
 1156SOL    HW1 5475   4.632   4.582   5.513
 1156SOL    HW2 5476   4.601   4.470 -16.663
 1157SOL     OW 5477   1.894   8.404   0.675
 1157SOL    HW1 5478   1.957   8.472  22.731
 1157SOL    HW2 5479   1.845   8.388 -10.445
 1158SOL     OW 5480  -0.351   8.494   6.579
 1158SOL    HW1 5481  21.819   8.488   6.608
 1158SOL    HW2 5482  -0.383  52.733   6.618
 1159SOL     OW 5483   9.083   4.323   1.268
 1159SOL    HW1 5484   9.059  15.358  -9.865
 1159SOL    HW2 5485   9.056 -17.668   1.295
 1160SOL     OW 5486  11.540  10.155   4.942
 1160SOL    HW1 5487  11.572  10.065   4.935
 1160SOL    HW2 5488   0.579  10.209   4.939
 1161SOL     OW 5489   5.571   5.468  10.869
 1161SOL    HW1 5490   5.492  27.564  10.818
 1161SOL    HW2 5491  16.581   5.469 -11.119
 1162SOL     OW 5492   9.359   7.946   8.487
 1162SOL    HW1 5493   9.316  19.069   8.503
 1162SOL    HW2 5494  20.346   7.882  -2.504
 1163SOL     OW 5495   8.484   7.563   7.360
 1163SOL    HW1 5496   8.550   7.604   7.303
 1163SOL    HW2 5497   8.407   7.554   7.304
 1164SOL     OW 5498   7.409  10.684   7.372
 1164SOL    HW1 5499 -14.687  10.610   7.431
 1164SOL    HW2 5500  18.394  10.754   7.405
 1165SOL     OW 5501   0.917   3.301   1.132
 1165SOL    HW1 5502   0.900   3.395   1.143
 1165SOL    HW2 5503   0.898  14.324   1.040
 1166SOL     OW 5504   8.312   8.903   4.693
 1166SOL    HW1 5505  19.436  -2.151  37.771
 1166SOL    HW2 5506   8.295   8.997  26.761
 1167SOL     OW 5507   4.181   0.116   8.259
 1167SOL    HW1 5508  -6.855  44.218   8.336
 1167SOL    HW2 5509   4.273   0.137   8.241
 1168SOL     OW 5510   1.643   6.623  10.890
 1168SOL    HW1 5511  12.724   6.673  10.820
 1168SOL    HW2 5512  12.750   6.561  10.919
 1169SOL     OW 5513  10.230   4.797   1.521
 1169SOL    HW1 5514  -0.750  -6.182   1.565
 1169SOL    HW2 5515  10.190   4.849   1.452
 1170SOL     OW 5516   7.676   8.583   7.533
 1170SOL    HW1 5517   7.629   8.621   7.459
 1170SOL    HW2 5518   7.616  19.557   7.568
 1171SOL     OW 5519   5.804   7.331   7.740
 1171SOL    HW1 5520   5.780  -3.674   7.826
 1171SOL    HW2 5521   5.741   7.261   7.724
 1172SOL     OW 5522   1.227   2.550   2.536
 1172SOL    HW1 5523   1.315   2.585  13.562
 1172SOL    HW2 5524   1.203   2.581   2.624
 1173SOL     OW 5525   8.114  10.728   8.155
 1173SOL    HW1 5526  -2.942  10.635   8.166
 1173SOL    HW2 5527  19.230  10.733   8.097
 1174SOL     OW 5528  10.588   0.403   4.131
 1174SOL    HW1 5529  10.575   0.426  -6.816
 1174SOL    HW2 5530  10.590   0.307   4.130
 1175SOL     OW 5531   8.792   5.548   4.818
 1175SOL    HW1 5532   8.796   5.474   4.878
 1175SOL    HW2 5533   8.714  -5.442   4.845
 1176SOL     OW 5534  -0.516   4.837   1.858
 1176SOL    HW1 5535  10.599   4.834  -9.124
 1176SOL    HW2 5536  10.449 -17.262   1.915
 1177SOL     OW 5537  10.799  -0.517   4.899
 1177SOL    HW1 5538  -0.267 -11.469   4.925
 1177SOL    HW2 5539  10.877  21.575   4.845
 1178SOL     OW 5540   4.971   3.941   4.701
 1178SOL    HW1 5541   5.067   3.942   4.705
 1178SOL    HW2 5542   4.944 -18.187   4.778
 1179SOL     OW 5543   3.640   2.411   6.117
 1179SOL    HW1 5544   3.640   2.362  -4.840
 1179SOL    HW2 5545  14.743  24.560   6.131
 1180SOL     OW 5546   4.234   8.951   7.606
 1180SOL    HW1 5547   4.314   8.960  -3.381
 1180SOL    HW2 5548   4.243   8.866  -3.476
 1181SOL     OW 5549   6.983   2.056   9.338
 1181SOL    HW1 5550   6.974  35.223  20.295
 1181SOL    HW2 5551   6.941   1.972   9.321
 1182SOL     OW 5552   8.383   6.476   8.962
 1182SOL    HW1 5553   8.398   6.444  41.991
 1182SOL    HW2 5554   8.406   6.569   8.958
 1183SOL     OW 5555  11.283   2.107   4.145
 1183SOL    HW1 5556  11.203  -8.883  26.208
 1183SOL    HW2 5557 -10.764  24.218   4.230
 1184SOL     OW 5558   9.368   5.828   3.922
 1184SOL    HW1 5559   9.444   5.803   3.973
 1184SOL    HW2 5560  20.370   5.745  14.931
 1185SOL     OW 5561   2.670   8.013   6.668
 1185SOL    HW1 5562   2.747   8.004 -26.394
 1185SOL    HW2 5563   2.696   7.973   6.585
 1186SOL     OW 5564   5.984   9.432   9.926
 1186SOL    HW1 5565   5.923   9.504   9.942
 1186SOL    HW2 5566   5.932   9.353   9.937
 1187SOL     OW 5567   8.451  -0.691   4.163
 1187SOL    HW1 5568  30.623 -11.709   4.168
 1187SOL    HW2 5569   8.430  32.434   4.070
 1188SOL     OW 5570   2.942  10.965  10.882
 1188SOL    HW1 5571 -19.067  11.021  10.851
 1188SOL    HW2 5572   2.897  11.017  10.949
 1189SOL     OW 5573   6.309  10.715   1.018
 1189SOL    HW1 5574   6.388  10.765   1.039
 1189SOL    HW2 5575   6.301  10.652  23.169
 1190SOL     OW 5576   3.035   9.322   3.093
 1190SOL    HW1 5577   3.045   9.304   3.187
 1190SOL    HW2 5578  25.075   9.409   3.090
 1191SOL     OW 5579   3.711   9.291  10.653
 1191SOL    HW1 5580 -40.448 -23.922  -0.403
 1191SOL    HW2 5581  -7.238  -1.722  -0.402
 1192SOL     OW 5582   5.963  10.471   8.283
 1192SOL    HW1 5583  -5.149  -0.528   8.330
 1192SOL    HW2 5584  17.060  10.438   8.352
 1193SOL     OW 5585   8.744  11.074  11.079
 1193SOL    HW1 5586   8.684  11.035  11.142
 1193SOL    HW2 5587   8.831   0.023   0.078
 1194SOL     OW 5588   5.768   6.086   0.779
 1194SOL    HW1 5589   5.784   6.172   0.819
 1194SOL    HW2 5590   5.763   6.026   0.854
 1195SOL     OW 5591  10.368  10.063   4.847
 1195SOL    HW1 5592  10.333  10.149  26.950
 1195SOL    HW2 5593  21.356  10.002   4.899
 1196SOL     OW 5594   0.786   8.954   6.884
 1196SOL    HW1 5595   0.720   8.925   6.821
 1196SOL    HW2 5596   0.784  19.927   6.953
 1197SOL     OW 5597   7.771  10.372   4.423
 1197SOL    HW1 5598   7.707  10.350  37.474
 1197SOL    HW2 5599   7.794  10.463  15.445
 1198SOL     OW 5600   7.870   1.394   2.989
 1198SOL    HW1 5601   7.913   1.479  14.026
 1198SOL    HW2 5602   7.798  12.441   2.926
 1199SOL     OW 5603   8.976   0.860   0.650
 1199SOL    HW1 5604  -2.158   0.877   0.642
 1199SOL    HW2 5605  -2.034   0.920   0.718
 1200SOL     OW 5606  11.904   6.554   7.507
 1200SOL    HW1 5607 -10.114   6.571   7.436
 1200SOL    HW2 5608  11.842  17.529 -14.607
 1201SOL     OW 5609   8.807   9.955   3.398
 1201SOL    HW1 5610   8.889   9.939   3.444
 1201SOL    HW2 5611   8.830   9.945   3.305
 1202SOL     OW 5612   9.838  10.146   1.807
 1202SOL    HW1 5613  -1.173  10.057   1.788
 1202SOL    HW2 5614   9.774  -0.903  -9.162
 1203SOL     OW 5615   3.802   8.651   4.203
 1203SOL    HW1 5616   3.716  -2.356  15.218
 1203SOL    HW2 5617   3.786   8.563  -6.804
 1204SOL     OW 5618   0.596   8.744   6.109
 1204SOL    HW1 5619 -10.444   8.740  17.053
 1204SOL    HW2 5620  11.719   8.785   6.131
 1205SOL     OW 5621   3.896   6.831   7.853
 1205SOL    HW1 5622   3.859   6.876   7.929
 1205SOL    HW2 5623   3.836  17.798  -3.202
 1206SOL     OW 5624  10.096   1.920   8.536
 1206SOL    HW1 5625  10.150   1.934   8.457
 1206SOL    HW2 5626  10.112   1.998  30.669
 1207SOL     OW 5627   4.309   9.250   3.687
 1207SOL    HW1 5628   4.262   9.276   3.608
 1207SOL    HW2 5629   4.398   9.283   3.673
 1208SOL     OW 5630   4.578   0.021   9.299
 1208SOL    HW1 5631  -6.418  -0.055   9.260
 1208SOL    HW2 5632   4.595   0.092   9.238
 1209SOL     OW 5633  -0.052   4.496   7.967
 1209SOL    HW1 5634  -0.002   4.578   7.967
 1209SOL    HW2 5635  11.034   4.440  -3.134
 1210SOL     OW 5636   8.260   5.556   3.274
 1210SOL    HW1 5637   8.214   5.531  14.233
 1210SOL    HW2 5638   8.221   5.640   3.298
 1211SOL     OW 5639   2.458   0.935   9.215
 1211SOL    HW1 5640  -8.598 -21.232   9.249
 1211SOL    HW2 5641   2.465  12.029   9.293
 1212SOL     OW 5642   1.378  12.206   0.522
 1212SOL    HW1 5643  -9.675 -20.958   0.606
 1212SOL    HW2 5644   1.296  12.252   0.507
 1213SOL     OW 5645   6.663   5.518   0.882
 1213SOL    HW1 5646   6.685 -38.726 -10.193
 1213SOL    HW2 5647  -4.386   5.574   0.805
 1214SOL     OW 5648   9.066  -1.202   4.912
 1214SOL    HW1 5649   9.141  -1.148   4.884
 1214SOL    HW2 5650   9.105  20.793   4.935
 1215SOL     OW 5651   6.281   8.091   3.414
 1215SOL    HW1 5652   6.328   8.150   3.473
 1215SOL    HW2 5653   6.294   8.004   3.451
 1216SOL     OW 5654  12.189   5.169  -0.671
 1216SOL    HW1 5655  -9.976   5.172  21.449
 1216SOL    HW2 5656  12.249  38.320  -0.603
 1217SOL     OW 5657   0.191   5.801   6.275
 1217SOL    HW1 5658  22.233  16.901   6.339
 1217SOL    HW2 5659  44.314   5.831  -4.848
 1218SOL     OW 5660   2.150   9.396   0.241
 1218SOL    HW1 5661  13.108   9.347  11.270
 1218SOL    HW2 5662   2.138   9.474   0.186
 1219SOL     OW 5663  10.286   5.244   0.623
 1219SOL    HW1 5664  -0.831   5.300   0.621
 1219SOL    HW2 5665  10.304   5.231   0.716
 1220SOL     OW 5666   1.583   1.180   1.133
 1220SOL    HW1 5667   1.528   1.158   1.208
 1220SOL    HW2 5668   1.522   1.209  -9.974
 1221SOL     OW 5669   0.049   8.150   8.932
 1221SOL    HW1 5670   0.111   8.084  19.941
 1221SOL    HW2 5671  -0.033  -2.937   8.943
 1222SOL     OW 5672   8.239  -0.225   4.259
 1222SOL    HW1 5673  30.380  21.805   4.313
 1222SOL    HW2 5674   8.172  21.789   4.235
 1223SOL     OW 5675   0.049   4.849   8.939
 1223SOL    HW1 5676   0.129   4.898  19.997
 1223SOL    HW2 5677  33.112   4.864   9.015
 1224SOL     OW 5678   3.723   1.810   4.117
 1224SOL    HW1 5679   3.811   1.781   4.092
 1224SOL    HW2 5680 -18.342  -9.148   4.165
 1225SOL     OW 5681   6.187   6.076  11.130
 1225SOL    HW1 5682   6.212  39.279  11.168
 1225SOL    HW2 5683   6.173  39.137   0.166
 1226SOL     OW 5684   9.263   2.138   7.810
 1226SOL    HW1 5685  20.311   2.148   7.715
 1226SOL    HW2 5686  20.237  13.243   7.835
 1227SOL     OW 5687  10.725   7.652  -0.888
 1227SOL    HW1 5688  21.755   7.733  10.202
 1227SOL    HW2 5689  -0.391  29.729  21.134
 1228SOL     OW 5690   6.386   8.445   2.485
 1228SOL    HW1 5691  17.406  30.602   2.433
 1228SOL    HW2 5692  17.520  30.517   2.482
 1229SOL     OW 5693   5.062  10.023  -0.001
 1229SOL    HW1 5694   4.982   9.984  -0.036
 1229SOL    HW2 5695  16.159   9.949  33.135
 1230SOL     OW 5696   3.929   0.467   9.668
 1230SOL    HW1 5697  15.059  11.476  31.751
 1230SOL    HW2 5698  -7.104   0.562   9.667
 1231SOL     OW 5699  10.767   8.611  -1.691
 1231SOL    HW1 5700 -22.362   8.568  31.342
 1231SOL    HW2 5701  10.842  19.607  -1.652
 1232SOL     OW 5702   7.669   2.187   7.949
 1232SOL    HW1 5703   7.698 -19.864   8.036
 1232SOL    HW2 5704  18.730   2.094   7.945
 1233SOL     OW 5705   1.724   4.228   6.690
 1233SOL    HW1 5706   1.775   4.305  -4.326
 1233SOL    HW2 5707  -9.388   4.227   6.753
 1234SOL     OW 5708   9.551  10.195   5.860
 1234SOL    HW1 5709   9.642  10.186   5.890
 1234SOL    HW2 5710  -1.528 -11.969   5.877
 1235SOL     OW 5711   1.630   8.799   2.832
 1235SOL    HW1 5712   1.713  30.854   2.791
 1235SOL    HW2 5713   1.650  19.842   2.926
 1236SOL     OW 5714   1.078  10.130   7.271
 1236SOL    HW1 5715   1.081  10.225   7.286
 1236SOL    HW2 5716   1.022  10.096   7.341
 1237SOL     OW 5717   1.089  10.078   8.166
 1237SOL    HW1 5718  12.069  10.134   8.216
 1237SOL    HW2 5719  -9.882  21.095   8.228
 1238SOL     OW 5720  10.097   3.981   9.774
 1238SOL    HW1 5721  10.128 -51.252 -12.222
 1238SOL    HW2 5722  21.103   4.068  -1.245
 1239SOL     OW 5723   5.974   8.398   6.142
 1239SOL    HW1 5724   5.939   8.368  28.305
 1239SOL    HW2 5725  17.101  30.438  17.176
 1240SOL     OW 5726   5.021   5.173   7.680
 1240SOL    HW1 5727   4.991   5.204   7.595
 1240SOL    HW2 5728   5.020   5.077   7.672
 1241SOL     OW 5729   3.731   4.019   7.211
 1241SOL    HW1 5730   3.774   4.087   7.159
 1241SOL    HW2 5731   3.668   4.066  18.305
 1242SOL     OW 5732   5.281   9.164   2.811
 1242SOL    HW1 5733   5.293  -1.891 -30.401
 1242SOL    HW2 5734   5.199   9.119   2.832
 1243SOL     OW 5735   7.989   2.594   7.775
 1243SOL    HW1 5736   8.007   2.543  18.893
 1243SOL    HW2 5737 -14.153 -30.457   7.804
 1244SOL     OW 5738   3.780   7.018   3.044
 1244SOL    HW1 5739  25.949  18.090   3.051
 1244SOL    HW2 5740   3.728   7.083   3.092
 1245SOL     OW 5741  11.555   9.265   0.090
 1245SOL    HW1 5742   0.449   9.203   0.060
 1245SOL    HW2 5743  11.602   9.290  22.089
 1246SOL     OW 5744   9.361   4.412  10.163
 1246SOL    HW1 5745   9.324   4.466  -0.806
 1246SOL    HW2 5746  31.440  15.508  10.086
 1247SOL     OW 5747   7.868   4.207   9.440
 1247SOL    HW1 5748   7.890   4.247   9.524
 1247SOL    HW2 5749  18.847   4.136  20.502
 1248SOL     OW 5750   9.999   4.688   0.309
 1248SOL    HW1 5751  10.072   4.749   0.299
 1248SOL    HW2 5752   9.921  26.822   0.306
 1249SOL     OW 5753   8.060   4.583   5.727
 1249SOL    HW1 5754   8.097   4.672   5.735
 1249SOL    HW2 5755   8.135   4.525   5.740
 1250SOL     OW 5756   2.668   5.815  10.626
 1250SOL    HW1 5757   2.647   5.743  10.567
 1250SOL    HW2 5758  -8.330  -5.266  10.702
 1251SOL     OW 5759   8.753   6.524  10.311
 1251SOL    HW1 5760   8.665   6.537  10.275
 1251SOL    HW2 5761  -2.232  17.541  10.236
 1252SOL     OW 5762   8.007   7.871   8.799
 1252SOL    HW1 5763   8.008 -14.182   8.707
 1252SOL    HW2 5764 -13.998   7.919  -2.201
 1253SOL     OW 5765  10.137   2.762   1.694
 1253SOL    HW1 5766  10.070   2.826   1.672
 1253SOL    HW2 5767  10.208   2.778   1.632
 1254SOL     OW 5768   8.901   6.367  10.770
 1254SOL    HW1 5769   8.905  17.372  10.681
 1254SOL    HW2 5770   8.851   6.301  10.818
 1255SOL     OW 5771   0.417   4.298   3.450
 1255SOL    HW1 5772   0.371  15.420  14.474
 1255SOL    HW2 5773  11.412  -6.779  14.566
 1256SOL     OW 5774   4.651   6.664   9.455
 1256SOL    HW1 5775   4.580  17.640   9.462
 1256SOL    HW2 5776   4.730   6.615   9.475
 1257SOL     OW 5777   8.210   1.894  -1.845
 1257SOL    HW1 5778   8.291   1.897  53.302
 1257SOL    HW2 5779   8.234  12.888  -1.764
 1258SOL     OW 5780   3.375   8.885   0.284
 1258SOL    HW1 5781   3.321   8.849   0.214
 1258SOL    HW2 5782  -7.708   8.859   0.365
 1259SOL     OW 5783   6.103   0.795   5.491
 1259SOL    HW1 5784 -15.896 -10.246   5.543
 1259SOL    HW2 5785   6.035   0.824  -5.488
 1260SOL     OW 5786   6.854   4.458   8.450
 1260SOL    HW1 5787   6.837  15.405  19.473
 1260SOL    HW2 5788   6.825 -17.607   8.540
 1261SOL     OW 5789  -0.200   0.852   9.004
 1261SOL    HW1 5790  10.810   0.927   8.952
 1261SOL    HW2 5791  -0.116   0.828   8.965
 1262SOL     OW 5792  11.961   1.043   5.518
 1262SOL    HW1 5793 -10.125   1.138  -5.521
 1262SOL    HW2 5794   0.913   1.018   5.610
 1263SOL     OW 5795   9.003   2.825   3.907
 1263SOL    HW1 5796  31.036   2.906  -7.155
 1263SOL    HW2 5797  20.119   2.825   3.849
 1264SOL     OW 5798  10.598  11.010   4.799
 1264SOL    HW1 5799  10.658 -10.995  15.851
 1264SOL    HW2 5800  10.512  11.044   4.825
 1265SOL     OW 5801   7.780   4.167   7.249
 1265SOL    HW1 5802   7.867   4.173  18.247
 1265SOL    HW2 5803   7.798 -17.936   7.340
 1266SOL     OW 5804   0.513   0.644   0.760
 1266SOL    HW1 5805   0.442   0.582   0.778
 1266SOL    HW2 5806   0.499   0.670 -10.371
 1267SOL     OW 5807   8.064   1.462   1.024
 1267SOL    HW1 5808   8.142   1.514   1.041
 1267SOL    HW2 5809   8.057   1.404   1.099
 1268SOL     OW 5810   1.272   0.619   2.956
 1268SOL    HW1 5811  12.307  11.602   3.033
 1268SOL    HW2 5812   1.299  11.744   2.990
 1269SOL     OW 5813   5.988   3.787   9.675
 1269SOL    HW1 5814   5.903  -7.268   9.717
 1269SOL    HW2 5815  17.084   3.817  -1.294
 1270SOL     OW 5816   0.299   0.331   3.185
 1270SOL    HW1 5817   0.306   0.425   3.201
 1270SOL    HW2 5818  11.244   0.314  14.219
 1271SOL     OW 5819   7.554   0.945   6.587
 1271SOL    HW1 5820   7.555   1.041   6.587
 1271SOL    HW2 5821  18.554  11.962   6.503
 1272SOL     OW 5822   3.007   5.040   6.029
 1272SOL    HW1 5823   2.961   5.108   6.077
 1272SOL    HW2 5824   2.974   4.958  -4.973
 1273SOL     OW 5825   5.191  10.564  10.218
 1273SOL    HW1 5826  16.139  -0.453  10.236
 1273SOL    HW2 5827   5.222  10.632  10.159
 1274SOL     OW 5828   2.377   9.390   8.816
 1274SOL    HW1 5829  -8.711 -34.780   8.734
 1274SOL    HW2 5830   2.399   9.301  -2.196
 1275SOL     OW 5831  10.850   7.162   8.531
 1275SOL    HW1 5832  10.857  18.108  -2.489
 1275SOL    HW2 5833  10.814  18.204 -13.637
 1276SOL     OW 5834   1.098   1.500   7.695
 1276SOL    HW1 5835   1.008  -9.572   7.689
 1276SOL    HW2 5836   1.130   1.498   7.605
 1277SOL     OW 5837   0.266   5.301  10.364
 1277SOL    HW1 5838   0.218   5.371  10.320
 1277SOL    HW2 5839   0.259   5.226  10.305
 1278SOL     OW 5840   6.608   6.978   3.818
 1278SOL    HW1 5841   6.697   6.994   3.848
 1278SOL    HW2 5842   6.588  -4.150   3.849
 1279SOL     OW 5843   0.833   8.920   9.132
 1279SOL    HW1 5844  22.905  -2.095   9.224
 1279SOL    HW2 5845  11.829   8.992 -24.034
 1280SOL     OW 5846   7.879   3.469   4.215
 1280SOL    HW1 5847   7.926   3.429   4.289
 1280SOL    HW2 5848   7.845   3.394   4.165
 1281SOL     OW 5849   0.717   7.216   4.918
 1281SOL    HW1 5850  33.835 -14.859   5.014
 1281SOL    HW2 5851   0.806   7.241   4.894
 1282SOL     OW 5852   7.454   2.155  -0.357
 1282SOL    HW1 5853   7.484  13.190  10.592
 1282SOL    HW2 5854   7.374   2.207  -0.360
 1283SOL     OW 5855   2.076   0.287   3.993
 1283SOL    HW1 5856   2.054   0.359   4.051
 1283SOL    HW2 5857  13.032   0.249  15.008
 1284SOL     OW 5858   8.106  -0.801   3.307
 1284SOL    HW1 5859   8.023  10.276  25.353
 1284SOL    HW2 5860   8.159  10.226 -18.851
 1285SOL     OW 5861   5.729  -0.668   0.013
 1285SOL    HW1 5862   5.662  10.391   0.079
 1285SOL    HW2 5863   5.758  10.457  -0.018
 1286SOL     OW 5864   3.245   2.314   3.712
 1286SOL    HW1 5865   3.261   2.318   3.807
 1286SOL    HW2 5866  -7.849   2.236   3.700
 1287SOL     OW 5867   3.930  11.331   6.660
 1287SOL    HW1 5868   3.968 -10.739   6.747
 1287SOL    HW2 5869   3.960  11.408   6.612
 1288SOL     OW 5870   4.052   9.654   1.902
 1288SOL    HW1 5871   3.961  31.707  -9.121
 1288SOL    HW2 5872   4.057   9.664   1.807
 1289SOL     OW 5873   8.497   5.928   9.308
 1289SOL    HW1 5874   8.525   5.836   9.315
 1289SOL    HW2 5875   8.577   5.979  31.401
 1290SOL     OW 5876   3.110   7.226  11.588
 1290SOL    HW1 5877   3.178   7.291   0.530
 1290SOL    HW2 5878   3.076   7.250  11.674
 1291SOL     OW 5879   4.223   0.303   6.449
 1291SOL    HW1 5880   4.185   0.387   6.422
 1291SOL    HW2 5881   4.318  22.396   6.444
 1292SOL     OW 5882   8.581  16.858   5.566
 1292SOL    HW1 5883  -2.365 -49.400   5.566
 1292SOL    HW2 5884 -24.578 -27.377   5.525
 1293SOL     OW 5885   0.202   9.148   4.067
 1293SOL    HW1 5886   0.176   9.189   4.150
 1293SOL    HW2 5887   0.295   9.170   4.058
 1294SOL     OW 5888   5.800   2.705   2.900
 1294SOL    HW1 5889  16.829   2.690   2.994
 1294SOL    HW2 5890   5.721   2.668   2.861
 1295SOL     OW 5891  10.685  10.790   4.940
 1295SOL    HW1 5892  -0.440  10.760  27.049
 1295SOL    HW2 5893  10.666  10.855   4.872
 1296SOL     OW 5894   0.231   1.370   1.116
 1296SOL    HW1 5895   0.247   1.276   1.123
 1296SOL    HW2 5896   0.169   1.378   1.043
 1297SOL     OW 5897   3.407   7.511   6.395
 1297SOL    HW1 5898   3.475  -3.570  -4.697
 1297SOL    HW2 5899   3.452   7.582 -26.679
 1298SOL     OW 5900   7.510   4.684   3.854
 1298SOL    HW1 5901   7.499   4.593  -7.214
 1298SOL    HW2 5902   7.525  15.717  -7.091
 1299SOL     OW 5903   8.904   8.045   7.732
 1299SOL    HW1 5904  19.927   7.994   7.812
 1299SOL    HW2 5905   8.960   7.989  -3.360
 1300SOL     OW 5906   3.335   8.464   2.000
 1300SOL    HW1 5907   3.384   8.546   2.002
 1300SOL    HW2 5908   3.266   8.476   2.066
 1301SOL     OW 5909   0.970   7.286   1.795
 1301SOL    HW1 5910  12.012 -14.733  23.948
 1301SOL    HW2 5911   1.058 -25.871   1.791
 1302SOL     OW 5912   7.005   3.497   9.706
 1302SOL    HW1 5913   7.052   3.559   9.762
 1302SOL    HW2 5914   7.025   3.525   9.617
 1303SOL     OW 5915   7.207   0.071   3.277
 1303SOL    HW1 5916   7.199  -0.024   3.283
 1303SOL    HW2 5917  -3.800   0.098   3.363
 1304SOL     OW 5918   2.319   2.464   3.230
 1304SOL    HW1 5919 -19.790   2.528  -7.874
 1304SOL    HW2 5920   2.393  -8.534  -7.767
 1305SOL     OW 5921   5.452   8.903   4.379
 1305SOL    HW1 5922  27.555   8.975   4.320
 1305SOL    HW2 5923   5.534   8.878   4.420
 1306SOL     OW 5924  10.359   4.968   7.142
 1306SOL    HW1 5925 -11.811  -6.101   7.138
 1306SOL    HW2 5926  10.352   5.064   7.146
 1307SOL     OW 5927   7.481   0.080   9.287
 1307SOL    HW1 5928 -14.571  -0.012  -1.752
 1307SOL    HW2 5929   7.438   0.093   9.372
 1308SOL     OW 5930  10.003   2.051   9.107
 1308SOL    HW1 5931  10.057  -9.065 -23.991
 1308SOL    HW2 5932   9.954   2.068   9.187
 1309SOL     OW 5933   2.733   3.268   9.102
 1309SOL    HW1 5934   2.683   3.297   9.178
 1309SOL    HW2 5935   2.684  14.233  -1.973
 1310SOL     OW 5936   2.535   3.176   4.259
 1310SOL    HW1 5937   2.515   3.148  15.388
 1310SOL    HW2 5938   2.536   3.271  -6.777
 1311SOL     OW 5939   5.978   1.364   8.126
 1311SOL    HW1 5940  -5.128   1.350   8.194
 1311SOL    HW2 5941  -4.985  12.434   8.174
 1312SOL     OW 5942   1.584   6.353   4.317
 1312SOL    HW1 5943  12.649   6.260   4.319
 1312SOL    HW2 5944  12.675   6.393  -6.652
 1313SOL     OW 5945   3.120   1.714   8.268
 1313SOL    HW1 5946  -7.937  12.748 -13.905
 1313SOL    HW2 5947 -30.036  12.837   8.295
 1314SOL     OW 5948  13.256  11.485   5.500
 1314SOL    HW1 5949  -8.796   0.435   5.409
 1314SOL    HW2 5950 -19.913  11.566  -5.538
 1315SOL     OW 5951   1.763   2.857   1.829
 1315SOL    HW1 5952   1.859   2.849   1.833
 1315SOL    HW2 5953  12.788   2.949   1.805
 1316SOL     OW 5954   5.030   6.176   9.294
 1316SOL    HW1 5955  16.063   6.081   9.307
 1316SOL    HW2 5956   5.082   6.206   9.368
 1317SOL     OW 5957  10.760   1.680  -0.816
 1317SOL    HW1 5958  10.797  12.797  -0.857
 1317SOL    HW2 5959  10.683   1.660  21.209
 1318SOL     OW 5960   9.196   4.027   3.609
 1318SOL    HW1 5961  53.325  14.978   3.591
 1318SOL    HW2 5962 -23.852   4.016   3.673
 1319SOL     OW 5963   3.061   8.556   2.808
 1319SOL    HW1 5964 -19.067  19.527   2.853
 1319SOL    HW2 5965 -18.927   8.540   2.832
 1320SOL     OW 5966   9.522   6.918   0.276
 1320SOL    HW1 5967  -1.436  -4.073   0.289
 1320SOL    HW2 5968   9.473 -26.186   0.357
 1321SOL     OW 5969   7.805   7.521   8.099
 1321SOL    HW1 5970   7.770   7.486  30.096
 1321SOL    HW2 5971   7.729  18.577  30.233
 1322SOL     OW 5972  -0.917   5.467   5.261
 1322SOL    HW1 5973  -0.946   5.376   5.265
 1322SOL    HW2 5974  21.109 -16.574  -5.849
 1323SOL     OW 5975   2.191   9.563   5.257
 1323SOL    HW1 5976   2.239   9.644  16.317
 1323SOL    HW2 5977   2.256   9.494   5.265
 1324SOL     OW 5978   4.208   5.259   0.974
 1324SOL    HW1 5979   4.286   5.296   1.014
 1324SOL    HW2 5980  -6.904   5.307   1.013
 1325SOL     OW 5981   6.108   3.793   4.791
 1325SOL    HW1 5982  17.121  -7.179  15.893
 1325SOL    HW2 5983   6.162   3.839   4.727
 1326SOL     OW 5984   2.035   3.183   5.952
 1326SOL    HW1 5985   2.129   3.177  -5.073
 1326SOL    HW2 5986  13.038   3.105   5.993
 1327SOL     OW 5987   5.495   0.072   2.490
 1327SOL    HW1 5988 -16.502   0.114   2.518
 1327SOL    HW2 5989   5.454   0.044 -19.508
 1328SOL     OW 5990   5.601   7.862   5.746
 1328SOL    HW1 5991   5.600   7.766  -5.287
 1328SOL    HW2 5992   5.601  -3.160   5.652
 1329SOL     OW 5993  10.636   7.027   7.543
 1329SOL    HW1 5994  10.681   7.107   7.517
 1329SOL    HW2 5995 -11.379   6.958   7.529
 1330SOL     OW 5996   8.891   2.442   2.730
 1330SOL    HW1 5997   8.864   2.496  -8.235
 1330SOL    HW2 5998   8.825   2.459   2.663
 1331SOL     OW 5999   5.796   4.030   1.574
 1331SOL    HW1 6000   5.726   4.094   1.584
 1331SOL    HW2 6001  38.888   3.956  -9.411
 1332SOL     OW 6002  10.648   6.976   3.462
 1332SOL    HW1 6003  10.700   6.909   3.508
 1332SOL    HW2 6004  10.560  -4.101   3.459
 1333SOL     OW 6005   4.259   4.973   5.077
 1333SOL    HW1 6006   4.293   5.060   5.056
 1333SOL    HW2 6007   4.336   4.923  16.143
 1334SOL     OW 6008   4.916  -0.284   3.214
 1334SOL    HW1 6009   4.827  21.766   3.232
 1334SOL    HW2 6010 -17.160  -0.273   3.119
 1335SOL     OW 6011  11.740   6.050   0.605
 1335SOL    HW1 6012 -21.328   6.007   0.674
 1335SOL    HW2 6013 -10.418   5.998   0.597
 1336SOL     OW 6014   3.033  11.388  11.004
 1336SOL    HW1 6015  -7.960  11.411   0.045
 1336SOL    HW2 6016   3.042   0.253 -22.121
 1337SOL     OW 6017   6.459  10.210   3.369
 1337SOL    HW1 6018   6.410  -0.911  -7.679
 1337SOL    HW2 6019   6.395  10.273   3.402
 1338SOL     OW 6020   2.592   4.147   3.869
 1338SOL    HW1 6021   2.673   4.192   3.848
 1338SOL    HW2 6022  24.682   4.119  15.000
 1339SOL     OW 6023   3.824   2.270  10.182
 1339SOL    HW1 6024 -18.162  24.327  10.184
 1339SOL    HW2 6025   3.779   2.187  21.205
 1340SOL     OW 6026   4.188   7.897   1.916
 1340SOL    HW1 6027 -17.860   7.988   1.909
 1340SOL    HW2 6028  48.263   7.904   1.962
 1341SOL     OW 6029   2.206  10.915   5.170
 1341SOL    HW1 6030   2.157 -22.219   5.089
 1341SOL    HW2 6031   2.297  10.926   5.141
 1342SOL     OW 6032   1.661   5.824   1.818
 1342SOL    HW1 6033   1.712   5.743   1.816
 1342SOL    HW2 6034   1.570  16.836   1.811
 1343SOL     OW 6035   2.111   1.850   0.731
 1343SOL    HW1 6036 -20.033   1.780  11.768
 1343SOL    HW2 6037   2.156   1.843  11.686
 1344SOL     OW 6038   3.897   6.350   0.353
 1344SOL    HW1 6039   3.804   6.365   0.332
 1344SOL    HW2 6040   3.922   6.427   0.404
 1345SOL     OW 6041   9.604   9.012   5.327
 1345SOL    HW1 6042   9.583  -1.939  -5.741
 1345SOL    HW2 6043   9.553   8.955   5.269
 1346SOL     OW 6044   2.222   7.486   4.594
 1346SOL    HW1 6045  -8.901  29.598   4.562
 1346SOL    HW2 6046  -8.786   7.428   4.524
 1347SOL     OW 6047   6.116   0.390  10.497
 1347SOL    HW1 6048   6.091  22.518  10.419
 1347SOL    HW2 6049  17.120  11.479  -0.469
 1348SOL     OW 6050   7.860   1.532   0.094
 1348SOL    HW1 6051   7.789  12.552   0.156
 1348SOL    HW2 6052   7.826   1.503   0.009
 1349SOL     OW 6053   8.530   3.537   0.645
 1349SOL    HW1 6054  -2.440   3.474  11.666
 1349SOL    HW2 6055   8.538   3.602   0.575
 1350SOL     OW 6056   2.670   6.875   6.807
 1350SOL    HW1 6057  -8.461   6.875   6.833
 1350SOL    HW2 6058   2.713   6.819   6.871
 1351SOL     OW 6059   0.793  11.029   1.404
 1351SOL    HW1 6060   0.852   0.062   1.423
 1351SOL    HW2 6061   0.834  10.985   1.329
 1352SOL     OW 6062   4.331   9.266   7.762
 1352SOL    HW1 6063   4.340   9.302   7.674
 1352SOL    HW2 6064   4.272   9.326  29.886
 1353SOL     OW 6065   0.953   1.765   7.639
 1353SOL    HW1 6066   0.939   1.818   7.718
 1353SOL    HW2 6067  11.943   1.685   7.656
 1354SOL     OW 6068   1.386   7.916   1.355
 1354SOL    HW1 6069   1.342   7.889   1.274
 1354SOL    HW2 6070   1.383  19.051  -9.687
 1355SOL     OW 6071  11.206   7.886   7.329
 1355SOL    HW1 6072  11.236   7.975   7.346
 1355SOL    HW2 6073   0.075   7.895   7.305
 1356SOL     OW 6074  10.804   9.121   6.893
 1356SOL    HW1 6075  10.812  31.259   6.968
 1356SOL    HW2 6076  10.870   9.152   6.831
 1357SOL     OW 6077   9.964   6.067   3.243
 1357SOL    HW1 6078  -1.156   6.069   3.191
 1357SOL    HW2 6079   9.950  -5.042   3.307
 1358SOL     OW 6080   9.413  10.956   3.459
 1358SOL    HW1 6081   9.356  11.002  36.517
 1358SOL    HW2 6082   9.408  10.864   3.433
 1359SOL     OW 6083   1.963   1.067   4.899
 1359SOL    HW1 6084 -20.180   1.129   4.934
 1359SOL    HW2 6085   2.009   1.115  26.909
 1360SOL     OW 6086  10.619   3.950   5.680
 1360SOL    HW1 6087  10.702  14.948   5.704
 1360SOL    HW2 6088  -0.407   3.979   5.590
 1361SOL     OW 6089   3.420   6.491  10.253
 1361SOL    HW1 6090  36.500   6.539  10.180
 1361SOL    HW2 6091   3.446  -4.633  -0.825
 1362SOL     OW 6092   6.335   1.856   4.858
 1362SOL    HW1 6093   6.267   1.868   4.791
 1362SOL    HW2 6094  28.495   1.886  15.857
 1363SOL     OW 6095   3.796   0.940   8.625
 1363SOL    HW1 6096   3.722   0.988   8.660
 1363SOL    HW2 6097   3.760   0.855   8.598
 1364SOL     OW 6098  -0.604   1.375   2.152
 1364SOL    HW1 6099  10.343   1.379   2.173
 1364SOL    HW2 6100  -0.599  12.435  13.099
 1365SOL     OW 6101   9.795   0.720   1.011
 1365SOL    HW1 6102   9.720   0.665   1.036
 1365SOL    HW2 6103   9.843   0.732  -9.947
 1366SOL     OW 6104   4.098   8.631  10.426
 1366SOL    HW1 6105  15.223   8.652  10.390
 1366SOL    HW2 6106  15.128   8.690  10.501
 1367SOL     OW 6107   4.928   2.795   8.319
 1367SOL    HW1 6108   4.859 -19.343  19.330
 1367SOL    HW2 6109   5.007  13.780   8.320
 1368SOL     OW 6110  11.640   9.585   8.477
 1368SOL    HW1 6111  11.735   9.595  -2.564
 1368SOL    HW2 6112   0.586   9.490   8.476
 1369SOL     OW 6113   4.485  10.454  13.075
 1369SOL    HW1 6114   4.486  10.474 -19.950
 1369SOL    HW2 6115  15.441  10.410   2.022
 1370SOL     OW 6116   0.306   7.607   4.035
 1370SOL    HW1 6117   0.318  -3.372  -6.932
 1370SOL    HW2 6118   0.242  -3.496 -18.012
 1371SOL     OW 6119   0.424   4.671   3.273
 1371SOL    HW1 6120  11.493 -17.341   3.334
 1371SOL    HW2 6121   0.347   4.633   3.314
 1372SOL     OW 6122   3.902   3.302   1.885
 1372SOL    HW1 6123  14.976   3.291 -31.323
 1372SOL    HW2 6124   3.809   3.284   1.877
 1373SOL     OW 6125   6.655   3.781   9.385
 1373SOL    HW1 6126   6.606  -7.330   9.346
 1373SOL    HW2 6127   6.741   3.777   9.343
 1374SOL     OW 6128   4.093   7.675   0.210
 1374SOL    HW1 6129   4.142  18.752   0.138
 1374SOL    HW2 6130  -7.007  40.863   0.237
 1375SOL     OW 6131   9.146   7.469   3.280
 1375SOL    HW1 6132   9.141  18.429   3.334
 1375SOL    HW2 6133   9.238  -3.566  47.412
 1376SOL     OW 6134   3.393   7.092   5.506
 1376SOL    HW1 6135   3.418   7.054  16.461
 1376SOL    HW2 6136   3.302  29.145   5.518
 1377SOL     OW 6137   5.396  11.969   6.647
 1377SOL    HW1 6138   5.440 -10.195  -4.398
 1377SOL    HW2 6139  -5.635  11.995  -4.301
 1378SOL     OW 6140  10.447  10.499   4.821
 1378SOL    HW1 6141  10.529  10.450  15.872
 1378SOL    HW2 6142  10.459  10.549   4.740
 1379SOL     OW 6143   8.048   9.726   0.075
 1379SOL    HW1 6144   8.133   9.715   0.118
 1379SOL    HW2 6145   8.068   9.722  -0.019
 1380SOL     OW 6146  13.252   5.722  10.523
 1380SOL    HW1 6147 -41.946   5.646  10.582
 1380SOL    HW2 6148  13.343   5.752  10.523
 1381SOL     OW 6149   2.901   5.204   6.763
 1381SOL    HW1 6150  36.017 -28.010  28.837
 1381SOL    HW2 6151   2.837   5.226   6.831
 1382SOL     OW 6152  -3.013   7.964   0.409
 1382SOL    HW1 6153  30.161   7.892   0.381
 1382SOL    HW2 6154  30.162   8.019   0.462
 1383SOL     OW 6155   9.506   5.001   5.124
 1383SOL    HW1 6156   9.451   5.067   5.166
 1383SOL    HW2 6157   9.478  38.037  -5.876
 1384SOL     OW 6158   1.421   3.451  10.110
 1384SOL    HW1 6159   1.358   3.414  21.211
 1384SOL    HW2 6160   1.471  -7.664  10.078
 1385SOL     OW 6161   2.478  10.928   5.113
 1385SOL    HW1 6162  13.593  -0.062  38.200
 1385SOL    HW2 6163   2.503  10.836  16.142
 1386SOL     OW 6164   9.955  -1.165   9.786
 1386SOL    HW1 6165  -0.989  -1.171   9.787
 1386SOL    HW2 6166 -12.154  31.870   9.820
 1387SOL     OW 6167   6.619   3.271   3.138
 1387SOL    HW1 6168  28.645  -7.835   3.095
 1387SOL    HW2 6169   6.709   3.244   3.122
 1388SOL     OW 6170   9.419  10.511   2.411
 1388SOL    HW1 6171   9.366  10.570  24.436
 1388SOL    HW2 6172   9.489  10.481   2.352
 1389SOL     OW 6173   9.212   1.456   9.149
 1389SOL    HW1 6174   9.262  12.510   9.070
 1389SOL    HW2 6175   9.125   1.491 -12.949
 1390SOL     OW 6176  -0.395   7.958   4.672
 1390SOL    HW1 6177  -0.329   7.890  -6.354
 1390SOL    HW2 6178  10.577  -3.124   4.618
 1391SOL     OW 6179   4.796   9.933   3.572
 1391SOL    HW1 6180   4.816   9.929 -18.601
 1391SOL    HW2 6181   4.706  20.941 -18.501
 1392SOL     OW 6182   4.377   8.488   3.178
 1392SOL    HW1 6183  15.485   8.549   3.151
 1392SOL    HW2 6184   4.420   8.428  36.358
 1393SOL     OW 6185   1.028   2.112   7.258
 1393SOL    HW1 6186   1.062   2.182   7.202
 1393SOL    HW2 6187   1.102   2.085  18.351
 1394SOL     OW 6188  10.322   7.640  11.092
 1394SOL    HW1 6189 -11.797   7.726   0.038
 1394SOL    HW2 6190  -0.784 -14.501  11.064
 1395SOL     OW 6191   2.514   4.249   9.088
 1395SOL    HW1 6192   2.489  -6.813 -13.081
 1395SOL    HW2 6193   2.433   4.281 -12.951
 1396SOL     OW 6194   1.676   4.015   1.794
 1396SOL    HW1 6195   1.744   4.082   1.784
 1396SOL    HW2 6196   1.711   3.939  -9.292
 1397SOL     OW 6197   7.805   6.759   3.211
 1397SOL    HW1 6198 -25.306 -15.288   3.300
 1397SOL    HW2 6199 -14.321 -37.331  14.204
 1398SOL     OW 6200  10.052   9.824   0.540
 1398SOL    HW1 6201  10.023   9.746   0.587
 1398SOL    HW2 6202  10.077   9.792   0.454
 1399SOL     OW 6203   2.346   6.078   0.678
 1399SOL    HW1 6204   2.361  28.248 -10.336
 1399SOL    HW2 6205   2.427   6.033   0.702
 1400SOL     OW 6206   6.977   0.241   3.298
 1400SOL    HW1 6207   7.042  11.213   3.280
 1400SOL    HW2 6208  18.049   0.319  -7.787
 1401SOL     OW 6209  10.937  10.803   5.531
 1401SOL    HW1 6210  10.933  -0.152  16.614
 1401SOL    HW2 6211  10.936  10.738  16.641
 1402SOL     OW 6212   3.914   5.601  11.239
 1402SOL    HW1 6213  26.008  -5.504  11.307
 1402SOL    HW2 6214   3.828   5.578 -10.877
 1403SOL     OW 6215   0.983   5.593   4.369
 1403SOL    HW1 6216  11.927   5.595  26.442
 1403SOL    HW2 6217   1.002   5.603   4.462
 1404SOL     OW 6218   6.254   9.475   1.096
 1404SOL    HW1 6219   6.206   9.425   1.162
 1404SOL    HW2 6220  17.312   9.559   1.139
 1405SOL     OW 6221   0.612   3.872   7.950
 1405SOL    HW1 6222   0.632  -7.168   8.043
 1405SOL    HW2 6223   0.527  -7.123  -3.095
 1406SOL     OW 6224  11.858   4.567  10.681
 1406SOL    HW1 6225  11.836  26.698  10.603
 1406SOL    HW2 6226 -10.171  -6.412  -0.303
 1407SOL     OW 6227   4.237  12.615   1.131
 1407SOL    HW1 6228   4.233   1.635   1.057
 1407SOL    HW2 6229   4.153  -9.511   1.128
 1408SOL     OW 6230   7.003   5.652   9.420
 1408SOL    HW1 6231 -15.017   5.577  20.450
 1408SOL    HW2 6232   7.009   5.697   9.336
 1409SOL     OW 6233   4.212   4.835   8.551
 1409SOL    HW1 6234   4.131   4.816   8.505
 1409SOL    HW2 6235  15.291   4.907   8.501
 1410SOL     OW 6236   0.531   7.645   5.103
 1410SOL    HW1 6237   0.536  -3.446  -6.017
 1410SOL    HW2 6238  11.595  18.623   5.172
 1411SOL     OW 6239   6.401  11.019   8.093
 1411SOL    HW1 6240   6.392  -0.102   8.043
 1411SOL    HW2 6241   6.352  11.083   8.043
 1412SOL     OW 6242   4.081   8.464   2.834
 1412SOL    HW1 6243   4.041   8.527   2.895
 1412SOL    HW2 6244  15.046  -2.615   2.789
 1413SOL     OW 6245   6.038   3.426   2.783
 1413SOL    HW1 6246  -4.982  -7.671  24.788
 1413SOL    HW2 6247   5.965   3.384   2.828
 1414SOL     OW 6248   3.979   7.835   8.579
 1414SOL    HW1 6249   3.968  -3.110   8.579
 1414SOL    HW2 6250   3.955  -3.232   8.490
 1415SOL     OW 6251   4.154   1.811  10.802
 1415SOL    HW1 6252   4.151   1.720  10.832
 1415SOL    HW2 6253  37.365  -9.207  10.798
 1416SOL     OW 6254   8.811   4.427   1.492
 1416SOL    HW1 6255   8.774   4.383  -9.624
 1416SOL    HW2 6256 -13.326   4.502   1.506
 1417SOL     OW 6257   0.039   8.952   4.202
 1417SOL    HW1 6258   0.081  20.062   4.153
 1417SOL    HW2 6259  -0.051   8.983  -6.825
 1418SOL     OW 6260   7.474   0.304   8.292
 1418SOL    HW1 6261  29.479  11.316  -2.802
 1418SOL    HW2 6262   7.485   0.233   8.355
 1419SOL     OW 6263   0.352   4.729   9.198
 1419SOL    HW1 6264   0.309   4.663   9.253
 1419SOL    HW2 6265  11.350   4.811   9.223
 1420SOL     OW 6266  10.202   6.080   6.513
 1420SOL    HW1 6267  10.159  17.187  17.500
 1420SOL    HW2 6268  -0.751  17.155   6.532
 1421SOL     OW 6269  10.790   9.832   7.235
 1421SOL    HW1 6270  10.826   9.808   7.320
 1421SOL    HW2 6271  10.757   9.750   7.198
 1422SOL     OW 6272   6.898  -1.631   8.227
 1422SOL    HW1 6273  17.908   9.480   8.171
 1422SOL    HW2 6274   6.993  31.501  30.313
 1423SOL     OW 6275   9.356   5.900   9.927
 1423SOL    HW1 6276   9.320   5.986  20.945
 1423SOL    HW2 6277   9.297  16.905   9.995
 1424SOL     OW 6278  10.245   9.109   7.297
 1424SOL    HW1 6279  10.242   9.084   7.389
 1424SOL    HW2 6280  10.180   9.051   7.255
 1425SOL     OW 6281   2.406   7.068   9.875
 1425SOL    HW1 6282  13.415   7.005   9.809
 1425SOL    HW2 6283   2.356   7.046   9.954
 1426SOL     OW 6284   9.310   8.320   3.055
 1426SOL    HW1 6285   9.326   8.367  -8.066
 1426SOL    HW2 6286   9.239  -2.780   3.035
 1427SOL     OW 6287  10.017   2.085   2.888
 1427SOL    HW1 6288  10.100   2.064   2.845
 1427SOL    HW2 6289  10.038   2.159   2.945
 1428SOL     OW 6290   7.342   1.504   6.931
 1428SOL    HW1 6291   7.308   1.449   6.861
 1428SOL    HW2 6292   7.301  -9.450   6.916
 1429SOL     OW 6293   2.641   0.003   4.755
 1429SOL    HW1 6294  13.604  -0.051   4.735
 1429SOL    HW2 6295   2.708  10.981   4.783
 1430SOL     OW 6296   6.893   6.226   1.541
 1430SOL    HW1 6297   6.812   6.262  -9.536
 1430SOL    HW2 6298  17.925   6.245   1.635
 1431SOL     OW 6299   7.089   0.359   5.541
 1431SOL    HW1 6300   7.009  11.353 -16.566
 1431SOL    HW2 6301  18.149   0.322   5.626
 1432SOL     OW 6302   5.770  10.757   5.581
 1432SOL    HW1 6303  -5.361  10.778   5.598
 1432SOL    HW2 6304  27.848  10.707   5.499
 1433SOL     OW 6305   5.797   6.995   1.318
 1433SOL    HW1 6306 -16.289 -15.091   1.222
 1433SOL    HW2 6307 -16.204   7.047 -20.747
 1434SOL     OW 6308   6.085   3.998   2.523
 1434SOL    HW1 6309   6.093   4.079  -8.567
 1434SOL    HW2 6310   6.085  37.145   2.614
 1435SOL     OW 6311   9.077   8.708  10.044
 1435SOL    HW1 6312   9.143   8.666   9.989
 1435SOL    HW2 6313   9.050   8.786   9.995
 1436SOL     OW 6314   9.126   7.074   1.419
 1436SOL    HW1 6315  31.202  18.197   1.372
 1436SOL    HW2 6316  20.076   7.040  12.453
 1437SOL     OW 6317   1.964   6.729  11.547
 1437SOL    HW1 6318  12.991   6.728  11.642
 1437SOL    HW2 6319   2.000  28.894   0.488
 1438SOL     OW 6320   9.878   9.045   5.649
 1438SOL    HW1 6321   9.850   8.972   5.594
 1438SOL    HW2 6322  20.990   9.085   5.600
 1439SOL     OW 6323  -0.762   0.377   9.356
 1439SOL    HW1 6324  10.345   0.365  20.462
 1439SOL    HW2 6325  10.202   0.412 -12.675
 1440SOL     OW 6326   8.634   9.062   6.450
 1440SOL    HW1 6327   8.573   8.989   6.460
 1440SOL    HW2 6328   8.624   9.112   6.531
 1441SOL     OW 6329   6.313   3.023   6.385
 1441SOL    HW1 6330  17.341   3.002  -4.562
 1441SOL    HW2 6331  17.293   2.964 -15.740
 1442SOL     OW 6332   9.354   9.142  10.806
 1442SOL    HW1 6333   9.371   9.230  10.840
 1442SOL    HW2 6334   9.368  20.124  10.881
 1443SOL     OW 6335   6.218   1.484   8.193
 1443SOL    HW1 6336   6.234   1.488   8.287
 1443SOL    HW2 6337 -15.875   1.576   8.168
 1444SOL     OW 6338   5.523   9.229   6.014
 1444SOL    HW1 6339   5.582   9.174   5.963
 1444SOL    HW2 6340  -5.516   9.190   6.102
 1445SOL     OW 6341  10.630   3.892   0.868
 1445SOL    HW1 6342  10.717   3.865  33.955
 1445SOL    HW2 6343  10.628   3.987   0.857
 1446SOL     OW 6344   2.306   2.235   9.804
 1446SOL    HW1 6345   2.381   2.205   9.855
 1446SOL    HW2 6346   2.232   2.186   9.840
 1447SOL     OW 6347   6.883   1.571   6.513
 1447SOL    HW1 6348   6.893   1.666   6.507
 1447SOL    HW2 6349   6.807   1.552   6.458
 1448SOL     OW 6350  10.804   6.107   1.875
 1448SOL    HW1 6351  10.847  17.197   1.944
 1448SOL    HW2 6352  10.852   6.024  23.952
 1449SOL     OW 6353   4.525   2.871   9.458
 1449SOL    HW1 6354   4.548   2.783   9.488
 1449SOL    HW2 6355   4.438  -8.177   9.420
 1450SOL     OW 6356   5.838  10.011   0.155
 1450SOL    HW1 6357  16.964  -1.068   0.147
 1450SOL    HW2 6358   5.846  10.071   0.229
 1451SOL     OW 6359   5.231  10.403   2.153
 1451SOL    HW1 6360   5.228  10.324   2.099
 1451SOL    HW2 6361   5.240  10.475   2.090
 1452SOL     OW 6362  11.567  -0.026   6.545
 1452SOL    HW1 6363  11.578 -10.982   6.590
 1452SOL    HW2 6364   0.608  33.081   6.495
 1453SOL     OW 6365  10.468   2.566   8.075
 1453SOL    HW1 6366  -0.532   2.481   8.096
 1453SOL    HW2 6367  10.543   2.625   8.066
 1454SOL     OW 6368   7.868   4.127   5.560
 1454SOL    HW1 6369   7.803   4.153  -5.414
 1454SOL    HW2 6370   7.845   4.178   5.482
 1455SOL     OW 6371   2.315   9.576  12.243
 1455SOL    HW1 6372  -8.810   9.535  12.256
 1455SOL    HW2 6373   2.344  31.623  -9.922
 1456SOL     OW 6374  10.032   4.732   7.809
 1456SOL    HW1 6375  10.097   4.759   7.874
 1456SOL    HW2 6376 -12.102   4.809   7.797
 1457SOL     OW 6377   4.429   6.176   8.965
 1457SOL    HW1 6378   4.449   6.222  -2.156
 1457SOL    HW2 6379   4.437   6.083   8.943
 1458SOL     OW 6380   6.418   3.194   7.043
 1458SOL    HW1 6381 -37.707   3.229   7.126
 1458SOL    HW2 6382 -15.719   3.122   7.069
 1459SOL     OW 6383   0.127   0.127   7.770
 1459SOL    HW1 6384  22.123   0.080   7.756
 1459SOL    HW2 6385   0.102   0.219   7.767
 1460SOL     OW 6386   3.542   5.936   0.218
 1460SOL    HW1 6387 -18.495   5.896   0.142
 1460SOL    HW2 6388  -7.511  17.067   0.192
 1461SOL     OW 6389   1.169   4.284  10.357
 1461SOL    HW1 6390   1.108 -17.721  10.356
 1461SOL    HW2 6391   1.125 -17.863  -0.734
 1462SOL     OW 6392   4.818   1.521  10.707
 1462SOL    HW1 6393   4.798   1.553  -0.245
 1462SOL    HW2 6394   4.849  12.471  -0.319
 1463SOL     OW 6395   5.328   9.056   7.015
 1463SOL    HW1 6396   5.291   9.020   7.095
 1463SOL    HW2 6397  16.296   9.107   6.976
 1464SOL     OW 6398   1.585   7.710   7.760
 1464SOL    HW1 6399  23.640   7.645   7.694
 1464SOL    HW2 6400  34.761   7.771   7.713
 1465SOL     OW 6401   1.980   4.481   6.482
 1465SOL    HW1 6402   1.945   4.419   6.419
 1465SOL    HW2 6403   2.071   4.496  61.651
 1466SOL     OW 6404   6.768   7.184   4.582
 1466SOL    HW1 6405  -4.310 -14.852 -17.420
 1466SOL    HW2 6406  28.875  18.138   4.615
 1467SOL     OW 6407   6.700   0.222   0.353
 1467SOL    HW1 6408   6.769   0.285   0.334
 1467SOL    HW2 6409   6.722   0.187   0.440
 1468SOL     OW 6410   5.205   8.987   7.724
 1468SOL    HW1 6411   5.294   9.020   7.710
 1468SOL    HW2 6412  16.194   9.025   7.651
 1469SOL     OW 6413   2.987   2.457   0.098
 1469SOL    HW1 6414  13.986 -19.706   0.074
 1469SOL    HW2 6415   2.978   2.461  11.233
 1470SOL     OW 6416   4.836   3.169   4.750
 1470SOL    HW1 6417   4.919   3.131 -28.397
 1470SOL    HW2 6418   4.840   3.166  15.885
 1471SOL     OW 6419  10.159  11.394   2.078
 1471SOL    HW1 6420  10.204   0.298   2.141
 1471SOL    HW2 6421  10.074  11.411  24.197
 1472SOL     OW 6422   5.782   8.738   0.758
 1472SOL    HW1 6423   5.843  19.825   0.701
 1472SOL    HW2 6424   5.837 -13.400 -10.230
 1473SOL     OW 6425   5.651   6.194   9.750
 1473SOL    HW1 6426   5.693   6.168   9.833
 1473SOL    HW2 6427  -5.482   6.191   9.769
 1474SOL     OW 6428   5.098   3.210   1.814
 1474SOL    HW1 6429   5.010   3.177  12.871
 1474SOL    HW2 6430  16.127   3.271   1.741
 1475SOL     OW 6431   3.441   5.870   5.347
 1475SOL    HW1 6432   3.465   5.872   5.255
 1475SOL    HW2 6433   3.478 -16.291   5.380
 1476SOL     OW 6434   8.437   0.814   2.965
 1476SOL    HW1 6435   8.457   0.791  -8.165
 1476SOL    HW2 6436   8.423 -10.131  14.002
 1477SOL     OW 6437   0.284   7.996   8.410
 1477SOL    HW1 6438   0.276  29.997  19.394
 1477SOL    HW2 6439   0.238  -2.975   8.361
 1478SOL     OW 6440   8.152   7.871  -0.443
 1478SOL    HW1 6441   8.228   7.894  32.730
 1478SOL    HW2 6442  30.269  29.907  54.678
 1479SOL     OW 6443   3.912   0.195   1.252
 1479SOL    HW1 6444   3.912   0.289   1.273
 1479SOL    HW2 6445   3.994   0.182   1.204
 1480SOL     OW 6446   3.575   0.760   8.182
 1480SOL    HW1 6447  14.702   0.723   8.169
 1480SOL    HW2 6448   3.582   0.849  -2.893
 1481SOL     OW 6449   1.557   5.157   8.370
 1481SOL    HW1 6450   1.648   5.131   8.385
 1481SOL    HW2 6451  23.596   5.080   8.330
 1482SOL     OW 6452   5.639   2.003   4.934
 1482SOL    HW1 6453 -27.388  24.052   4.932
 1482SOL    HW2 6454   5.640   2.076   4.995
 1483SOL     OW 6455   5.975   5.307   2.573
 1483SOL    HW1 6456  16.988   5.282 -19.417
 1483SOL    HW2 6457  39.131   5.226 -19.543
 1484SOL     OW 6458   8.544   4.891   3.182
 1484SOL    HW1 6459   8.624   4.849   3.151
 1484SOL    HW2 6460  -2.484  -6.140   3.276
 1485SOL     OW 6461   6.446   3.800   9.024
 1485SOL    HW1 6462   6.420   3.773   9.112
 1485SOL    HW2 6463   6.380   3.863  31.076
 1486SOL     OW 6464  -0.161   2.516   9.288
 1486SOL    HW1 6465  -0.124   2.470   9.362
 1486SOL    HW2 6466  10.813   2.456   9.252
 1487SOL     OW 6467   8.882   8.331   8.871
 1487SOL    HW1 6468   8.815   8.382   8.825
 1487SOL    HW2 6469  -2.077   8.348  30.902
 1488SOL     OW 6470   2.680   7.823   9.621
 1488SOL    HW1 6471   2.741   7.758  31.665
 1488SOL    HW2 6472   2.719  18.947  -1.441
 1489SOL     OW 6473  10.180   9.309  -0.324
 1489SOL    HW1 6474  10.127   9.334  10.640
 1489SOL    HW2 6475  10.236 -12.694  -0.308
 1490SOL     OW 6476  10.405   6.538   8.731
 1490SOL    HW1 6477  10.467   6.522   8.803
 1490SOL    HW2 6478  10.343  -4.438  -2.273
 1491SOL     OW 6479   9.850  13.447   6.107
 1491SOL    HW1 6480   9.816 -19.756   6.078
 1491SOL    HW2 6481   9.939 -19.668  17.112
 1492SOL     OW 6482   9.316   7.742   3.677
 1492SOL    HW1 6483   9.245   7.735   3.613
 1492SOL    HW2 6484  20.350   7.661   3.729
 1493SOL     OW 6485   3.127   7.641   3.111
 1493SOL    HW1 6486   3.038   7.623  36.258
 1493SOL    HW2 6487   3.152   7.565  14.099
 1494SOL     OW 6488   4.410   9.457   2.082
 1494SOL    HW1 6489 -17.742   9.410   2.042
 1494SOL    HW2 6490   4.373   9.498   2.160
 1495SOL     OW 6491   9.339  10.754  -0.842
 1495SOL    HW1 6492  -1.639  10.823  21.262
 1495SOL    HW2 6493   9.396  -0.359  -0.867
 1496SOL     OW 6494   9.985   7.537   4.498
 1496SOL    HW1 6495  10.013   7.449  -6.516
 1496SOL    HW2 6496  10.011   7.545   4.406
 1497SOL     OW 6497   9.363   2.845   5.769
 1497SOL    HW1 6498   9.283   2.895  -5.252
 1497SOL    HW2 6499   9.401  24.908   5.856
 1498SOL     OW 6500   5.091   3.567   1.279
 1498SOL    HW1 6501   5.121   3.477  23.373
 1498SOL    HW2 6502   5.099  -7.430   1.365
 1499SOL     OW 6503   8.421   1.640   2.859
 1499SOL    HW1 6504   8.445   1.588   2.935
 1499SOL    HW2 6505   8.329   1.620   2.844
 1500SOL     OW 6506  10.392  12.199   8.080
 1500SOL    HW1 6507  10.412  12.289  -2.932
 1500SOL    HW2 6508 -11.781 -20.916   8.057
 1501SOL     OW 6509   0.276   7.488   7.498
 1501SOL    HW1 6510   0.269   7.584  29.579
 1501SOL    HW2 6511   0.314   7.465   7.582
 1502SOL     OW 6512   6.517   0.824   5.291
 1502SOL    HW1 6513   6.606   0.815   5.325
 1502SOL    HW2 6514   6.515  11.951   5.252
 1503SOL     OW 6515   5.148  10.495   9.120
 1503SOL    HW1 6516   5.120  10.413  20.119
 1503SOL    HW2 6517  38.185  10.544   9.132
 1504SOL     OW 6518   9.583   2.450   8.830
 1504SOL    HW1 6519   9.591   2.403   8.747
 1504SOL    HW2 6520  -1.491 -19.543   8.807
 1505SOL     OW 6521   3.502   4.074   4.153
 1505SOL    HW1 6522   3.481   4.054   4.062
 1505SOL    HW2 6523  14.554   4.169   4.156
 1506SOL     OW 6524   0.052   5.595  -1.114
 1506SOL    HW1 6525   0.011   5.589  -1.201
 1506SOL    HW2 6526  22.058   5.599  21.026
 1507SOL     OW 6527   6.749   4.267  10.981
 1507SOL    HW1 6528  17.768   4.278  10.888
 1507SOL    HW2 6529   6.770 -17.724  11.012
 1508SOL     OW 6530   7.103  10.781   5.144
 1508SOL    HW1 6531   7.134  10.856   5.196
 1508SOL    HW2 6532   7.172  10.716  27.232
 1509SOL     OW 6533   1.046   9.620   6.642
 1509SOL    HW1 6534  -9.948   9.643   6.723
 1509SOL    HW2 6535   1.038   9.525   6.645
 1510SOL     OW 6536   3.233  -1.098   8.899
 1510SOL    HW1 6537   3.153  20.930  -2.128
 1510SOL    HW2 6538  -7.744  -1.160  19.901
 1511SOL     OW 6539   7.149   6.618   0.339
 1511SOL    HW1 6540   7.190   6.633   0.254
 1511SOL    HW2 6541   7.173  39.647   0.362
 1512SOL     OW 6542   3.632   8.322   6.134
 1512SOL    HW1 6543   3.582   8.324  -4.987
 1512SOL    HW2 6544   3.569   8.347   6.202
 1513SOL     OW 6545   7.382   0.817  -0.307
 1513SOL    HW1 6546   7.464   0.837  -0.262
 1513SOL    HW2 6547   7.372 -10.152  21.708
 1514SOL     OW 6548   0.390  11.223   1.461
 1514SOL    HW1 6549   0.388  11.158  -9.649
 1514SOL    HW2 6550   0.414   0.265   1.418
 1515SOL     OW 6551  -0.475   5.182   9.498
 1515SOL    HW1 6552  10.611  27.334   9.540
 1515SOL    HW2 6553  -0.548  38.282   9.557
 1516SOL     OW 6554  11.348   6.880   4.259
 1516SOL    HW1 6555   0.292   6.883   4.165
 1516SOL    HW2 6556  11.433   6.924  -6.770
 1517SOL     OW 6557   4.967   6.577   7.560
 1517SOL    HW1 6558  -6.100   6.542   7.644
 1517SOL    HW2 6559  -6.048  -4.539   7.508
 1518SOL     OW 6560   8.404   8.185   1.368
 1518SOL    HW1 6561  -2.557  -2.867  23.500
 1518SOL    HW2 6562   8.432  -2.800   1.295
 1519SOL     OW 6563   5.624   1.397   9.484
 1519SOL    HW1 6564   5.531   1.423   9.483
 1519SOL    HW2 6565   5.633  12.382   9.562
 1520SOL     OW 6566   9.353  -1.442   9.649
 1520SOL    HW1 6567   9.318  20.561   9.604
 1520SOL    HW2 6568   9.276   9.650   9.672
 1521SOL     OW 6569   8.965   2.428  10.647
 1521SOL    HW1 6570   8.926   2.362  10.705
 1521SOL    HW2 6571   8.984   2.502  10.704
 1522SOL     OW 6572   9.263   5.565   0.052
 1522SOL    HW1 6573  -1.808   5.501  -0.012
 1522SOL    HW2 6574   9.260  -5.520   0.136
 1523SOL     OW 6575   3.355   9.963  -1.187
 1523SOL    HW1 6576   3.339   9.897   9.785
 1523SOL    HW2 6577   3.274   9.967   9.903
 1524SOL     OW 6578   5.355   7.347   9.021
 1524SOL    HW1 6579   5.276   7.378   9.065
 1524SOL    HW2 6580   5.409   7.425   9.009
 1525SOL     OW 6581   7.429   5.887   3.409
 1525SOL    HW1 6582   7.383   5.882  -7.714
 1525SOL    HW2 6583   7.382   5.827  -7.573
 1526SOL     OW 6584   9.156   8.744   3.879
 1526SOL    HW1 6585   9.158  19.703   3.827
 1526SOL    HW2 6586   9.142  19.753  26.048
 1527SOL     OW 6587   7.303   7.335   4.342
 1527SOL    HW1 6588   7.258  -3.782   4.378
 1527SOL    HW2 6589   7.270   7.408   4.393
 1528SOL     OW 6590   6.232  10.756   1.858
 1528SOL    HW1 6591  39.382  10.791   1.941
 1528SOL    HW2 6592   6.279  10.808   1.792
 1529SOL     OW 6593   0.477   9.441   5.406
 1529SOL    HW1 6594   0.395  20.530  27.475
 1529SOL    HW2 6595   0.542   9.493   5.358
 1530SOL     OW 6596   1.622  10.070   9.184
 1530SOL    HW1 6597   1.706 -11.994   9.141
 1530SOL    HW2 6598   1.556  10.092   9.118
 1531SOL     OW 6599   4.885   1.936   7.087
 1531SOL    HW1 6600   4.791   1.919  18.139
 1531SOL    HW2 6601   4.888   2.012   7.030
 1532SOL     OW 6602   4.913   6.386   3.154
 1532SOL    HW1 6603   4.877 -15.778   3.180
 1532SOL    HW2 6604   4.836   6.442   3.143
 1533SOL     OW 6605   8.770   1.642   0.283
 1533SOL    HW1 6606   8.780   1.549   0.263
 1533SOL    HW2 6607   8.860   1.676   0.283
 1534SOL     OW 6608   1.463   9.989   3.499
 1534SOL    HW1 6609   1.378   9.964   3.535
 1534SOL    HW2 6610   1.501   9.907   3.469
 1535SOL     OW 6611  10.284   8.176   0.098
 1535SOL    HW1 6612  10.237   8.191   0.181
 1535SOL    HW2 6613  -0.820  19.172   0.042
 1536SOL     OW 6614  11.224   9.536   0.569
 1536SOL    HW1 6615   0.181  20.482   0.548
 1536SOL    HW2 6616  11.255   9.539   0.659
 1537SOL     OW 6617   4.544   2.297   8.912
 1537SOL    HW1 6618  -6.506   2.336   8.825
 1537SOL    HW2 6619   4.490   2.218  19.949
 1538SOL     OW 6620   7.707  11.215   9.916
 1538SOL    HW1 6621  29.766   0.232   9.990
 1538SOL    HW2 6622   7.725  11.275   9.844
 1539SOL     OW 6623   0.853   2.422   1.330
 1539SOL    HW1 6624 -10.259   2.358  -9.706
 1539SOL    HW2 6625   0.829   2.481   1.259
 1540SOL     OW 6626  12.939  -0.043   0.188
 1540SOL    HW1 6627  -9.084  -0.114   0.156
 1540SOL    HW2 6628  -9.109  11.074   0.141
 1541SOL     OW 6629   3.283   4.264   1.101
 1541SOL    HW1 6630   3.231  -6.823   1.166
 1541SOL    HW2 6631   3.279   4.210   1.022
 1542SOL     OW 6632   6.920   8.002   3.111
 1542SOL    HW1 6633   7.000   7.954   3.089
 1542SOL    HW2 6634   6.947   8.065   3.177
 1543SOL     OW 6635   3.563   5.201   4.626
 1543SOL    HW1 6636   3.472   5.187   4.651
 1543SOL    HW2 6637  14.650   5.128   4.664
 1544SOL     OW 6638   6.878   6.618  -0.241
 1544SOL    HW1 6639 -15.139  -4.349  10.793
 1544SOL    HW2 6640   6.856  28.692  32.971
 1545SOL     OW 6641   4.979   8.115   8.774
 1545SOL    HW1 6642  15.958   8.076   8.838
 1545SOL    HW2 6643   5.066   8.090   8.805
 1546SOL     OW 6644   8.790   1.870  10.514
 1546SOL    HW1 6645  19.887   1.944  10.494
 1546SOL    HW2 6646   8.803  -9.185  10.608
 1547SOL     OW 6647   6.717  -0.120   0.957
 1547SOL    HW1 6648   6.658  21.975   0.884
 1547SOL    HW2 6649  17.838  21.929   0.917
 1548SOL     OW 6650   2.568   6.870  10.642
 1548SOL    HW1 6651   2.546   6.888  10.550
 1548SOL    HW2 6652   2.618   6.947  10.670
 1549SOL     OW 6653   5.037   3.710   8.818
 1549SOL    HW1 6654  27.197   3.693   8.866
 1549SOL    HW2 6655   5.016   3.801   8.838
 1550SOL     OW 6656   5.890  10.155   7.824
 1550SOL    HW1 6657 -16.168  10.190   7.910
 1550SOL    HW2 6658   5.916  10.223   7.762
 1551SOL     OW 6659   4.660   1.759   2.663
 1551SOL    HW1 6660   4.628  -9.324   2.742
 1551SOL    HW2 6661   4.734   1.704   2.634
 1552SOL     OW 6662   4.818   9.999   3.320
 1552SOL    HW1 6663   4.745   9.958   3.274
 1552SOL    HW2 6664   4.885  10.012   3.253
 1553SOL     OW 6665   5.968  11.712   3.572
 1553SOL    HW1 6666   5.965 -10.414   3.655
 1553SOL    HW2 6667   5.877   0.696   3.554
 1554SOL     OW 6668  10.326  10.290   7.767
 1554SOL    HW1 6669 -11.734  10.201   7.795
 1554SOL    HW2 6670  10.230  10.297  18.812
 1555SOL     OW 6671   6.002   0.238   2.620
 1555SOL    HW1 6672   6.043   0.272   2.699
 1555SOL    HW2 6673  -5.029   0.308   2.556
 1556SOL     OW 6674   2.103   1.861   8.520
 1556SOL    HW1 6675   2.174   1.895   8.467
 1556SOL    HW2 6676   2.024  -9.138 -13.595
 1557SOL     OW 6677   4.748   6.937   1.978
 1557SOL    HW1 6678  -6.387  17.979   1.992
 1557SOL    HW2 6679  -6.280   6.971   1.890
 1558SOL     OW 6680   8.078   9.295   6.638
 1558SOL    HW1 6681   8.064  20.380  -4.484
 1558SOL    HW2 6682   8.133   9.220   6.616
 1559SOL     OW 6683  11.860  10.112   2.107
 1559SOL    HW1 6684   0.773  10.116   2.190
 1559SOL    HW2 6685   0.756  10.080   2.044
 1560SOL     OW 6686   1.146   9.673  -0.869
 1560SOL    HW1 6687   1.104   9.692  32.166
 1560SOL    HW2 6688   1.176   9.758  -0.837
 1561SOL     OW 6689   4.427   1.381   4.422
 1561SOL    HW1 6690   4.389   1.308   4.374
 1561SOL    HW2 6691  -6.574  12.477  -6.686
 1562SOL     OW 6692   9.208   8.123   6.308
 1562SOL    HW1 6693   9.204  30.241  17.435
 1562SOL    HW2 6694 -12.962   8.121   6.278
 1563SOL     OW 6695   1.518   9.743   6.372
 1563SOL    HW1 6696   1.450  -1.303   6.438
 1563SOL    HW2 6697   1.570   9.819   6.398
 1564SOL     OW 6698   1.023   6.122   3.901
 1564SOL    HW1 6699   1.104   6.141   3.854
 1564SOL    HW2 6700  23.093  17.234   3.963
 1565SOL     OW 6701   4.019   4.673   2.428
 1565SOL    HW1 6702   4.047   4.765  -8.610
 1565SOL    HW2 6703   4.082  48.789   2.370
 1566SOL     OW 6704   0.892   5.412   8.485
 1566SOL    HW1 6705   0.967   5.463  19.555
 1566SOL    HW2 6706   0.895  16.459   8.390
 1567SOL     OW 6707   6.498   5.337   0.446
 1567SOL    HW1 6708  17.471   5.396   0.483
 1567SOL    HW2 6709   6.449   5.280  44.545
 1568SOL     OW 6710  11.301   0.920   9.508
 1568SOL    HW1 6711  11.288   0.838   9.459
 1568SOL    HW2 6712   0.275  45.144  20.480
 1569SOL     OW 6713   3.094   9.763   1.024
 1569SOL    HW1 6714   3.032  -1.304   0.957
 1569SOL    HW2 6715 -30.075   9.822   1.081
 1570SOL     OW 6716   6.540  10.229   6.609
 1570SOL    HW1 6717  -4.559  10.270   6.546
 1570SOL    HW2 6718   6.620  10.214  -4.479
 1571SOL     OW 6719   4.701   2.452   1.133
 1571SOL    HW1 6720  15.767  13.536   1.052
 1571SOL    HW2 6721   4.669   2.523   1.189
 1572SOL     OW 6722   9.857   7.044   9.945
 1572SOL    HW1 6723   9.796   7.100   9.897
 1572SOL    HW2 6724 -12.272   7.012  10.020
 1573SOL     OW 6725   6.596  -0.639  -1.724
 1573SOL    HW1 6726   6.502  -0.624  31.394
 1573SOL    HW2 6727   6.618  21.422  -1.816
 1574SOL     OW 6728   1.352  12.327  -0.229
 1574SOL    HW1 6729   1.329  12.363  -0.143
 1574SOL    HW2 6730   1.443 -20.821  10.821
 1575SOL     OW 6731   4.037   5.989   2.764
 1575SOL    HW1 6732   3.951  16.988   2.776
 1575SOL    HW2 6733 -18.019 -16.109   2.673
 1576SOL     OW 6734   5.200   1.731   7.734
 1576SOL    HW1 6735   5.287   1.693   7.738
 1576SOL    HW2 6736  16.199  -9.348  18.697
 1577SOL     OW 6737   3.905   8.813   8.350
 1577SOL    HW1 6738  15.007   8.867   8.301
 1577SOL    HW2 6739  14.971  30.802  19.371
 1578SOL     OW 6740   9.903   3.341   1.616
 1578SOL    HW1 6741 -12.112   3.293   1.563
 1578SOL    HW2 6742   9.846   3.384   1.552
 1579SOL     OW 6743   6.528   7.410   9.842
 1579SOL    HW1 6744  17.600 -14.668 -12.327
 1579SOL    HW2 6745  28.547   7.484   9.847
 1580SOL     OW 6746   3.692  10.279   7.616
 1580SOL    HW1 6747   3.714  10.230  18.576
 1580SOL    HW2 6748 -18.302  10.298   7.656
 1581SOL     OW 6749  11.335   3.277   0.421
 1581SOL    HW1 6750 -10.747   3.372   0.433
 1581SOL    HW2 6751  11.400   3.247   0.485
 1582SOL     OW 6752   0.180  10.628   2.298
 1582SOL    HW1 6753   0.266  10.642   2.339
 1582SOL    HW2 6754   0.174  10.696   2.231
 1583SOL     OW 6755   1.303   2.418   8.410
 1583SOL    HW1 6756   1.213   2.384  19.444
 1583SOL    HW2 6757  23.372 -30.607   8.424
 1584SOL     OW 6758   8.254   7.397  11.349
 1584SOL    HW1 6759   8.189  18.488  11.303
 1584SOL    HW2 6760   8.308   7.462   0.355
 1585SOL     OW 6761  -0.114   4.359   8.441
 1585SOL    HW1 6762  10.880   4.308   8.507
 1585SOL    HW2 6763  -0.048   4.408   8.490
 1586SOL     OW 6764   5.285   1.859   4.555
 1586SOL    HW1 6765   5.198   1.821   4.569
 1586SOL    HW2 6766   5.343   1.805   4.608
 1587SOL     OW 6767   9.824   2.631   3.937
 1587SOL    HW1 6768   9.745   2.624   3.882
 1587SOL    HW2 6769   9.826  -8.318   3.966
 1588SOL     OW 6770   8.042   8.656  10.550
 1588SOL    HW1 6771  30.048   8.650  -0.552
 1588SOL    HW2 6772  19.080   8.572  10.596
 1589SOL     OW 6773   4.549   5.629  11.797
 1589SOL    HW1 6774   4.627   5.629 -10.226
 1589SOL    HW2 6775  15.559   5.720  11.796
 1590SOL     OW 6776   6.748   0.632   3.670
 1590SOL    HW1 6777   6.756 -10.488   3.722
 1590SOL    HW2 6778   6.687  11.726   3.720
 1591SOL     OW 6779  10.311   5.953   8.070
 1591SOL    HW1 6780  10.325   5.914   8.157
 1591SOL    HW2 6781  10.235   6.009   8.081
 1592SOL     OW 6782   9.156   7.893   6.991
 1592SOL    HW1 6783   9.153   7.946   7.070
 1592SOL    HW2 6784  20.162   7.952   6.922
 1593SOL     OW 6785  10.930   8.970   8.006
 1593SOL    HW1 6786  10.961  -2.159  -3.053
 1593SOL    HW2 6787  -0.049   9.002   8.072
 1594SOL     OW 6788   4.251   2.491   8.412
 1594SOL    HW1 6789  -6.779  13.438  -2.653
 1594SOL    HW2 6790   4.283   2.540  -2.703
 1595SOL     OW 6791   4.946   7.509   2.918
 1595SOL    HW1 6792   5.010   7.470   2.977
 1595SOL    HW2 6793   4.991 -14.563   2.834
 1596SOL     OW 6794   4.620   8.076   2.094
 1596SOL    HW1 6795   4.592  -3.030   2.031
 1596SOL    HW2 6796   4.713   8.089  24.154
 1597SOL     OW 6797   3.825   3.802  10.676
 1597SOL    HW1 6798   3.741   3.811  10.721
 1597SOL    HW2 6799  -7.176   3.890  10.680
 1598SOL     OW 6800   7.686   7.462   5.731
 1598SOL    HW1 6801  -3.310 -14.540  16.732
 1598SOL    HW2 6802  18.733 -14.684  16.703
 1599SOL     OW 6803   3.786   4.154   0.775
 1599SOL    HW1 6804   3.707  15.154   0.812
 1599SOL    HW2 6805   3.829   4.082   0.728
 1600SOL     OW 6806   5.513   6.841   8.138
 1600SOL    HW1 6807   5.570   6.765   8.146
 1600SOL    HW2 6808  -5.532  17.898  19.084
 1601SOL     OW 6809   0.889   4.825   9.207
 1601SOL    HW1 6810   0.911   4.917  -1.819
 1601SOL    HW2 6811   0.803   4.814  20.286
 1602SOL     OW 6812   4.202  10.851   9.782
 1602SOL    HW1 6813   4.141 -22.310  -1.197
 1602SOL    HW2 6814   4.200  -0.096   9.806
 1603SOL     OW 6815   0.798   0.851   6.120
 1603SOL    HW1 6816   0.842   0.929   6.088
 1603SOL    HW2 6817   0.737   0.827   6.050
 1604SOL     OW 6818  10.354  -0.776   1.932
 1604SOL    HW1 6819  10.321  32.426   1.899
 1604SOL    HW2 6820  10.278  -0.819   1.971
 1605SOL     OW 6821   3.813   1.113   4.870
 1605SOL    HW1 6822   3.905  12.145   4.896
 1605SOL    HW2 6823   3.772   1.162   4.941
 1606SOL     OW 6824   4.935   2.697   5.685
 1606SOL    HW1 6825   4.870   2.631   5.710
 1606SOL    HW2 6826   4.940   2.690   5.590
 1607SOL     OW 6827   6.068   5.174  10.463
 1607SOL    HW1 6828   5.973   5.166  10.455
 1607SOL    HW2 6829  -4.944   5.090  10.501
 1608SOL     OW 6830   4.537   2.259   4.690
 1608SOL    HW1 6831   4.576  -8.699  15.761
 1608SOL    HW2 6832   4.609   2.196   4.690
 1609SOL     OW 6833   8.085   1.597   3.118
 1609SOL    HW1 6834   8.028  -9.480   3.185
 1609SOL    HW2 6835   8.161  -9.501   3.116
 1610SOL     OW 6836  10.802   5.027   6.151
 1610SOL    HW1 6837  10.730   4.972   6.180
 1610SOL    HW2 6838  10.880   4.989   6.191
 1611SOL     OW 6839  10.811   5.813   3.769
 1611SOL    HW1 6840  10.857   5.730  14.792
 1611SOL    HW2 6841  10.718   5.790   3.759
 1612SOL     OW 6842   2.842   7.075   1.060
 1612SOL    HW1 6843  36.002   7.001   1.014
 1612SOL    HW2 6844  13.907   7.152   1.009
 1613SOL     OW 6845  -0.207   2.194   5.795
 1613SOL    HW1 6846  -0.144   2.145   5.848
 1613SOL    HW2 6847  10.886   2.250   5.739
 1614SOL     OW 6848  10.602   8.710   3.620
 1614SOL    HW1 6849  10.556   8.627   3.608
 1614SOL    HW2 6850  -0.393   8.725   3.537
 1615SOL     OW 6851   8.537   5.440   4.283
 1615SOL    HW1 6852 -13.632  -5.589   4.313
 1615SOL    HW2 6853   8.586   5.417   4.362
 1616SOL     OW 6854   7.835   7.801   9.815
 1616SOL    HW1 6855   7.921   7.842  -1.233
 1616SOL    HW2 6856  18.826   7.859   9.874
 1617SOL     OW 6857   7.152   7.524  10.694
 1617SOL    HW1 6858   7.229   7.467  10.697
 1617SOL    HW2 6859   7.159   7.578  10.773
 1618SOL     OW 6860   6.397   9.587   3.204
 1618SOL    HW1 6861   6.319   9.637   3.227
 1618SOL    HW2 6862   6.425   9.625   3.120
 1619SOL     OW 6863   7.566   1.725  10.848
 1619SOL    HW1 6864  18.697   1.700  10.835
 1619SOL    HW2 6865   7.563   1.816  10.820
 1620SOL     OW 6866   0.542   4.907  10.423
 1620SOL    HW1 6867   0.564   4.893  10.330
 1620SOL    HW2 6868   0.534   5.001  10.432
 1621SOL     OW 6869   4.560   8.483  10.581
 1621SOL    HW1 6870   4.573   8.529  10.664
 1621SOL    HW2 6871   4.572   8.390  10.603
 1622SOL     OW 6872   1.575   7.792   1.755
 1622SOL    HW1 6873   1.578   7.719   1.817
 1622SOL    HW2 6874  12.701   7.794  34.834
 1623SOL     OW 6875   2.781   5.737  10.107
 1623SOL    HW1 6876 -19.232   5.715 -11.906
 1623SOL    HW2 6877   2.757  27.907  10.126
 1624SOL     OW 6878   2.946   9.235   4.210
 1624SOL    HW1 6879   2.925   9.177  15.176
 1624SOL    HW2 6880  -8.008  20.244   4.241
 1625SOL     OW 6881   9.239   3.804   7.988
 1625SOL    HW1 6882  20.354  -7.202   7.940
 1625SOL    HW2 6883   9.166 -18.221   7.959
 1626SOL     OW 6884   1.309   1.780   2.409
 1626SOL    HW1 6885   1.317   1.852   2.346
 1626SOL    HW2 6886  12.291  -9.224   2.477
 1627SOL     OW 6887   5.279   0.570  10.884
 1627SOL    HW1 6888  -5.825 -10.411  -0.116
 1627SOL    HW2 6889   5.273  11.529  10.936
 1628SOL     OW 6890   7.592   6.437   3.449
 1628SOL    HW1 6891  -3.402   6.368   3.497
 1628SOL    HW2 6892   7.518  -4.647   3.408
 1629SOL     OW 6893   9.081   5.559   9.903
 1629SOL    HW1 6894   9.125   5.594  20.865
 1629SOL    HW2 6895   9.095  27.543   9.897
 1630SOL     OW 6896   9.510   5.480   7.378
 1630SOL    HW1 6897   9.481   5.448  -3.747
 1630SOL    HW2 6898   9.604   5.492   7.369
 1631SOL     OW 6899   4.731  10.957   6.103
 1631SOL    HW1 6900   4.703  10.878  17.189
 1631SOL    HW2 6901   4.811  10.985  17.188
 1632SOL     OW 6902   7.580   1.551   9.153
 1632SOL    HW1 6903   7.597   1.638  -1.850
 1632SOL    HW2 6904   7.586   1.563   9.058
 1633SOL     OW 6905   3.943   5.052  10.081
 1633SOL    HW1 6906   3.854   5.054  10.047
 1633SOL    HW2 6907   3.985  -5.909  10.045
 1634SOL     OW 6908   9.092   4.302   6.191
 1634SOL    HW1 6909   9.003   4.338   6.192
 1634SOL    HW2 6910 -12.950   4.333   6.109
 1635SOL     OW 6911   7.074   8.979   1.133
 1635SOL    HW1 6912   7.159   9.012   1.102
 1635SOL    HW2 6913  40.152   8.943   1.055
 1636SOL     OW 6914   2.240   3.219   1.579
 1636SOL    HW1 6915 -30.954  14.294   1.532
 1636SOL    HW2 6916   2.315  25.349   1.548
 1637SOL     OW 6917   2.997   0.088   3.591
 1637SOL    HW1 6918   3.014   0.054  -7.360
 1637SOL    HW2 6919   3.020   0.015   3.533
 1638SOL     OW 6920   3.657   9.380   8.461
 1638SOL    HW1 6921   3.639   9.450   8.398
 1638SOL    HW2 6922   3.669   9.302   8.406
 1639SOL     OW 6923  -0.557   9.302   4.702
 1639SOL    HW1 6924  10.420  -1.667  15.725
 1639SOL    HW2 6925  -0.572   9.278   4.794
 1640SOL     OW 6926   0.208  -0.211   0.164
 1640SOL    HW1 6927   0.295  54.998   0.200
 1640SOL    HW2 6928   0.164  -0.127   0.177
 1641SOL     OW 6929   9.175   9.929   2.443
 1641SOL    HW1 6930  -1.888  -1.203   2.445
 1641SOL    HW2 6931   9.270   9.930   2.459
 1642SOL     OW 6932  11.585   4.789  11.341
 1642SOL    HW1 6933   0.585   4.845   0.367
 1642SOL    HW2 6934  11.600  15.874   0.218
 1643SOL     OW 6935   6.532   8.295  11.558
 1643SOL    HW1 6936   6.561   8.231  11.493
 1643SOL    HW2 6937   6.581 -24.744   0.498
 1644SOL     OW 6938   2.110   8.253   8.939
 1644SOL    HW1 6939   2.127  -2.704   8.894
 1644SOL    HW2 6940   2.189   8.201  31.003
 1645SOL     OW 6941   7.365   5.473  10.424
 1645SOL    HW1 6942   7.374 -16.595  -0.710
 1645SOL    HW2 6943  18.312 -16.629  -0.602
 1646SOL     OW 6944   7.881   4.776   9.586
 1646SOL    HW1 6945   7.793  15.780   9.577
 1646SOL    HW2 6946   7.936   4.722   9.529
 1647SOL     OW 6947   9.003   5.054   9.108
 1647SOL    HW1 6948 -13.103   5.037   9.018
 1647SOL    HW2 6949 -13.003   5.115  -1.939
 1648SOL     OW 6950   4.048   2.063   2.652
 1648SOL    HW1 6951   4.142   2.073   2.644
 1648SOL    HW2 6952   4.025   1.993   2.591
 1649SOL     OW 6953   9.132   1.115   0.474
 1649SOL    HW1 6954   9.148 -10.018   0.489
 1649SOL    HW2 6955   9.207   1.143   0.421
 1650SOL     OW 6956   7.770   7.102   5.840
 1650SOL    HW1 6957   7.695   7.104   5.781
 1650SOL    HW2 6958   7.755  -4.013   5.896
 1651SOL     OW 6959   1.452   2.851   7.507
 1651SOL    HW1 6960   1.451 -19.243   7.412
 1651SOL    HW2 6961   1.508  13.821 -14.538
 1652SOL     OW 6962   3.161   6.051   9.399
 1652SOL    HW1 6963   3.256   6.041   9.411
 1652SOL    HW2 6964   3.147   6.146   9.399
 1653SOL     OW 6965  11.193   8.746   6.784
 1653SOL    HW1 6966   0.243   8.715  17.833
 1653SOL    HW2 6967 -10.940   8.676 -15.259
 1654SOL     OW 6968   5.099   3.541   3.606
 1654SOL    HW1 6969   5.106  14.675   3.620
 1654SOL    HW2 6970  -5.859   3.505   3.642
 1655SOL     OW 6971   1.181   6.555   8.560
 1655SOL    HW1 6972   1.217  -4.517   8.478
 1655SOL    HW2 6973   1.117 -15.591   8.587
 1656SOL     OW 6974   8.868   6.193   2.166
 1656SOL    HW1 6975   8.894  28.251  24.335
 1656SOL    HW2 6976   8.853   6.288  13.207
 1657SOL     OW 6977   1.009   6.098   7.432
 1657SOL    HW1 6978  34.198  -4.956   7.496
 1657SOL    HW2 6979   0.970  -5.029   7.420
 1658SOL     OW 6980   7.833   1.885   3.663
 1658SOL    HW1 6981  29.892  12.932   3.569
 1658SOL    HW2 6982   7.923   1.852   3.665
 1659SOL     OW 6983   6.899   3.999   9.653
 1659SOL    HW1 6984   6.887  26.173  -1.382
 1659SOL    HW2 6985   6.957   3.986   9.578
 1660SOL     OW 6986   8.067   5.748   1.569
 1660SOL    HW1 6987   7.979   5.787   1.570
 1660SOL    HW2 6988   8.051   5.654  12.607
 1661SOL     OW 6989   3.435   2.056  -1.093
 1661SOL    HW1 6990   3.420  -8.965  32.118
 1661SOL    HW2 6991   3.510   2.111   9.923
 1662SOL     OW 6992   5.352   5.701   2.935
 1662SOL    HW1 6993   5.434   5.661   2.963
 1662SOL    HW2 6994  -5.755  -5.383  14.026
 1663SOL     OW 6995   1.284   6.013   6.123
 1663SOL    HW1 6996   1.370   5.975   6.108
 1663SOL    HW2 6997   1.292   6.104   6.095
 1664SOL     OW 6998   9.065   9.780   4.363
 1664SOL    HW1 6999  -2.042   9.846 -28.768
 1664SOL    HW2 7000  -1.980 -12.324   4.455
 1665SOL     OW 7001   7.845   2.736   2.377
 1665SOL    HW1 7002   7.813 -30.472 -19.715
 1665SOL    HW2 7003  29.852   2.792   2.348
 1666SOL     OW 7004   4.745  12.054  11.258
 1666SOL    HW1 7005   4.696 -20.982  11.253
 1666SOL    HW2 7006   4.679  11.989 -10.799
 1667SOL     OW 7007   7.788   0.420   4.962
 1667SOL    HW1 7008  -3.209   0.451   5.043
 1667SOL    HW2 7009   7.829  11.376   4.944
 1668SOL     OW 7010   4.407   3.768   7.325
 1668SOL    HW1 7011   4.318  -7.292  -3.685
 1668SOL    HW2 7012  15.480   3.829   7.391
 1669SOL     OW 7013   0.194   5.383   5.505
 1669SOL    HW1 7014   0.112   5.387 -27.663
 1669SOL    HW2 7015   0.193 -16.783   5.545
 1670SOL     OW 7016   7.766   7.562   6.852
 1670SOL    HW1 7017   7.770  -3.499   6.759
 1670SOL    HW2 7018   7.856   7.551   6.884
 1671SOL     OW 7019   7.973   3.528   4.901
 1671SOL    HW1 7020 -25.166   3.498  15.852
 1671SOL    HW2 7021   8.003  -7.590   4.946
 1672SOL     OW 7022   5.306   0.834   1.001
 1672SOL    HW1 7023  -5.662  33.936   0.941
 1672SOL    HW2 7024  16.268  22.916  23.025
 1673SOL     OW 7025   7.275   1.563   1.288
 1673SOL    HW1 7026  40.457   1.604  23.309
 1673SOL    HW2 7027   7.263   1.475  12.292
 1674SOL     OW 7028   7.095  10.129   5.675
 1674SOL    HW1 7029   7.081  10.223   5.664
 1674SOL    HW2 7030   7.152  10.121   5.751
 1675SOL     OW 7031   7.979   1.091  10.146
 1675SOL    HW1 7032   7.897   1.049  10.173
 1675SOL    HW2 7033  -3.081   1.131  10.062
 1676SOL     OW 7034   8.145   6.370   2.899
 1676SOL    HW1 7035   8.221   6.329   2.857
 1676SOL    HW2 7036   8.141   6.458   2.861
 1677SOL     OW 7037   0.990   0.627   6.568
 1677SOL    HW1 7038   1.073   0.674   6.579
 1677SOL    HW2 7039  11.990   0.668   6.491
 1678SOL     OW 7040   4.970   3.050   9.229
 1678SOL    HW1 7041   4.987  14.182   9.246
 1678SOL    HW2 7042  15.920   3.048   9.195
 1679SOL     OW 7043   3.106   7.486   6.625
 1679SOL    HW1 7044  -8.011   7.448   6.666
 1679SOL    HW2 7045   3.150   7.533   6.697
 1680SOL     OW 7046   3.985   6.165   2.356
 1680SOL    HW1 7047   4.013   6.239   2.410
 1680SOL    HW2 7048   4.003   6.193   2.266
 1681SOL     OW 7049   3.390   9.848   9.592
 1681SOL    HW1 7050 -18.641   9.925   9.561
 1681SOL    HW2 7051   3.315  -1.197   9.534
 1682SOL     OW 7052   0.156   1.121   5.492
 1682SOL    HW1 7053  22.175   1.108   5.419
 1682SOL    HW2 7054   0.146   1.042   5.546
 1683SOL     OW 7055   7.610   3.527   6.991
 1683SOL    HW1 7056   7.664   3.474  -3.991
 1683SOL    HW2 7057   7.629  14.657   7.016
 1684SOL     OW 7058   3.274   3.073   9.044
 1684SOL    HW1 7059  14.225   3.044   9.068
 1684SOL    HW2 7060   3.278   3.060  -2.090
 1685SOL     OW 7061  -0.165   4.925  10.639
 1685SOL    HW1 7062  -0.074   4.948  10.617
 1685SOL    HW2 7063  21.873   5.009  10.661
 1686SOL     OW 7064  10.190  11.231   4.137
 1686SOL    HW1 7065  10.245   0.119   4.106
 1686SOL    HW2 7066  10.121  11.238   4.071
 1687SOL     OW 7067   7.372   6.879   4.228
 1687SOL    HW1 7068   7.445   6.876   4.290
 1687SOL    HW2 7069  18.358  39.921   4.250
 1688SOL     OW 7070   7.342   4.688  -0.771
 1688SOL    HW1 7071  18.459  -6.384  21.354
 1688SOL    HW2 7072   7.288   4.727  32.416
 1689SOL     OW 7073   7.649   7.149   5.276
 1689SOL    HW1 7074   7.650   7.068   5.226
 1689SOL    HW2 7075   7.558 -14.901 -27.845
 1690SOL     OW 7076   9.715   4.595   5.470
 1690SOL    HW1 7077 -12.282   4.644   5.478
 1690SOL    HW2 7078   9.718  -6.507   5.543
 1691SOL     OW 7079   9.944   1.078   3.158
 1691SOL    HW1 7080  10.017   1.134  14.225
 1691SOL    HW2 7081  -1.066   1.038  14.116
 1692SOL     OW 7082   6.326   5.838  12.588
 1692SOL    HW1 7083   6.265 -27.297 -20.460
 1692SOL    HW2 7084   6.290   5.791  12.513
 1693SOL     OW 7085   4.981   6.701   3.117
 1693SOL    HW1 7086   4.959   6.693  14.249
 1693SOL    HW2 7087  -6.079   6.616   3.080
 1694SOL     OW 7088   8.818  10.168   0.847
 1694SOL    HW1 7089  -2.164  10.126  11.824
 1694SOL    HW2 7090 -24.389  10.146   0.817
 1695SOL     OW 7091   8.107   5.594   9.232
 1695SOL    HW1 7092  19.100 -16.412 -12.806
 1695SOL    HW2 7093  19.105 -16.494  -1.893
 1696SOL     OW 7094   5.400  10.297  -1.713
 1696SOL    HW1 7095   5.449  10.220  -1.740
 1696SOL    HW2 7096   5.316  10.263  31.437
 1697SOL     OW 7097   9.734   2.745   6.348
 1697SOL    HW1 7098   9.720  -8.336   6.263
 1697SOL    HW2 7099   9.679 -19.384   6.408
 1698SOL     OW 7100   1.130   3.992   7.205
 1698SOL    HW1 7101  -9.857  -6.990 -25.858
 1698SOL    HW2 7102   1.040   4.004   7.235
 1699SOL     OW 7103   2.880   9.137   7.539
 1699SOL    HW1 7104   2.855   9.217 -25.533
 1699SOL    HW2 7105   2.818  20.110 -14.509
 1700SOL     OW 7106   7.348   4.660   2.769
 1700SOL    HW1 7107   7.366   4.567   2.756
 1700SOL    HW2 7108   7.381  -6.337   2.690
 1701SOL     OW 7109  -0.936   1.652   4.920
 1701SOL    HW1 7110  -0.867  -9.439   4.878
 1701SOL    HW2 7111  32.211  -9.380  38.130
 1702SOL     OW 7112   4.455  10.777   5.126
 1702SOL    HW1 7113  -6.609  10.834   5.199
 1702SOL    HW2 7114   4.549  10.764  -5.904
 1703SOL     OW 7115   2.478  10.691   5.922
 1703SOL    HW1 7116 -19.568  10.650   6.002
 1703SOL    HW2 7117   2.465  10.619 -16.218
 1704SOL     OW 7118   0.534   8.174   4.760
 1704SOL    HW1 7119   0.460   8.215   4.804
 1704SOL    HW2 7120   0.495 -13.977  -6.330
 1705SOL     OW 7121   5.949   0.673  10.083
 1705SOL    HW1 7122  -5.156   0.727  10.038
 1705SOL    HW2 7123  17.073   0.707  10.053
 1706SOL     OW 7124   0.666   5.764   1.007
 1706SOL    HW1 7125   0.577  27.868 -10.059
 1706SOL    HW2 7126   0.721  16.827  23.011
 1707SOL     OW 7127   9.360   0.477   8.403
 1707SOL    HW1 7128   9.338   0.561  -2.598
 1707SOL    HW2 7129   9.356   0.415   8.476
 1708SOL     OW 7130   0.695   5.391   3.142
 1708SOL    HW1 7131  11.700   5.341   3.069
 1708SOL    HW2 7132   0.719   5.326   3.208
 1709SOL     OW 7133   5.496   7.732   0.301
 1709SOL    HW1 7134  27.506   7.719   0.236
 1709SOL    HW2 7135   5.454   7.718   0.385
 1710SOL     OW 7136  10.743   7.895   7.017
 1710SOL    HW1 7137  -0.354   7.819   7.007
 1710SOL    HW2 7138  -0.222  18.915  17.999
 1711SOL     OW 7139  11.013   1.581   1.249
 1711SOL    HW1 7140  -0.091   1.520   1.211
 1711SOL    HW2 7141  11.067   1.526  -9.734
 1712SOL     OW 7142   5.117   8.518   2.859
 1712SOL    HW1 7143   5.176   8.588   2.887
 1712SOL    HW2 7144   5.174  -2.597   2.846
 1713SOL     OW 7145   8.561   0.624   6.345
 1713SOL    HW1 7146   8.653  22.726   6.362
 1713SOL    HW2 7147  30.643   0.571   6.266
 1714SOL     OW 7148   3.146   8.521   2.187
 1714SOL    HW1 7149   3.065   8.557  13.190
 1714SOL    HW2 7150   3.117   8.459   2.254
 1715SOL     OW 7151   1.707   7.901   6.974
 1715SOL    HW1 7152   1.798   7.918 -15.079
 1715SOL    HW2 7153   1.655   7.958  29.109
 1716SOL     OW 7154  11.075   1.323   0.933
 1716SOL    HW1 7155  11.053   1.269 -21.222
 1716SOL    HW2 7156  -0.050   1.348  23.048
 1717SOL     OW 7157   4.824   3.901   4.408
 1717SOL    HW1 7158   4.828   3.954  15.527
 1717SOL    HW2 7159   4.889  14.872  -6.618
 1718SOL     OW 7160   3.961   6.420   6.214
 1718SOL    HW1 7161   4.048  -4.621  28.251
 1718SOL    HW2 7162   3.900   6.437   6.142
 1719SOL     OW 7163  10.054   1.697   0.533
 1719SOL    HW1 7164   9.995   1.755   0.582
 1719SOL    HW2 7165  10.004   1.617   0.520
 1720SOL     OW 7166   9.426   9.432   4.773
 1720SOL    HW1 7167 -12.625   9.473  15.731
 1720SOL    HW2 7168  20.454  31.419   4.751
 1721SOL     OW 7169  12.004   4.738   8.533
 1721SOL    HW1 7170 -10.146   4.799   8.553
 1721SOL    HW2 7171   0.932  -6.386  19.604
 1722SOL     OW 7172  10.695   1.548   0.841
 1722SOL    HW1 7173  10.778   1.581  11.846
 1722SOL    HW2 7174  10.721  23.570   0.913
 1723SOL     OW 7175   9.706   7.241   2.016
 1723SOL    HW1 7176   9.796   7.224   2.044
 1723SOL    HW2 7177   9.675  29.236  -9.057
 1724SOL     OW 7178  10.383   7.379   5.911
 1724SOL    HW1 7179 -11.697   7.347 -38.157
 1724SOL    HW2 7180  10.438  18.497  27.993
 1725SOL     OW 7181   4.730  10.707   2.738
 1725SOL    HW1 7182   4.653  -0.320  -8.357
 1725SOL    HW2 7183  -6.236  10.717   2.678
 1726SOL     OW 7184   4.944   0.775   1.578
 1726SOL    HW1 7185  16.074   0.743   1.571
 1726SOL    HW2 7186   4.896   0.702  12.656
 1727SOL     OW 7187  10.978   1.723   8.082
 1727SOL    HW1 7188  11.036  -9.392   8.077
 1727SOL    HW2 7189  10.892   1.687   8.100
 1728SOL     OW 7190   6.480   9.906   2.998
 1728SOL    HW1 7191  17.490   9.815  47.149
 1728SOL    HW2 7192   6.520  20.964  24.992
 1729SOL     OW 7193   1.658   8.979   9.697
 1729SOL    HW1 7194   1.571   8.939   9.696
 1729SOL    HW2 7195   1.641   9.073   9.694
 1730SOL     OW 7196   9.042   2.601   6.597
 1730SOL    HW1 7197   9.022   2.660   6.525
 1730SOL    HW2 7198 -13.050  13.693   6.676
 1731SOL     OW 7199   0.632   8.304  10.918
 1731SOL    HW1 7200  11.592   8.303  10.970
 1731SOL    HW2 7201   0.622 -13.847  10.856
 1732SOL     OW 7202   0.544   6.004   7.004
 1732SOL    HW1 7203   0.516   5.955  51.084
 1732SOL    HW2 7204   0.626   5.962  18.069
 1733SOL     OW 7205   6.145   8.582   4.189
 1733SOL    HW1 7206   6.215   8.527   4.222
 1733SOL    HW2 7207   6.078  19.560   4.158
 1734SOL     OW 7208  10.338   5.814  10.357
 1734SOL    HW1 7209  10.421  27.928  10.391
 1734SOL    HW2 7210  21.341   5.764  10.430
 1735SOL     OW 7211   1.170   0.177   4.747
 1735SOL    HW1 7212   1.244   0.194   4.688
 1735SOL    HW2 7213   1.149   0.263   4.784
 1736SOL     OW 7214   5.867   2.462   7.116
 1736SOL    HW1 7215  27.955   2.543  -3.874
 1736SOL    HW2 7216   5.806   2.408   7.166
 1737SOL     OW 7217   6.367   5.165   3.004
 1737SOL    HW1 7218   6.336   5.176  14.133
 1737SOL    HW2 7219   6.431   5.094   3.010
 1738SOL     OW 7220   1.838   1.974   2.347
 1738SOL    HW1 7221   1.878   1.933   2.270
 1738SOL    HW2 7222   1.882   2.059  13.394
 1739SOL     OW 7223   5.329   7.139  10.096
 1739SOL    HW1 7224   5.238  29.241  10.115
 1739SOL    HW2 7225  -5.714   7.093  21.052
 1740SOL     OW 7226   9.040   1.848   9.737
 1740SOL    HW1 7227   9.052   1.754  -1.321
 1740SOL    HW2 7228 -13.002   1.892   9.660
 1741SOL     OW 7229   9.296   2.346   5.111
 1741SOL    HW1 7230   9.289 -19.753  38.323
 1741SOL    HW2 7231   9.248  46.587   5.101
 1742SOL     OW 7232   8.660   4.101  10.020
 1742SOL    HW1 7233   8.636   4.173   9.963
 1742SOL    HW2 7234   8.750  15.120   9.997
 1743SOL     OW 7235   2.463   2.438   3.764
 1743SOL    HW1 7236   2.544   2.481   3.740
 1743SOL    HW2 7237  -8.640  -8.574  14.737
 1744SOL     OW 7238   6.319   5.802   4.690
 1744SOL    HW1 7239  -4.645   5.858  15.745
 1744SOL    HW2 7240  17.325   5.831  26.684
 1745SOL     OW 7241   6.638  11.028   3.679
 1745SOL    HW1 7242   6.644  11.119   3.649
 1745SOL    HW2 7243   6.628  11.036  14.814
 1746SOL     OW 7244   3.551   3.402   9.858
 1746SOL    HW1 7245   3.644  58.608   9.877
 1746SOL    HW2 7246   3.522   3.491   9.840
 1747SOL     OW 7247   0.825   7.505   9.646
 1747SOL    HW1 7248  11.875 -14.640   9.715
 1747SOL    HW2 7249   0.912   7.513   9.607
 1748SOL     OW 7250   8.877   8.309   5.403
 1748SOL    HW1 7251  -2.205   8.235  -5.680
 1748SOL    HW2 7252   8.805  19.408   5.426
 1749SOL     OW 7253   1.385   7.413   3.137
 1749SOL    HW1 7254   1.357   7.412  14.268
 1749SOL    HW2 7255   1.305  -3.604   3.088
 1750SOL     OW 7256   2.637   4.749   5.226
 1750SOL    HW1 7257   2.610  -6.309   5.135
 1750SOL    HW2 7258  -8.479  26.868   5.266
 1751SOL     OW 7259   3.684   9.137   9.478
 1751SOL    HW1 7260   3.699   9.231   9.470
 1751SOL    HW2 7261   3.709   9.116   9.568
 1752SOL     OW 7262   1.308   6.176   5.411
 1752SOL    HW1 7263   1.288   6.229   5.334
 1752SOL    HW2 7264   1.391   6.212  16.483
 1753SOL     OW 7265   1.751   4.038   7.762
 1753SOL    HW1 7266   1.807   4.005   7.691
 1753SOL    HW2 7267   1.813  26.149   7.828
 1754SOL     OW 7268   3.204  13.150   3.437
 1754SOL    HW1 7269   3.211  -8.978   3.354
 1754SOL    HW2 7270  -7.901  -8.977  -7.552
 1755SOL     OW 7271   1.538   9.608   5.898
 1755SOL    HW1 7272   1.570   9.594  27.888
 1755SOL    HW2 7273  12.656   9.605   5.953
 1756SOL     OW 7274   8.546  11.648   4.602
 1756SOL    HW1 7275   8.499  11.717  26.727
 1756SOL    HW2 7276  -2.438 -21.425   4.540
 1757SOL     OW 7277   9.282   3.014   0.697
 1757SOL    HW1 7278 -12.850  25.138  11.802
 1757SOL    HW2 7279   9.370   3.049  22.787
 1758SOL     OW 7280   5.293   0.288  10.400
 1758SOL    HW1 7281   5.307   0.368  10.349
 1758SOL    HW2 7282   5.198   0.282 -22.709
 1759SOL     OW 7283   4.788   9.233   3.536
 1759SOL    HW1 7284   4.871  -1.855   3.542
 1759SOL    HW2 7285   4.742   9.194  14.501
 1760SOL     OW 7286   3.903   8.750   4.967
 1760SOL    HW1 7287   3.978   8.739   5.026
 1760SOL    HW2 7288   3.941  -2.292  15.919
 1761SOL     OW 7289  10.331   9.922   7.211
 1761SOL    HW1 7290 -11.716  -1.207   7.203
 1761SOL    HW2 7291 -22.811   9.947   7.121
 1762SOL     OW 7292   5.441   5.676   5.036
 1762SOL    HW1 7293  27.614   5.659   5.026
 1762SOL    HW2 7294   5.415   5.624   5.112
 1763SOL     OW 7295  10.073   5.120   9.813
 1763SOL    HW1 7296   9.984  16.150   9.778
 1763SOL    HW2 7297  10.106   5.201   9.774
 1764SOL     OW 7298   1.231   2.098   6.110
 1764SOL    HW1 7299   1.204   2.069   6.197
 1764SOL    HW2 7300  23.264  -8.999   6.049
 1765SOL     OW 7301   6.885   5.046   7.167
 1765SOL    HW1 7302   6.960  16.120  -3.824
 1765SOL    HW2 7303   6.809   5.088   7.206
 1766SOL     OW 7304   3.195   5.413   7.499
 1766SOL    HW1 7305   3.272   5.438  -3.490
 1766SOL    HW2 7306   3.156  16.380   7.548
 1767SOL     OW 7307  10.237   3.597   6.120
 1767SOL    HW1 7308  10.243   3.686   6.085
 1767SOL    HW2 7309  -0.897  14.621  -4.911
 1768SOL     OW 7310   5.412   8.768   3.598
 1768SOL    HW1 7311  -5.570   8.735   3.667
 1768SOL    HW2 7312   5.404   8.861   3.616
 1769SOL     OW 7313   6.260   3.490   2.493
 1769SOL    HW1 7314  39.429  25.631   2.547
 1769SOL    HW2 7315  28.358   3.404   2.531
 1770SOL     OW 7316   4.055   8.898   7.104
 1770SOL    HW1 7317   4.066   8.856   7.019
 1770SOL    HW2 7318   3.961 -13.188   7.123
 1771SOL     OW 7319  10.552   6.501  10.589
 1771SOL    HW1 7320  10.486   6.570  -0.456
 1771SOL    HW2 7321  10.562   6.471  10.498
 1772SOL     OW 7322   1.078   9.838   9.751
 1772SOL    HW1 7323 -20.943   9.876   9.817
 1772SOL    HW2 7324  12.078  -1.127   9.707
 1773SOL     OW 7325  -0.407  10.728   0.799
 1773SOL    HW1 7326  -0.319  10.766   0.794
 1773SOL    HW2 7327  21.678  10.647 -10.292
 1774SOL     OW 7328   1.103   3.724   0.460
 1774SOL    HW1 7329   1.123   3.713  11.406
 1774SOL    HW2 7330   1.185   3.704   0.505
 1775SOL     OW 7331   9.746   3.980  10.224
 1775SOL    HW1 7332   9.714  -6.981  -0.860
 1775SOL    HW2 7333   9.693  -7.131 -22.931
 1776SOL     OW 7334   4.971  -0.208   0.970
 1776SOL    HW1 7335   5.049  -0.252   0.936
 1776SOL    HW2 7336   4.976  10.920  23.015
 1777SOL     OW 7337   5.523   4.668   1.500
 1777SOL    HW1 7338  -5.596   4.652  12.487
 1777SOL    HW2 7339   5.490   4.682   1.588
 1778SOL     OW 7340   5.515   4.798   2.879
 1778SOL    HW1 7341   5.544  26.787  24.974
 1778SOL    HW2 7342   5.447   4.813  -8.096
 1779SOL     OW 7343   4.345   7.085   0.854
 1779SOL    HW1 7344  15.430  18.195   0.899
 1779SOL    HW2 7345 -17.822   7.085  11.932
 1780SOL     OW 7346   0.335   6.451  10.347
 1780SOL    HW1 7347  11.384   6.502  -0.773
 1780SOL    HW2 7348   0.425   6.432  10.374
 1781SOL     OW 7349  -0.350   2.202   6.363
 1781SOL    HW1 7350  -0.342   2.231   6.272
 1781SOL    HW2 7351  10.650   2.276   6.409
 1782SOL     OW 7352   0.259   2.998   5.538
 1782SOL    HW1 7353  22.335   3.035   5.626
 1782SOL    HW2 7354   0.351  14.040   5.515
 1783SOL     OW 7355  10.698   9.186  10.719
 1783SOL    HW1 7356  10.623   9.198  10.777
 1783SOL    HW2 7357  10.673  20.152  10.663
 1784SOL     OW 7358   6.315   6.169   9.870
 1784SOL    HW1 7359   6.228  17.206   9.910
 1784SOL    HW2 7360  -4.739   6.144 -12.300
 1785SOL     OW 7361   8.493   0.625   8.604
 1785SOL    HW1 7362   8.512   0.716 -13.495
 1785SOL    HW2 7363   8.526   0.612   8.693
 1786SOL     OW 7364   5.699   9.230   9.271
 1786SOL    HW1 7365  16.777   9.280  20.383
 1786SOL    HW2 7366   5.605   9.234   9.286
 1787SOL     OW 7367   9.828   7.454   0.692
 1787SOL    HW1 7368   9.814  18.585   0.669
 1787SOL    HW2 7369   9.899   7.426   0.635
 1788SOL     OW 7370   0.072   3.347  10.323
 1788SOL    HW1 7371   0.007 -18.686  10.377
 1788SOL    HW2 7372   0.088 -18.814  10.369
 1789SOL     OW 7373   0.885   7.472   8.720
 1789SOL    HW1 7374   0.898  18.420   8.697
 1789SOL    HW2 7375   0.794   7.491   8.694
 1790SOL     OW 7376   9.579  -2.229   1.661
 1790SOL    HW1 7377 -23.515  19.841  23.648
 1790SOL    HW2 7378   9.611  30.976  -9.353
 1791SOL     OW 7379  -1.398   2.089   9.068
 1791SOL    HW1 7380   9.607   2.059  20.023
 1791SOL    HW2 7381  20.745   2.157   9.046
 1792SOL     OW 7382   6.861   2.483   4.209
 1792SOL    HW1 7383   6.897   2.478  -6.742
 1792SOL    HW2 7384 -15.207   2.394   4.174
 1793SOL     OW 7385   7.317   2.639   1.838
 1793SOL    HW1 7386   7.233 -19.396   1.821
 1793SOL    HW2 7387   7.377  -8.329   1.859
 1794SOL     OW 7388   6.769   2.118   9.738
 1794SOL    HW1 7389  -4.217   2.124   9.817
 1794SOL    HW2 7390   6.696   2.062   9.762
 1795SOL     OW 7391   5.185   3.752   3.290
 1795SOL    HW1 7392  -5.888   3.799   3.366
 1795SOL    HW2 7393 -16.799   3.761  47.455
 1796SOL     OW 7394   1.431   3.690  -1.047
 1796SOL    HW1 7395   1.501  -7.364  43.047
 1796SOL    HW2 7396   1.422   3.605  -1.003
 1797SOL     OW 7397   1.733   8.493   6.921
 1797SOL    HW1 7398   1.743   8.579   6.881
 1797SOL    HW2 7399   1.656   8.501  40.096
 1798SOL     OW 7400   0.218   2.964   0.637
 1798SOL    HW1 7401   0.166  -8.075   0.557
 1798SOL    HW2 7402   0.285  -8.008   0.623
 1799SOL     OW 7403   4.584   3.285   5.990
 1799SOL    HW1 7404   4.621   3.278  27.981
 1799SOL    HW2 7405   4.623   3.364   6.026
 1800SOL     OW 7406   1.538  11.887   1.820
 1800SOL    HW1 7407   1.494 -10.241   1.889
 1800SOL    HW2 7408   1.562   0.931  23.939
 1801SOL     OW 7409   7.773  -3.892   8.218
 1801SOL    HW1 7410   7.771  40.325   8.293
 1801SOL    HW2 7411  -3.195  40.206   8.236
 1802SOL     OW 7412   0.018   4.756   3.241
 1802SOL    HW1 7413   0.030  15.792   3.336
 1802SOL    HW2 7414  -0.003  26.926   3.223
 1803SOL     OW 7415   1.728   4.372   4.015
 1803SOL    HW1 7416  34.918   4.416   4.063
 1803SOL    HW2 7417  -9.291   4.388   3.923
 1804SOL     OW 7418   4.674   6.302   8.241
 1804SOL    HW1 7419   4.603   6.276  -2.856
 1804SOL    HW2 7420   4.751   6.255   8.209
 1805SOL     OW 7421   7.446   9.107   0.126
 1805SOL    HW1 7422   7.409   9.036   0.074
 1805SOL    HW2 7423  18.536   9.158  22.142
 1806SOL     OW 7424   9.320   4.573   6.093
 1806SOL    HW1 7425   9.228 -28.542   6.119
 1806SOL    HW2 7426   9.355  -6.380   6.114
 1807SOL     OW 7427   0.485   7.110   7.140
 1807SOL    HW1 7428   0.473   7.205   7.139
 1807SOL    HW2 7429   0.416   7.077   7.197
 1808SOL     OW 7430   5.740   8.210   0.632
 1808SOL    HW1 7431 -16.367  -2.739   0.645
 1808SOL    HW2 7432   5.659   8.161   0.625
 1809SOL     OW 7433   5.939   6.678   6.559
 1809SOL    HW1 7434  28.101   6.645   6.523
 1809SOL    HW2 7435   5.939   6.648   6.650
 1810SOL     OW 7436  10.603   0.578  10.328
 1810SOL    HW1 7437  10.605   0.509  10.262
 1810SOL    HW2 7438  10.638   0.537  10.407
 1811SOL     OW 7439   3.907   7.414   0.376
 1811SOL    HW1 7440 -40.160   7.405   0.400
 1811SOL    HW2 7441   3.909   7.440   0.283
 1812SOL     OW 7442   5.716   7.655   8.514
 1812SOL    HW1 7443   5.805   7.632   8.544
 1812SOL    HW2 7444 -16.387   7.730  -2.472
 1813SOL     OW 7445  10.578  10.749   2.581
 1813SOL    HW1 7446  10.631  10.721   2.656
 1813SOL    HW2 7447  10.636  -0.234   2.530
 1814SOL     OW 7448   2.568  10.238  11.864
 1814SOL    HW1 7449  -8.455  -0.895  11.858
 1814SOL    HW2 7450   2.500  -0.784 -10.280
 1815SOL     OW 7451   1.679   9.335   2.620
 1815SOL    HW1 7452   1.655  20.355   2.710
 1815SOL    HW2 7453   1.759  20.323   2.605
 1816SOL     OW 7454   4.455  10.985  10.040
 1816SOL    HW1 7455   4.420  11.036  -0.926
 1816SOL    HW2 7456   4.471  10.898  10.076
 1817SOL     OW 7457   9.150   4.232   7.350
 1817SOL    HW1 7458   9.127  15.180   7.369
 1817SOL    HW2 7459  -1.953   4.260   7.285
 1818SOL     OW 7460   0.354   8.918   0.917
 1818SOL    HW1 7461 -10.776   8.893   0.936
 1818SOL    HW2 7462  11.446  19.885   0.949
 1819SOL     OW 7463   3.142   2.889   2.370
 1819SOL    HW1 7464   3.074   2.879 -19.643
 1819SOL    HW2 7465   3.144   2.805  13.364
 1820SOL     OW 7466   6.800   7.284   0.007
 1820SOL    HW1 7467  -4.318  -3.786   0.054
 1820SOL    HW2 7468   6.839  -3.690   0.065
 1821SOL     OW 7469   5.229   2.759  10.328
 1821SOL    HW1 7470   5.316   2.800  10.329
 1821SOL    HW2 7471   5.243   2.671  10.362
 1822SOL     OW 7472   2.681   4.746   2.674
 1822SOL    HW1 7473  13.816   4.740   2.669
 1822SOL    HW2 7474   2.650   4.683   2.608
 1823SOL     OW 7475   3.998   4.334  -0.538
 1823SOL    HW1 7476   3.972   4.358  10.412
 1823SOL    HW2 7477   4.000   4.238  -0.538
 1824SOL     OW 7478   8.715   2.866   6.131
 1824SOL    HW1 7479   8.630   2.901   6.159
 1824SOL    HW2 7480   8.694   2.802   6.064
 1825SOL     OW 7481   3.688   5.470   6.549
 1825SOL    HW1 7482  -7.404   5.547   6.527
 1825SOL    HW2 7483   3.682  -5.577   6.644
 1826SOL     OW 7484   6.688   8.498   9.544
 1826SOL    HW1 7485   6.727   8.492  -1.583
 1826SOL    HW2 7486   6.736   8.569   9.587
 1827SOL     OW 7487   3.797  10.715   0.450
 1827SOL    HW1 7488  -7.254  10.621   0.435
 1827SOL    HW2 7489   3.865  10.720   0.517
 1828SOL     OW 7490   0.743   9.932  11.052
 1828SOL    HW1 7491   0.688   9.960   0.086
 1828SOL    HW2 7492   0.789   9.855  11.085
 1829SOL     OW 7493   6.080  10.392   5.309
 1829SOL    HW1 7494   6.114  10.435   5.387
 1829SOL    HW2 7495   6.146 -22.793  27.366
 1830SOL     OW 7496   5.039   5.930   1.454
 1830SOL    HW1 7497   5.082   5.935  12.579
 1830SOL    HW2 7498 -16.971   5.904   1.393
 1831SOL     OW 7499   8.624   4.319   1.920
 1831SOL    HW1 7500  30.715   4.410   1.892
 1831SOL    HW2 7501   8.541  -6.748   1.879
 1832SOL     OW 7502   0.810   8.820   9.754
 1832SOL    HW1 7503   0.849   8.735   9.730
 1832SOL    HW2 7504   0.871  30.963  20.757
 1833SOL     OW 7505   2.021   0.359   9.840
 1833SOL    HW1 7506  46.252   0.392   9.788
 1833SOL    HW2 7507   1.946   0.412 -12.266
 1834SOL     OW 7508   1.055   7.685   3.770
 1834SOL    HW1 7509   1.028  -3.277   3.820
 1834SOL    HW2 7510   1.006  -3.348  -7.352
 1835SOL     OW 7511   3.300   3.911   9.174
 1835SOL    HW1 7512  14.331  14.861   9.206
 1835SOL    HW2 7513   3.378   3.910  -1.920
 1836SOL     OW 7514  10.003   3.550   9.000
 1836SOL    HW1 7515  10.092  14.553   9.001
 1836SOL    HW2 7516   9.956   3.497   8.936
 1837SOL     OW 7517   3.909   9.403   8.299
 1837SOL    HW1 7518   3.968  20.414   8.230
 1837SOL    HW2 7519  36.967   9.330   8.310
 1838SOL     OW 7520   7.573   4.664   2.303
 1838SOL    HW1 7521   7.613  15.717   2.389
 1838SOL    HW2 7522   7.617  15.765   2.245
 1839SOL     OW 7523   0.821  10.539   9.319
 1839SOL    HW1 7524 -10.279  10.466  -1.708
 1839SOL    HW2 7525   0.842  10.537 -12.854
 1840SOL     OW 7526  -0.782   5.365   5.639
 1840SOL    HW1 7527  10.279   5.457   5.623
 1840SOL    HW2 7528  10.163   5.360  16.667
 1841SOL     OW 7529  10.714   0.179   7.902
 1841SOL    HW1 7530  10.679   0.142   7.982
 1841SOL    HW2 7531  10.801   0.212  18.965
 1842SOL     OW 7532   8.508   2.145  10.278
 1842SOL    HW1 7533   8.451  -8.817  10.270
 1842SOL    HW2 7534   8.586   2.168  10.227
 1843SOL     OW 7535   1.041   6.972  10.168
 1843SOL    HW1 7536   1.060  -4.139  10.229
 1843SOL    HW2 7537   1.027   7.049 -22.895
 1844SOL     OW 7538   6.887   7.009   4.770
 1844SOL    HW1 7539   6.908   6.916   4.763
 1844SOL    HW2 7540  17.888   7.019   4.857
 1845SOL     OW 7541   8.681   1.303   6.297
 1845SOL    HW1 7542   8.673  12.393   6.378
 1845SOL    HW2 7543   8.764  23.411   6.259
 1846SOL     OW 7544   7.230   6.867  11.473
 1846SOL    HW1 7545   7.161   6.912   0.386
 1846SOL    HW2 7546  -3.758  39.942  11.404
 1847SOL     OW 7547   2.250   3.059   2.834
 1847SOL    HW1 7548   2.175   3.021   2.788
 1847SOL    HW2 7549   2.253  25.091  13.957
 1848SOL     OW 7550   1.415   4.440   8.188
 1848SOL    HW1 7551   1.324   4.470   8.178
 1848SOL    HW2 7552   1.412   4.347 -13.914
 1849SOL     OW 7553   4.234   2.827   0.608
 1849SOL    HW1 7554   4.187   2.834   0.691
 1849SOL    HW2 7555   4.326 -19.251  11.672
 1850SOL     OW 7556   9.375   3.405   7.454
 1850SOL    HW1 7557   9.335   3.353  -3.655
 1850SOL    HW2 7558 -12.614   3.372   7.460
 1851SOL     OW 7559   3.600  11.025   7.580
 1851SOL    HW1 7560   3.670  10.970   7.546
 1851SOL    HW2 7561   3.635  11.059   7.663
 1852SOL     OW 7562  -0.009   7.398   7.396
 1852SOL    HW1 7563  11.066  -3.573   7.340
 1852SOL    HW2 7564  11.081  -3.634   7.478
 1853SOL     OW 7565   9.105   8.579   8.513
 1853SOL    HW1 7566   9.196   8.559  19.531
 1853SOL    HW2 7567   9.108   8.667   8.550
 1854SOL     OW 7568   7.913  10.525   2.399
 1854SOL    HW1 7569   7.853  10.504   2.471
 1854SOL    HW2 7570  -3.076  10.600 -19.648
 1855SOL     OW 7571   5.910   3.169  10.799
 1855SOL    HW1 7572   5.860   3.248  10.781
 1855SOL    HW2 7573 -16.209   3.133  10.877
 1856SOL     OW 7574   4.386   6.531   7.490
 1856SOL    HW1 7575   4.340   6.455  -3.586
 1856SOL    HW2 7576   4.325  -4.472  -3.485
 1857SOL     OW 7577   4.758   3.570   4.931
 1857SOL    HW1 7578   4.674   3.606  -6.140
 1857SOL    HW2 7579   4.735   3.519   5.008
 1858SOL     OW 7580   3.068   9.256   6.354
 1858SOL    HW1 7581   3.118   9.304   6.288
 1858SOL    HW2 7582  14.167   9.187   6.383
 1859SOL     OW 7583   3.348  12.368   1.368
 1859SOL    HW1 7584  -7.719 -20.680  -9.730
 1859SOL    HW2 7585   3.430  12.400   1.406
 1860SOL     OW 7586   1.359   9.802   7.799
 1860SOL    HW1 7587  34.451  -1.281   7.719
 1860SOL    HW2 7588  45.444  -1.250   7.859
 1861SOL     OW 7589   9.708  10.723  10.268
 1861SOL    HW1 7590   9.757 -11.336  10.347
 1861SOL    HW2 7591  -1.265  10.710  10.201
 1862SOL     OW 7592   0.847   8.154   7.287
 1862SOL    HW1 7593  22.905   8.062   7.306
 1862SOL    HW2 7594  22.883 -35.986  -3.835
 1863SOL     OW 7595   7.787   5.190   0.849
 1863SOL    HW1 7596  18.861 -28.018  11.891
 1863SOL    HW2 7597   7.776  -5.825  23.020
 1864SOL     OW 7598   6.660  10.313  10.201
 1864SOL    HW1 7599   6.703  10.361  10.131
 1864SOL    HW2 7600   6.631  21.420  10.263
 1865SOL     OW 7601   4.703   4.597   1.643
 1865SOL    HW1 7602   4.688   4.503  45.804
 1865SOL    HW2 7603   4.749   4.612  45.719
 1866SOL     OW 7604  10.919   8.097   9.974
 1866SOL    HW1 7605  10.941   8.190   9.968
 1866SOL    HW2 7606  10.972 -14.015  -0.993
 1867SOL     OW 7607   4.962   3.341   2.924
 1867SOL    HW1 7608  -6.155   3.333   2.979
 1867SOL    HW2 7609   4.928   3.351   2.835
 1868SOL     OW 7610   5.624   2.096   7.059
 1868SOL    HW1 7611   5.546   2.116   7.110
 1868SOL    HW2 7612   5.605   2.128   6.971
 1869SOL     OW 7613   5.911   1.026   4.551
 1869SOL    HW1 7614   5.829   0.989   4.519
 1869SOL    HW2 7615  -5.114   0.983   4.636
 1870SOL     OW 7616   0.312   9.239   4.930
 1870SOL    HW1 7617   0.407   9.233 -17.156
 1870SOL    HW2 7618   0.292   9.213   5.019
 1871SOL     OW 7619   6.471   7.146   2.985
 1871SOL    HW1 7620   6.395   7.160   2.928
 1871SOL    HW2 7621   6.452   7.065 -19.048
 1872SOL     OW 7622   7.080  11.087   4.395
 1872SOL    HW1 7623  29.207   0.002  -6.714
 1872SOL    HW2 7624  40.112   0.063   4.358
 1873SOL     OW 7625   4.794   3.304   1.617
 1873SOL    HW1 7626 -17.301  -7.734   1.523
 1873SOL    HW2 7627   4.811  25.474  12.680
 1874SOL     OW 7628   5.108   5.829   9.028
 1874SOL    HW1 7629 -16.909  -5.153   8.983
 1874SOL    HW2 7630 -16.940  27.819   9.009
 1875SOL     OW 7631   6.808   7.370   8.073
 1875SOL    HW1 7632   6.832   7.383  -3.059
 1875SOL    HW2 7633   6.780   7.279 -25.041
 1876SOL     OW 7634   5.194   0.906   6.893
 1876SOL    HW1 7635  -5.870 -10.100   6.807
 1876SOL    HW2 7636   5.283   0.938 -15.172
 1877SOL     OW 7637   7.146  10.002   4.101
 1877SOL    HW1 7638   7.195   9.920   4.096
 1877SOL    HW2 7639   7.082   9.988   4.171
 1878SOL     OW 7640   3.100   5.949   7.962
 1878SOL    HW1 7641   3.041   6.022  19.020
 1878SOL    HW2 7642   3.170   5.957  30.105
 1879SOL     OW 7643   5.714   4.353   6.883
 1879SOL    HW1 7644   5.650   4.422   6.864
 1879SOL    HW2 7645   5.744   4.373  29.051
 1880SOL     OW 7646   4.275   3.186   3.817
 1880SOL    HW1 7647  -6.770   3.236  14.776
 1880SOL    HW2 7648  26.270   3.139   3.822
 1881SOL     OW 7649   9.060   2.389   3.620
 1881SOL    HW1 7650  20.015   2.389   3.575
 1881SOL    HW2 7651   9.117  13.482   3.564
 1882SOL     OW 7652  10.249   5.689   1.535
 1882SOL    HW1 7653  10.194 -16.392   1.613
 1882SOL    HW2 7654  10.188   5.704  12.503
 1883SOL     OW 7655   6.670   3.866   9.647
 1883SOL    HW1 7656  17.715   3.832   9.558
 1883SOL    HW2 7657   6.760   3.892   9.668
 1884SOL     OW 7658   9.671  11.005  11.590
 1884SOL    HW1 7659   9.675  -0.045  11.495
 1884SOL    HW2 7660   9.742  10.949   0.584
 1885SOL     OW 7661   5.872  10.062   3.696
 1885SOL    HW1 7662   5.904   9.973   3.709
 1885SOL    HW2 7663   5.952  10.116   3.698
 1886SOL     OW 7664   3.955   3.895   9.218
 1886SOL    HW1 7665   3.992  26.040   9.160
 1886SOL    HW2 7666  -7.046  -7.125   9.304
 1887SOL     OW 7667   1.371   8.966   2.113
 1887SOL    HW1 7668   1.420   8.928  -8.998
 1887SOL    HW2 7669  -9.609  -2.076   2.188
 1888SOL     OW 7670   2.985   9.871   1.308
 1888SOL    HW1 7671   2.963  -1.075   1.308
 1888SOL    HW2 7672   2.966 -23.276  12.437
 1889SOL     OW 7673   9.247   1.920   3.297
 1889SOL    HW1 7674  -1.773   1.887   3.385
 1889SOL    HW2 7675  42.313   1.999  36.431
 1890SOL     OW 7676   5.405   1.818   5.947
 1890SOL    HW1 7677   5.434   1.727   5.958
 1890SOL    HW2 7678  27.561   1.862   5.910
 1891SOL     OW 7679  10.075   7.807   1.919
 1891SOL    HW1 7680  10.048  -3.145   1.891
 1891SOL    HW2 7681  21.132   7.760   1.838
 1892SOL     OW 7682   2.513   3.671   4.149
 1892SOL    HW1 7683   2.519   3.588  -6.843
 1892SOL    HW2 7684   2.498   3.736   4.218
 1893SOL     OW 7685   3.553  11.426   5.733
 1893SOL    HW1 7686  25.727 -10.648  16.771
 1893SOL    HW2 7687  25.604  11.517  49.904
 1894SOL     OW 7688   0.999   1.981  10.315
 1894SOL    HW1 7689   0.973   1.895  10.281
 1894SOL    HW2 7690  23.015  35.117  10.385
 1895SOL     OW 7691   0.804   8.914   6.475
 1895SOL    HW1 7692  11.850   8.835   6.529
 1895SOL    HW2 7693   0.840   8.983 -15.549
 1896SOL     OW 7694   5.049   7.668   4.263
 1896SOL    HW1 7695   5.012  18.694   4.176
 1896SOL    HW2 7696   5.019   7.754  -6.750
 1897SOL     OW 7697   5.146   7.471   8.595
 1897SOL    HW1 7698  -5.874  29.534   8.687
 1897SOL    HW2 7699 -16.863   7.530  -2.474
 1898SOL     OW 7700   9.065   9.615   2.916
 1898SOL    HW1 7701   9.127  20.586   2.942
 1898SOL    HW2 7702   9.004  -1.469   2.857
 1899SOL     OW 7703   1.549   3.203   8.557
 1899SOL    HW1 7704   1.482   3.258   8.597
 1899SOL    HW2 7705  12.626  -7.886  19.670
 1900SOL     OW 7706   4.736   7.052   1.709
 1900SOL    HW1 7707   4.760 -15.030  34.735
 1900SOL    HW2 7708   4.640  18.094   1.710
 1901SOL     OW 7709   3.276   1.977   1.987
 1901SOL    HW1 7710   3.222   2.056  13.026
 1901SOL    HW2 7711   3.311  13.012   2.076
 1902SOL     OW 7712   2.838   3.220   6.998
 1902SOL    HW1 7713   2.902  -7.878   7.037
 1902SOL    HW2 7714   2.796  -7.776   7.072
 1903SOL     OW 7715   6.677   9.441   3.574
 1903SOL    HW1 7716   6.718   9.528   3.572
 1903SOL    HW2 7717   6.730   9.391   3.636
 1904SOL     OW 7718   4.675   4.843   2.140
 1904SOL    HW1 7719  15.725   4.915   2.202
 1904SOL    HW2 7720  15.801   4.834   2.099
 1905SOL     OW 7721   6.437   7.508   8.935
 1905SOL    HW1 7722   6.521   7.553   8.929
 1905SOL    HW2 7723   6.394 -14.532   9.011
 1906SOL     OW 7724  11.795   8.177   2.611
 1906SOL    HW1 7725  11.880   8.135   2.626
 1906SOL    HW2 7726 -10.306   8.155   2.520
 1907SOL     OW 7727   7.354   5.262   9.886
 1907SOL    HW1 7728  -3.683   5.292  20.835
 1907SOL    HW2 7729   7.347  -5.873   9.879
 1908SOL     OW 7730   8.534   8.614   7.163
 1908SOL    HW1 7731   8.441 -13.488   7.154
 1908SOL    HW2 7732   8.558   8.583   7.251
 1909SOL     OW 7733   7.241   5.615   9.118
 1909SOL    HW1 7734   7.147   5.629 -24.005
 1909SOL    HW2 7735  -3.788  16.583  -1.859
 1910SOL     OW 7736   7.182   1.778   0.647
 1910SOL    HW1 7737   7.150 -20.391   0.647
 1910SOL    HW2 7738   7.213   1.793  22.637
 1911SOL     OW 7739  10.398   5.991   3.740
 1911SOL    HW1 7740  10.462   5.998  -7.371
 1911SOL    HW2 7741  10.425  -5.125   3.789
 1912SOL     OW 7742   4.466   3.143   7.516
 1912SOL    HW1 7743  15.479   3.080   7.583
 1912SOL    HW2 7744   4.559   3.125   7.502
 1913SOL     OW 7745   9.371   2.553   1.550
 1913SOL    HW1 7746   9.307   2.483   1.565
 1913SOL    HW2 7747   9.333   2.630   1.591
 1914SOL     OW 7748  10.450  10.995   5.644
 1914SOL    HW1 7749 -11.583 -11.152   5.694
 1914SOL    HW2 7750  10.465  11.076   5.694
 1915SOL     OW 7751   9.497   1.407   1.916
 1915SOL    HW1 7752   9.520  12.357   1.941
 1915SOL    HW2 7753   9.582   1.451   1.908
 1916SOL     OW 7754   5.984  11.419   4.542
 1916SOL    HW1 7755  -4.980  11.478  -6.497
 1916SOL    HW2 7756   5.987   0.337   4.456
 1917SOL     OW 7757   6.793   8.336   5.464
 1917SOL    HW1 7758   6.707  19.336   5.480
 1917SOL    HW2 7759   6.836   8.335  27.628
 1918SOL     OW 7760   4.743   1.349   3.272
 1918SOL    HW1 7761   4.757   1.305   3.188
 1918SOL    HW2 7762   4.649   1.343   3.287
 1919SOL     OW 7763   5.347   8.683   4.257
 1919SOL    HW1 7764   5.360   8.741  15.372
 1919SOL    HW2 7765  16.374   8.742   4.183
 1920SOL     OW 7766   8.375   9.764   9.052
 1920SOL    HW1 7767   8.339  31.772  20.144
 1920SOL    HW2 7768   8.365   9.734 -13.118
 1921SOL     OW 7769   9.625   0.767   2.297
 1921SOL    HW1 7770   9.680   0.690   2.283
 1921SOL    HW2 7771   9.536   0.735  13.325
 1922SOL     OW 7772   1.461   5.910   6.469
 1922SOL    HW1 7773   1.437  16.910   6.553
 1922SOL    HW2 7774   1.447   6.004  -4.558
 1923SOL     OW 7775   1.950   4.590   0.067
 1923SOL    HW1 7776  -9.064  -6.426  -0.023
 1923SOL    HW2 7777   1.881   4.524  11.095
 1924SOL     OW 7778   5.459   9.646   3.571
 1924SOL    HW1 7779   5.554   9.653 -18.507
 1924SOL    HW2 7780  16.468  20.773   3.596
 1925SOL     OW 7781   9.021   9.697   6.161
 1925SOL    HW1 7782  -2.035  20.815   6.213
 1925SOL    HW2 7783   9.048   9.631   6.226
 1926SOL     OW 7784   8.406   4.264   6.857
 1926SOL    HW1 7785   8.357  -6.766   6.775
 1926SOL    HW2 7786  19.389   4.208   6.911
 1927SOL     OW 7787   7.400   3.520   4.059
 1927SOL    HW1 7788   7.357   3.509   3.974
 1927SOL    HW2 7789  -3.586   3.441   4.068
 1928SOL     OW 7790   0.933   4.894   6.993
 1928SOL    HW1 7791   0.912   4.873   6.902
 1928SOL    HW2 7792   0.934   4.989   6.996
 1929SOL     OW 7793   0.263   3.918   8.225
 1929SOL    HW1 7794   0.180   3.944 -13.894
 1929SOL    HW2 7795  11.286  14.957  30.398
 1930SOL     OW 7796   3.904   8.060   5.932
 1930SOL    HW1 7797   3.831   8.054   5.871
 1930SOL    HW2 7798   3.879   8.001  -5.035
 1931SOL     OW 7799   2.409   8.039   5.108
 1931SOL    HW1 7800  13.386   7.967   5.119
 1931SOL    HW2 7801  13.497   8.017  16.069
 1932SOL     OW 7802   0.795   1.838   5.776
 1932SOL    HW1 7803   0.765  23.965   5.852
 1932SOL    HW2 7804   0.855  -9.142   5.732
 1933SOL     OW 7805   9.023   3.906   7.866
 1933SOL    HW1 7806   9.055  26.066   7.905
 1933SOL    HW2 7807   8.976  14.974   7.787
 1934SOL     OW 7808   6.608   2.094  10.323
 1934SOL    HW1 7809  17.713  -8.922  10.388
 1934SOL    HW2 7810   6.642   2.013  10.283
 1935SOL     OW 7811  10.173   9.583   6.048
 1935SOL    HW1 7812  10.109   9.567   6.118
 1935SOL    HW2 7813  10.151   9.670  17.055
 1936SOL     OW 7814   4.420   6.652   4.271
 1936SOL    HW1 7815   4.432   6.675   4.179
 1936SOL    HW2 7816   4.500  17.645   4.295
 1937SOL     OW 7817  10.481   2.543   1.696
 1937SOL    HW1 7818  10.428  13.609  34.890
 1937SOL    HW2 7819  10.435  13.505   1.661
 1938SOL     OW 7820   2.167   7.837   0.522
 1938SOL    HW1 7821  13.239   7.819   0.610
 1938SOL    HW2 7822  24.262  40.874  11.513
 1939SOL     OW 7823   2.382   5.399   7.642
 1939SOL    HW1 7824   2.373   5.359   7.555
 1939SOL    HW2 7825   2.296   5.388   7.682
 1940SOL     OW 7826   0.083   2.525   5.493
 1940SOL    HW1 7827  11.098  13.656   5.484
 1940SOL    HW2 7828   0.150   2.511 -27.692
 1941SOL     OW 7829   9.795   9.876   7.033
 1941SOL    HW1 7830   9.763   9.787  29.097
 1941SOL    HW2 7831   9.755   9.928   6.963
 1942SOL     OW 7832   2.943   0.199   0.631
 1942SOL    HW1 7833   2.933   0.155   0.547
 1942SOL    HW2 7834 -30.185   0.292   0.610
 1943SOL     OW 7835   9.703   6.816   2.140
 1943SOL    HW1 7836   9.760   6.822 -19.863
 1943SOL    HW2 7837  -1.288  17.801   2.078
 1944SOL     OW 7838   3.495   3.499   1.269
 1944SOL    HW1 7839   3.568   3.561   1.277
 1944SOL    HW2 7840   3.501   3.446   1.348
 1945SOL     OW 7841  11.709   5.238   1.978
 1945SOL    HW1 7842  11.646   5.244   2.050
 1945SOL    HW2 7843 -10.287  -5.776   2.016
 1946SOL     OW 7844   6.868   9.157   6.674
 1946SOL    HW1 7845   6.920  -1.831   6.736
 1946SOL    HW2 7846   6.812 -12.977   6.728
 1947SOL     OW 7847   0.960  10.692   5.961
 1947SOL    HW1 7848  12.061  10.622   5.983
 1947SOL    HW2 7849   0.977  10.710 -16.210
 1948SOL     OW 7850   9.928   4.343   9.203
 1948SOL    HW1 7851  -1.127  -6.769   9.264
 1948SOL    HW2 7852 -12.226   4.342  31.223
 1949SOL     OW 7853  10.650  10.677   8.295
 1949SOL    HW1 7854  10.663  10.709   8.385
 1949SOL    HW2 7855  10.670  10.583   8.300
 1950SOL     OW 7856   9.558   9.084   6.713
 1950SOL    HW1 7857   9.601   9.013  17.704
 1950SOL    HW2 7858   9.562  20.096  17.844
 1951SOL     OW 7859   7.381   8.063   8.078
 1951SOL    HW1 7860   7.376  19.190  -2.923
 1951SOL    HW2 7861  29.480   8.078   7.986
 1952SOL     OW 7862   7.722   1.931   4.554
 1952SOL    HW1 7863   7.758   2.016   4.579
 1952SOL    HW2 7864   7.717   1.934   4.459
 1953SOL     OW 7865  10.360   7.611   9.760
 1953SOL    HW1 7866  10.338  18.732   9.715
 1953SOL    HW2 7867  10.306   7.545  -1.322
 1954SOL     OW 7868   7.213   3.290  10.438
 1954SOL    HW1 7869   7.248   3.241  10.364
 1954SOL    HW2 7870   7.179   3.222  10.497
 1955SOL     OW 7871   8.277   6.726   1.646
 1955SOL    HW1 7872  -2.748   6.657   1.711
 1955SOL    HW2 7873   8.206  17.818  12.722
 1956SOL     OW 7874   4.909   8.469   9.189
 1956SOL    HW1 7875   4.980   8.522   9.152
 1956SOL    HW2 7876  -6.210   8.513   9.160
 1957SOL     OW 7877   3.496   7.660   9.211
 1957SOL    HW1 7878   3.467   7.724   9.275
 1957SOL    HW2 7879   3.588   7.644   9.231
 1958SOL     OW 7880   1.568   3.544   2.060
 1958SOL    HW1 7881   1.521   3.601  24.201
 1958SOL    HW2 7882   1.642   3.510  24.189
 1959SOL     OW 7883   9.880   9.991   7.784
 1959SOL    HW1 7884   9.808   9.929   7.773
 1959SOL    HW2 7885   9.919   9.969  29.948
 1960SOL     OW 7886   1.979   2.284   6.481
 1960SOL    HW1 7887  -9.108 -19.746   6.414
 1960SOL    HW2 7888   2.021   2.350  -4.505
 1961SOL     OW 7889   4.682   7.922   6.353
 1961SOL    HW1 7890   4.638  29.920   6.377
 1961SOL    HW2 7891   4.615  30.069   6.364
 1962SOL     OW 7892   0.653   9.548   2.174
 1962SOL    HW1 7893   0.638   9.527   2.267
 1962SOL    HW2 7894  33.730   9.633   2.162
 1963SOL     OW 7895   3.076  11.807   7.991
 1963SOL    HW1 7896  14.201  11.832   7.956
 1963SOL    HW2 7897   3.013 -10.232  18.970
 1964SOL     OW 7898   0.177   1.639   9.043
 1964SOL    HW1 7899   0.170 -20.350 -13.006
 1964SOL    HW2 7900  22.166   1.607   9.041
 1965SOL     OW 7901   2.406   9.893   4.361
 1965SOL    HW1 7902   2.480   9.862  -6.730
 1965SOL    HW2 7903   2.335   9.832   4.340
 1966SOL     OW 7904   5.985   5.928   8.144
 1966SOL    HW1 7905   6.056   5.873  -2.930
 1966SOL    HW2 7906   5.963   5.986  -2.968
 1967SOL     OW 7907   2.347   8.751   1.080
 1967SOL    HW1 7908  13.404   8.701   1.159
 1967SOL    HW2 7909   2.253  19.782   1.066
 1968SOL     OW 7910   9.200   0.116   9.198
 1968SOL    HW1 7911  20.243  11.084 -12.817
 1968SOL    HW2 7912   9.136  11.216   9.234
 1969SOL     OW 7913   2.286   5.436   8.407
 1969SOL    HW1 7914   2.289  16.445   8.498
 1969SOL    HW2 7915   2.337  16.411   8.358
 1970SOL     OW 7916   2.069   6.589   0.899
 1970SOL    HW1 7917   2.030  17.633   0.986
 1970SOL    HW2 7918   2.017  39.768  11.886
 1971SOL     OW 7919   6.540   2.903   1.017
 1971SOL    HW1 7920   6.569  -8.053   1.055
 1971SOL    HW2 7921   6.620 -19.217   0.986
 1972SOL     OW 7922   5.782   9.781   9.416
 1972SOL    HW1 7923   5.766   9.700   9.367
 1972SOL    HW2 7924   5.714   9.841  -1.654
 1973SOL     OW 7925  10.780   9.492   7.543
 1973SOL    HW1 7926 -11.237   9.549  29.576
 1973SOL    HW2 7927 -11.367   9.473   7.478
 1974SOL     OW 7928   5.934   3.539   4.481
 1974SOL    HW1 7929   5.931   3.631   4.506
 1974SOL    HW2 7930   5.852  -7.537   4.515
 1975SOL     OW 7931   9.271   2.149   9.611
 1975SOL    HW1 7932   9.268  13.144   9.526
 1975SOL    HW2 7933   9.297   2.239   9.591
 1976SOL     OW 7934   5.591   8.017   7.817
 1976SOL    HW1 7935   5.547  30.023 -14.307
 1976SOL    HW2 7936   5.530   8.090   7.809
 1977SOL     OW 7937   6.930   6.264   4.433
 1977SOL    HW1 7938  17.958   6.348   4.389
 1977SOL    HW2 7939   6.899   6.280  15.562
 1978SOL     OW 7940   9.133   2.374   7.745
 1978SOL    HW1 7941   9.074   2.303   7.721
 1978SOL    HW2 7942 -13.003   2.439   7.788
 1979SOL     OW 7943   6.653   9.179   9.400
 1979SOL    HW1 7944   6.684   9.105 -45.850
 1979SOL    HW2 7945   6.622  -1.901   9.482
 1980SOL     OW 7946   9.620  10.007   4.637
 1980SOL    HW1 7947  20.587   9.945   4.634
 1980SOL    HW2 7948  20.707   9.985   4.716
 1981SOL     OW 7949   2.744   3.213   6.232
 1981SOL    HW1 7950   2.758  -7.864   6.319
 1981SOL    HW2 7951   2.814  -7.762   6.222
 1982SOL     OW 7952   1.035   4.519   1.507
 1982SOL    HW1 7953   0.983   4.443  12.573
 1982SOL    HW2 7954  12.145  -6.557   1.454
 1983SOL     OW 7955   9.592   6.625   2.556
 1983SOL    HW1 7956  31.705   6.601  13.682
 1983SOL    HW2 7957 -23.487 -26.409   2.537
 1984SOL     OW 7958   7.221   8.880   5.080
 1984SOL    HW1 7959   7.173   8.897   5.161
 1984SOL    HW2 7960   7.155   8.846   5.019
 1985SOL     OW 7961   9.577   1.948   2.462
 1985SOL    HW1 7962   9.547  -9.132   2.544
 1985SOL    HW2 7963 -12.410   1.922   2.455
 1986SOL     OW 7964   4.183   3.202   7.958
 1986SOL    HW1 7965   4.271   3.238  -3.088
 1986SOL    HW2 7966   4.152   3.198   7.867
 1987SOL     OW 7967   7.543   5.941   7.435
 1987SOL    HW1 7968 -14.536  16.892   7.472
 1987SOL    HW2 7969   7.517  -5.111   7.343
 1988SOL     OW 7970   8.305   8.064   3.327
 1988SOL    HW1 7971   8.325   8.143   3.276
 1988SOL    HW2 7972  -2.682   8.073  -7.633
 1989SOL     OW 7973   4.528   3.483   1.599
 1989SOL    HW1 7974   4.514   3.574   1.575
 1989SOL    HW2 7975   4.478  14.511  56.877
 1990SOL     OW 7976   3.077   8.859   4.312
 1990SOL    HW1 7977 -30.083  19.984   4.298
 1990SOL    HW2 7978   3.063   8.840  26.484
 1991SOL     OW 7979   8.273   6.301   3.665
 1991SOL    HW1 7980 -13.894  17.371 -29.429
 1991SOL    HW2 7981   8.259  -4.792   3.587
 1992SOL     OW 7982   2.478   4.870   4.314
 1992SOL    HW1 7983  -8.615   4.870  26.314
 1992SOL    HW2 7984   2.504   4.961   4.326
 1993SOL     OW 7985  12.143   8.331   6.370
 1993SOL    HW1 7986  -9.867   8.397   6.368
 1993SOL    HW2 7987  12.072   8.371   6.421
 1994SOL     OW 7988   3.263   1.354   4.317
 1994SOL    HW1 7989 -18.895   1.311   4.286
 1994SOL    HW2 7990   3.238   1.446  -6.711
 1995SOL     OW 7991   0.637   2.371   5.303
 1995SOL    HW1 7992   0.665  35.521  -5.823
 1995SOL    HW2 7993   0.685  46.447   5.315
 1996SOL     OW 7994   8.109   5.315   6.778
 1996SOL    HW1 7995   8.082   5.336  -4.172
 1996SOL    HW2 7996  19.102  16.419   6.724
 1997SOL     OW 7997  10.406   4.123   8.683
 1997SOL    HW1 7998  10.360   4.097   8.603
 1997SOL    HW2 7999  10.369  15.107   8.751
 1998SOL     OW 8000   3.935   8.083   5.383
 1998SOL    HW1 8001   3.872   8.136  16.472
 1998SOL    HW2 8002   3.944   8.129   5.299
 1999SOL     OW 8003  10.396   1.603   7.108
 1999SOL    HW1 8004  -0.629   1.678  -3.874
 1999SOL    HW2 8005  10.395   1.527   7.167
 2000SOL     OW 8006   0.278   7.053  10.432
 2000SOL    HW1 8007   0.206  -3.994  10.495
 2000SOL    HW2 8008   0.352  18.049  10.475
 2001SOL     OW 8009   7.365   7.700   8.302
 2001SOL    HW1 8010   7.300  -3.281   8.263
 2001SOL    HW2 8011  -3.689  18.746   8.396
 2002SOL     OW 8012   8.115  -1.429   4.313
 2002SOL    HW1 8013  -3.014  20.624   4.332
 2002SOL    HW2 8014   8.160  31.608  15.330
 2003SOL     OW 8015   6.964   3.173   8.537
 2003SOL    HW1 8016   6.973  -7.786   8.487
 2003SOL    HW2 8017   6.971  14.143   8.471
 2004SOL     OW 8018   1.956   7.275   7.257
 2004SOL    HW1 8019   1.913   7.194   7.285
 2004SOL    HW2 8020   1.888   7.324  18.250
 2005SOL     OW 8021   1.317   4.775   1.922
 2005SOL    HW1 8022  12.261  15.815   1.932
 2005SOL    HW2 8023   1.336   4.691   1.881
 2006SOL     OW 8024   2.636   1.974   9.436
 2006SOL    HW1 8025   2.705   2.030   9.401
 2006SOL    HW2 8026   2.614  -9.027   9.521
 2007SOL     OW 8027   3.655   8.039   8.469
 2007SOL    HW1 8028   3.641 -13.989   8.390
 2007SOL    HW2 8029  -7.393   7.948   8.441
 2008SOL     OW 8030   8.157   9.765  12.358
 2008SOL    HW1 8031   8.155  -1.365  -9.689
 2008SOL    HW2 8032  -2.795  -1.263   1.284
 2009SOL     OW 8033   4.799   0.893   5.506
 2009SOL    HW1 8034   4.720   0.852 -16.538
 2009SOL    HW2 8035   4.845   0.927   5.583
 2010SOL     OW 8036   4.022   1.419   3.234
 2010SOL    HW1 8037   4.105   1.435  14.229
 2010SOL    HW2 8038  15.043   1.326   3.219
 2011SOL     OW 8039   2.229   5.914   9.866
 2011SOL    HW1 8040  24.232   5.971  20.909
 2011SOL    HW2 8041   2.287   5.948   9.934
 2012SOL     OW 8042   2.111   0.520  10.600
 2012SOL    HW1 8043   2.093  22.682  10.644
 2012SOL    HW2 8044   2.167   0.544  10.526
 2013SOL     OW 8045   7.080  -0.430   1.122
 2013SOL    HW1 8046   7.007  10.570   1.170
 2013SOL    HW2 8047   7.123  21.575  23.158
 2014SOL     OW 8048   2.047   1.383   4.188
 2014SOL    HW1 8049   1.983  12.407  -6.922
 2014SOL    HW2 8050   2.026   1.471   4.219
 2015SOL     OW 8051   8.740   7.412   5.862
 2015SOL    HW1 8052   8.809  18.515   5.841
 2015SOL    HW2 8053  -2.252   7.338  -5.140
 2016SOL     OW 8054   8.124   5.644   5.978
 2016SOL    HW1 8055  19.107  16.607  17.012
 2016SOL    HW2 8056  30.199   5.683   5.891
 2017SOL     OW 8057  10.097   6.785  11.406
 2017SOL    HW1 8058  10.019   6.764  11.355
 2017SOL    HW2 8059  10.064   6.815   0.451
 2018SOL     OW 8060   0.656   7.839   6.657
 2018SOL    HW1 8061   0.691   7.791   6.731
 2018SOL    HW2 8062   0.581   7.786   6.627
 2019SOL     OW 8063   1.952  10.794   3.592
 2019SOL    HW1 8064   1.988  10.829   3.673
 2019SOL    HW2 8065   1.861  10.823  14.631
 2020SOL     OW 8066  10.497   9.317   6.568
 2020SOL    HW1 8067  -0.586   9.329   6.483
 2020SOL    HW2 8068 -11.554   9.225   6.567
 2021SOL     OW 8069   8.300   9.137   3.859
 2021SOL    HW1 8070   8.300   9.219   3.908
 2021SOL    HW2 8071   8.339  20.199   3.774
 2022SOL     OW 8072   4.283   0.442   4.491
 2022SOL    HW1 8073  15.247 -10.589   4.433
 2022SOL    HW2 8074   4.267  11.400   4.539
 2023SOL     OW 8075   0.985   5.891   1.114
 2023SOL    HW1 8076   0.950 -16.230   1.192
 2023SOL    HW2 8077  -9.966   5.855   1.105
 2024SOL     OW 8078   9.733  11.226   3.585
 2024SOL    HW1 8079   9.676  11.162   3.626
 2024SOL    HW2 8080  20.736 -10.842  -7.543
 2025SOL     OW 8081   4.438  10.503   3.623
 2025SOL    HW1 8082   4.425  21.510   3.712
 2025SOL    HW2 8083   4.507 -11.510   3.632
 2026SOL     OW 8084  11.461   0.503   4.781
 2026SOL    HW1 8085   0.508  11.578   4.766
 2026SOL    HW2 8086  11.406   0.545   4.715
 2027SOL     OW 8087   4.275   0.160   0.633
 2027SOL    HW1 8088   4.261   0.160   0.539
 2027SOL    HW2 8089  -6.810   0.239  22.743
 2028SOL     OW 8090   1.865  11.361   2.662
 2028SOL    HW1 8091  12.961  11.328   2.592
 2028SOL    HW2 8092  12.965   0.361   2.725
 2029SOL     OW 8093  10.536  10.160  11.481
 2029SOL    HW1 8094  10.544  10.237 -21.695
 2029SOL    HW2 8095  10.496 -11.885  11.561
 2030SOL     OW 8096  11.785   3.590   2.509
 2030SOL    HW1 8097   0.836   3.620   2.514
 2030SOL    HW2 8098   0.752  25.577   2.483
 2031SOL     OW 8099   1.143   9.612   9.333
 2031SOL    HW1 8100   1.059   9.656   9.322
 2031SOL    HW2 8101   1.168  31.708   9.424
 2032SOL     OW 8102   8.192   5.155   3.002
 2032SOL    HW1 8103  19.258  16.111  25.121
 2032SOL    HW2 8104   8.104   5.172   3.038
 2033SOL     OW 8105  -1.559   7.505   9.450
 2033SOL    HW1 8106  42.615 -25.702   9.417
 2033SOL    HW2 8107  31.475   7.530  31.491
 2034SOL     OW 8108   8.408  11.027   7.391
 2034SOL    HW1 8109   8.426  -0.069   7.316
 2034SOL    HW2 8110   8.360  10.971  18.492
 2035SOL     OW 8111   2.330   8.487   0.418
 2035SOL    HW1 8112   2.414   8.531 -21.672
 2035SOL    HW2 8113  -8.768   8.531  22.435
 2036SOL     OW 8114   2.481   3.450   4.312
 2036SOL    HW1 8115   2.394   3.416   4.330
 2036SOL    HW2 8116   2.514  -7.559   4.397
 2037SOL     OW 8117   8.722  10.810   4.935
 2037SOL    HW1 8118  19.821  10.835   5.006
 2037SOL    HW2 8119   8.776  10.815   4.856
 2038SOL     OW 8120   8.518   6.358   8.684
 2038SOL    HW1 8121  30.553  17.329  -2.305
 2038SOL    HW2 8122   8.450   6.390  -2.415
 2039SOL     OW 8123   2.531   4.624  10.647
 2039SOL    HW1 8124  -8.434   4.576  10.683
 2039SOL    HW2 8125   2.539  -6.328 -11.396
 2040SOL     OW 8126   5.369   5.513  11.378
 2040SOL    HW1 8127  -5.688   5.430  11.423
 2040SOL    HW2 8128   5.398  -5.468   0.408
 2041SOL     OW 8129   4.750  11.012   6.562
 2041SOL    HW1 8130   4.668  -0.071   6.588
 2041SOL    HW2 8131   4.803  11.012   6.641
 2042SOL     OW 8132   4.219   6.634  10.438
 2042SOL    HW1 8133 -28.870  -4.399  -0.693
 2042SOL    HW2 8134 -17.864   6.540  10.455
 2043SOL     OW 8135  11.382   1.454   2.030
 2043SOL    HW1 8136 -10.614   1.418  13.038
 2043SOL    HW2 8137  22.446  -9.528   2.102
 2044SOL     OW 8138   1.599   0.736   2.254
 2044SOL    HW1 8139   1.688   0.756   2.283
 2044SOL    HW2 8140  12.609  11.708   2.313
 2045SOL     OW 8141   0.353   3.443   3.553
 2045SOL    HW1 8142   0.443  25.549   3.533
 2045SOL    HW2 8143   0.324  14.437   3.475
 2046SOL     OW 8144   2.859   8.953   5.267
 2046SOL    HW1 8145   2.893   9.025   5.321
 2046SOL    HW2 8146  13.977   8.907   5.238
 2047SOL     OW 8147   6.777   6.563   3.143
 2047SOL    HW1 8148   6.701  28.658   3.087
 2047SOL    HW2 8149   6.780   6.468   3.153
 2048SOL     OW 8150   5.349   8.696   8.355
 2048SOL    HW1 8151   5.275  19.795   8.360
 2048SOL    HW2 8152   5.426  19.792   8.349
 2049SOL     OW 8153  12.752  -2.026   1.632
 2049SOL    HW1 8154 -20.330  31.033   1.567
 2049SOL    HW2 8155  12.719  31.036   1.701
 2050SOL     OW 8156   4.504   8.451   3.612
 2050SOL    HW1 8157   4.565   8.434   3.684
 2050SOL    HW2 8158   4.420   8.418   3.644
 2051SOL     OW 8159   9.585  10.787   3.976
 2051SOL    HW1 8160   9.503  10.773   4.023
 2051SOL    HW2 8161   9.652  10.790   4.044
 2052SOL     OW 8162   4.341   5.615   1.668
 2052SOL    HW1 8163  15.369   5.689   1.608
 2052SOL    HW2 8164  -6.607 -16.458   1.695
 2053SOL     OW 8165   4.950  10.262   3.443
 2053SOL    HW1 8166   4.856  10.268   3.462
 2053SOL    HW2 8167   4.990  10.330   3.497
 2054SOL     OW 8168   3.425  -0.036   2.829
 2054SOL    HW1 8169   3.349  11.056   2.852
 2054SOL    HW2 8170  47.655  11.042   2.879
 2055SOL     OW 8171   7.835   8.282   0.304
 2055SOL    HW1 8172   7.746   8.316   0.312
 2055SOL    HW2 8173   7.829   8.212   0.239
 2056SOL     OW 8174   7.004   5.381   0.993
 2056SOL    HW1 8175  17.986  -5.653   1.069
 2056SOL    HW2 8176  29.147   5.313   1.016
 2057SOL     OW 8177   9.955   4.956   6.489
 2057SOL    HW1 8178  10.045   4.926  -4.563
 2057SOL    HW2 8179  -1.106   4.928  -4.461
 2058SOL     OW 8180   0.753  10.891   7.950
 2058SOL    HW1 8181 -10.375  10.902   7.987
 2058SOL    HW2 8182   0.738  10.851   7.864
 2059SOL     OW 8183   5.247   3.664  10.281
 2059SOL    HW1 8184   5.322   3.618  10.244
 2059SOL    HW2 8185   5.283   3.718  10.351
 2060SOL     OW 8186   7.519   8.035   3.811
 2060SOL    HW1 8187  -3.543   8.082   3.891
 2060SOL    HW2 8188   7.498   8.097   3.741
 2061SOL     OW 8189   3.052  10.392   5.341
 2061SOL    HW1 8190  14.034  10.335   5.391
 2061SOL    HW2 8191   3.112  10.333   5.296
 2062SOL     OW 8192  11.423   9.359   8.811
 2062SOL    HW1 8193  11.381   9.385 -35.266
 2062SOL    HW2 8194   0.311   9.336   8.753
 2063SOL     OW 8195   2.406   7.845   7.198
 2063SOL    HW1 8196   2.333   7.785   7.212
 2063SOL    HW2 8197   2.471   7.792   7.152
 2064SOL     OW 8198   1.688   7.026  -0.914
 2064SOL    HW1 8199   1.596   7.002  32.209
 2064SOL    HW2 8200   1.689   7.121  21.173
 2065SOL     OW 8201   7.353   8.676  10.369
 2065SOL    HW1 8202   7.286   8.668  10.437
 2065SOL    HW2 8203   7.365  -2.270  10.358
 2066SOL     OW 8204   4.097   4.531   9.331
 2066SOL    HW1 8205   4.174   4.574   9.368
 2066SOL    HW2 8206   4.102   4.550   9.237
 2067SOL     OW 8207   4.909   2.080   8.073
 2067SOL    HW1 8208   4.969   2.107 -14.076
 2067SOL    HW2 8209   4.882 -19.917   8.114
 2068SOL     OW 8210   2.907   4.092   4.361
 2068SOL    HW1 8211   2.975   4.124   4.419
 2068SOL    HW2 8212  13.864   4.111   4.406
 2069SOL     OW 8213   0.256   4.628  10.149
 2069SOL    HW1 8214   0.329   4.688  32.215
 2069SOL    HW2 8215   0.277   4.582  -0.809
 2070SOL     OW 8216   1.760   4.376   1.780
 2070SOL    HW1 8217   1.815   4.339  12.889
 2070SOL    HW2 8218   1.731   4.460   1.815
 2071SOL     OW 8219   5.096  -1.903   8.236
 2071SOL    HW1 8220  16.099  31.298 -13.811
 2071SOL    HW2 8221  38.307  20.178   8.264
 2072SOL     OW 8222   2.483   5.736   5.492
 2072SOL    HW1 8223   2.531  16.702   5.453
 2072SOL    HW2 8224   2.391   5.717   5.473
 2073SOL     OW 8225   8.290   6.383  10.394
 2073SOL    HW1 8226  19.320   6.461  10.340
 2073SOL    HW2 8227   8.351   6.409  10.463
 2074SOL     OW 8228   2.725   7.592   1.286
 2074SOL    HW1 8229  13.794   7.503   1.267
 2074SOL    HW2 8230   2.699   7.589   1.379
 2075SOL     OW 8231   4.166   4.911  11.439
 2075SOL    HW1 8232  15.268  -6.116   0.471
 2075SOL    HW2 8233  37.245   4.826  11.456
 2076SOL     OW 8234   3.784   6.091   6.058
 2076SOL    HW1 8235   3.800   6.039   6.137
 2076SOL    HW2 8236   3.697   6.064  28.108
 2077SOL     OW 8237   1.078   3.206   5.466
 2077SOL    HW1 8238   1.050   3.258  -5.649
 2077SOL    HW2 8239   1.083  -7.770   5.538
 2078SOL     OW 8240   1.729   8.923   2.517
 2078SOL    HW1 8241   1.638   8.912 -30.573
 2078SOL    HW2 8242  12.818   8.860   2.569
 2079SOL     OW 8243   1.435   2.738  10.109
 2079SOL    HW1 8244   1.509   2.678  10.106
 2079SOL    HW2 8245  -9.682  -8.358  10.104
 2080SOL     OW 8246   3.884   7.023   0.207
 2080SOL    HW1 8247   3.953 -15.011  33.278
 2080SOL    HW2 8248  36.922 -26.074   0.160
 2081SOL     OW 8249  10.565   5.278  10.945
 2081SOL    HW1 8250  10.659   5.293  10.936
 2081SOL    HW2 8251  10.558  -5.832  -0.029
 2082SOL     OW 8252   4.938   6.456   8.272
 2082SOL    HW1 8253   4.869   6.415   8.323
 2082SOL    HW2 8254   4.897   6.535   8.235
 2083SOL     OW 8255   7.184   7.282  11.014
 2083SOL    HW1 8256   7.169   7.249  11.102
 2083SOL    HW2 8257  -3.922  -3.690  -0.038
 2084SOL     OW 8258   1.887   9.947   6.807
 2084SOL    HW1 8259   1.892   9.937   6.712
 2084SOL    HW2 8260  12.839   9.980   6.824
 2085SOL     OW 8261   9.361   9.587   0.219
 2085SOL    HW1 8262   9.451  20.598   0.238
 2085SOL    HW2 8263   9.372   9.665   0.164
 2086SOL     OW 8264   8.735   5.057   8.242
 2086SOL    HW1 8265   8.646 -17.009   8.208
 2086SOL    HW2 8266   8.723  27.080   8.319
 2087SOL     OW 8267   5.437   0.644   6.645
 2087SOL    HW1 8268  -5.697   0.629   6.656
 2087SOL    HW2 8269  38.583   0.579   6.581
 2088SOL     OW 8270   3.387   0.071   9.714
 2088SOL    HW1 8271  14.483   0.089   9.638
 2088SOL    HW2 8272   3.337  -0.006  -1.351
 2089SOL     OW 8273   0.305   4.229   9.759
 2089SOL    HW1 8274   0.400   4.219   9.772
 2089SOL    HW2 8275   0.296   4.305   9.702
 2090SOL     OW 8276   5.435   6.727   6.106
 2090SOL    HW1 8277  27.469   6.670  -4.996
 2090SOL    HW2 8278   5.449   6.808   6.058
 2091SOL     OW 8279   2.345   5.865   8.148
 2091SOL    HW1 8280   2.318  49.957  19.251
 2091SOL    HW2 8281   2.352   5.818   8.065
 2092SOL     OW 8282   6.219   5.481   8.287
 2092SOL    HW1 8283   6.139   5.474   8.235
 2092SOL    HW2 8284   6.254   5.391   8.290
 2093SOL     OW 8285   4.719   5.464   9.285
 2093SOL    HW1 8286   4.716   5.394   9.350
 2093SOL    HW2 8287 -17.277  16.492  20.280
 2094SOL     OW 8288   1.980   1.844   6.154
 2094SOL    HW1 8289   1.983   1.932   6.192
 2094SOL    HW2 8290   2.024   1.788  -4.821
 2095SOL     OW 8291   4.347  11.025   6.847
 2095SOL    HW1 8292   4.318   0.001   6.757
 2095SOL    HW2 8293   4.365  10.931   6.850
 2096SOL     OW 8294   3.370   5.576   5.292
 2096SOL    HW1 8295   3.442  16.655  38.461
 2096SOL    HW2 8296  -7.744   5.577  -5.688
 2097SOL     OW 8297   7.447   9.728   2.246
 2097SOL    HW1 8298  18.527   9.776 -19.905
 2097SOL    HW2 8299   7.465 -12.298   2.323
 2098SOL     OW 8300  -0.295   0.827  -0.443
 2098SOL    HW1 8301  -0.376   0.878  -0.444
 2098SOL    HW2 8302  10.748   0.790  32.764
 2099SOL     OW 8303   7.407   8.575   1.384
 2099SOL    HW1 8304   7.326   8.603  12.382
 2099SOL    HW2 8305 -36.717 -13.425   1.425
 2100SOL     OW 8306   8.674   1.300   2.607
 2100SOL    HW1 8307   8.718   1.228  -8.478
 2100SOL    HW2 8308   8.717   1.379   2.573
 2101SOL     OW 8309   4.046   1.788   2.524
 2101SOL    HW1 8310   4.137   1.798  13.535
 2101SOL    HW2 8311   3.995   1.810   2.447
 2102SOL     OW 8312   9.005   0.393   2.152
 2102SOL    HW1 8313   9.079  22.433   2.199
 2102SOL    HW2 8314   8.928   0.345  46.343
 2103SOL     OW 8315   9.935   9.010  10.932
 2103SOL    HW1 8316   9.859  31.117  -0.056
 2103SOL    HW2 8317  10.006   9.067  10.962
 2104SOL     OW 8318   1.527   0.999   9.022
 2104SOL    HW1 8319   1.543   1.090   9.043
 2104SOL    HW2 8320   1.608 -10.072   8.982
 2105SOL     OW 8321   7.805   1.713   5.938
 2105SOL    HW1 8322   7.823   1.788   5.995
 2105SOL    HW2 8323 -14.369   1.701   5.943
 2106SOL     OW 8324   0.250   3.025   2.190
 2106SOL    HW1 8325  11.260  14.152   2.212
 2106SOL    HW2 8326 -10.729  -8.002   2.116
 2107SOL     OW 8327   9.282  -1.875  10.507
 2107SOL    HW1 8328   9.280  31.183  10.581
 2107SOL    HW2 8329  -1.687   9.226  10.527
 2108SOL     OW 8330   6.920   9.003   6.464
 2108SOL    HW1 8331   6.919   9.064   6.538
 2108SOL    HW2 8332   6.998   8.949   6.478
 2109SOL     OW 8333   2.507   9.256   4.228
 2109SOL    HW1 8334  13.540   9.346   4.259
 2109SOL    HW2 8335  13.468   9.214   4.260
 2110SOL     OW 8336   9.624   1.672   3.767
 2110SOL    HW1 8337   9.675  23.684   3.722
 2110SOL    HW2 8338   9.566   1.624   3.826
 2111SOL     OW 8339   8.675   7.269   1.645
 2111SOL    HW1 8340  -2.439  18.370 -20.435
 2111SOL    HW2 8341   8.636   7.184   1.623
 2112SOL     OW 8342   2.118   5.554   5.049
 2112SOL    HW1 8343   2.041   5.519  -5.945
 2112SOL    HW2 8344   2.090  16.602   4.958
 2113SOL     OW 8345   4.594   2.941   0.453
 2113SOL    HW1 8346   4.654  13.997   0.526
 2113SOL    HW2 8347   4.512   2.984   0.479
 2114SOL     OW 8348   3.171   6.855   6.044
 2114SOL    HW1 8349   3.127  17.970  28.083
 2114SOL    HW2 8350  25.248   6.873   6.138
 2115SOL     OW 8351   9.891   5.631   4.097
 2115SOL    HW1 8352   9.959   5.644  26.111
 2115SOL    HW2 8353  20.924   5.715   4.142
 2116SOL     OW 8354   8.045   7.059   4.367
 2116SOL    HW1 8355   8.072   7.052   4.458
 2116SOL    HW2 8356   7.950   7.069   4.371
 2117SOL     OW 8357   8.959   9.041   9.653
 2117SOL    HW1 8358   8.985   9.123   9.611
 2117SOL    HW2 8359   8.874   9.020   9.614
 2118SOL     OW 8360  11.236   3.560   5.219
 2118SOL    HW1 8361  11.205  14.584  16.348
 2118SOL    HW2 8362   0.145  14.540   5.165
 2119SOL     OW 8363   4.834   1.190   3.723
 2119SOL    HW1 8364   4.910   1.141   3.754
 2119SOL    HW2 8365   4.857   1.216   3.634
 2120SOL     OW 8366   9.487   4.524   4.754
 2120SOL    HW1 8367   9.552   4.501  15.727
 2120SOL    HW2 8368   9.435   4.445   4.765
 2121SOL     OW 8369   5.449  -0.341   8.458
 2121SOL    HW1 8370 -16.628  10.629   8.392
 2121SOL    HW2 8371   5.365  -0.353  19.542
 2122SOL     OW 8372   2.339   0.725   7.994
 2122SOL    HW1 8373  -8.671   0.675  19.109
 2122SOL    HW2 8374   2.245  22.815   8.008
 2123SOL     OW 8375   8.586   4.474  -2.854
 2123SOL    HW1 8376   8.631   4.540  19.278
 2123SOL    HW2 8377   8.654   4.439  30.207
 2124SOL     OW 8378   1.510   8.137   7.920
 2124SOL    HW1 8379  12.582   8.227   7.923
 2124SOL    HW2 8380  23.501  -2.897   7.958
 2125SOL     OW 8381   6.539   7.837   6.262
 2125SOL    HW1 8382  28.682   7.766 -15.815
 2125SOL    HW2 8383   6.592   7.917   6.261
 2126SOL     OW 8384  12.428   0.087   8.132
 2126SOL    HW1 8385   1.444   0.050  -2.976
 2126SOL    HW2 8386  -9.591   0.116   8.200
 2127SOL     OW 8387   6.122   1.666  10.307
 2127SOL    HW1 8388   6.070   1.637  10.383
 2127SOL    HW2 8389   6.160   1.586  10.273
 2128SOL     OW 8390   1.104   4.757   5.038
 2128SOL    HW1 8391   1.171   4.809   5.084
 2128SOL    HW2 8392   1.025   4.769  16.129
 2129SOL     OW 8393   7.767   4.526   1.187
 2129SOL    HW1 8394   7.694  15.504   1.196
 2129SOL    HW2 8395   7.841   4.471   1.161
 2130SOL     OW 8396   8.653   6.110  10.403
 2130SOL    HW1 8397  30.693   6.154  10.327
 2130SOL    HW2 8398  19.695   6.017  10.379
 2131SOL     OW 8399   5.567   7.978  -1.069
 2131SOL    HW1 8400   5.478  -3.082  21.038
 2131SOL    HW2 8401   5.561  19.024  -1.165
 2132SOL     OW 8402   1.053   2.918   8.047
 2132SOL    HW1 8403   1.060   2.971   7.968
 2132SOL    HW2 8404   1.061   2.981   8.119
 2133SOL     OW 8405   8.440   3.089   2.623
 2133SOL    HW1 8406   8.373  -8.002  13.617
 2133SOL    HW2 8407  -2.644   3.171   2.646
 2134SOL     OW 8408   8.484   1.022   3.198
 2134SOL    HW1 8409   8.564   1.069   3.220
 2134SOL    HW2 8410   8.459   1.056   3.111
 2135SOL     OW 8411   7.954   1.770   9.783
 2135SOL    HW1 8412  30.064   1.764   9.692
 2135SOL    HW2 8413   7.926 -20.218   9.793
 2136SOL     OW 8414   4.906   1.278   5.661
 2136SOL    HW1 8415  -6.137   1.312   5.571
 2136SOL    HW2 8416   4.976  -9.827   5.660
 2137SOL     OW 8417   1.069   6.918   5.799
 2137SOL    HW1 8418   1.031   6.836   5.767
 2137SOL    HW2 8419   1.163   6.907   5.788
 2138SOL     OW 8420   6.891   7.835   4.849
 2138SOL    HW1 8421  -4.137   7.926   4.873
 2138SOL    HW2 8422  18.012   7.812  -6.237
 2139SOL     OW 8423   4.345   8.532   5.251
 2139SOL    HW1 8424   4.396  19.650   5.270
 2139SOL    HW2 8425   4.408  -2.579  -5.788
 2140SOL     OW 8426  10.332   2.631   3.007
 2140SOL    HW1 8427  -0.789   2.616   3.055
 2140SOL    HW2 8428  -0.736  13.692   2.918
 2141SOL     OW 8429   0.964   8.740   0.783
 2141SOL    HW1 8430   0.902   8.761   0.713
 2141SOL    HW2 8431   1.038   8.798   0.767
 2142SOL     OW 8432   2.605   6.267  11.417
 2142SOL    HW1 8433  24.746   6.333  11.386
 2142SOL    HW2 8434  46.681   6.316   0.389
 2143SOL     OW 8435   9.537   8.289   8.291
 2143SOL    HW1 8436  -1.488 -46.998   8.322
 2143SOL    HW2 8437  -1.418 -24.803  -2.785
 2144SOL     OW 8438   2.105   8.008   2.706
 2144SOL    HW1 8439   2.184   7.979   2.752
 2144SOL    HW2 8440   2.121   8.101  13.728
 2145SOL     OW 8441   3.017   0.224   5.894
 2145SOL    HW1 8442   2.944  11.317 -16.216
 2145SOL    HW2 8443   3.055   0.275 -27.153
 2146SOL     OW 8444   1.789   7.842   7.622
 2146SOL    HW1 8445   1.869   7.891   7.603
 2146SOL    HW2 8446   1.738   7.848  18.581
 2147SOL     OW 8447   2.938   3.084   0.619
 2147SOL    HW1 8448   2.924   3.059  11.750
 2147SOL    HW2 8449   3.006   3.025   0.587
 2148SOL     OW 8450  10.929  -0.429   1.387
 2148SOL    HW1 8451 -11.064  10.574   1.411
 2148SOL    HW2 8452  10.917  -0.355   1.446
 2149SOL     OW 8453   3.862   9.477   3.583
 2149SOL    HW1 8454  14.989   9.453   3.552
 2149SOL    HW2 8455   3.813   9.394 -40.575
 2150SOL     OW 8456   9.500   7.717  -1.210
 2150SOL    HW1 8457   9.434  -3.358  20.809
 2150SOL    HW2 8458  -1.587  -3.261   9.884
 2151SOL     OW 8459   3.091   1.410   0.279
 2151SOL    HW1 8460 -18.916   1.380   0.333
 2151SOL    HW2 8461   3.018  -9.687  11.341
 2152SOL     OW 8462   3.773   2.512   4.169
 2152SOL    HW1 8463  25.883   2.501   4.259
 2152SOL    HW2 8464   3.833   2.576   4.131
 2153SOL     OW 8465   8.145   3.947   4.584
 2153SOL    HW1 8466   8.081   4.017   4.579
 2153SOL    HW2 8467   8.200   3.959   4.507
 2154SOL     OW 8468   0.938   5.087   3.498
 2154SOL    HW1 8469   1.023  38.177 -29.654
 2154SOL    HW2 8470 -10.082  16.210   3.542
 2155SOL     OW 8471   6.639   5.288   5.084
 2155SOL    HW1 8472   6.687   5.206  16.110
 2155SOL    HW2 8473   6.645   5.304  -5.862
 2156SOL     OW 8474   7.424   4.617   9.045
 2156SOL    HW1 8475   7.481   4.554   8.999
 2156SOL    HW2 8476  18.424   4.566   9.115
 2157SOL     OW 8477   9.758   5.320   9.135
 2157SOL    HW1 8478   9.687   5.383  20.186
 2157SOL    HW2 8479  -1.292  16.327   9.046
 2158SOL     OW 8480  10.694   7.007   8.321
 2158SOL    HW1 8481  10.703  29.088  -2.814
 2158SOL    HW2 8482  -0.394   7.087   8.341
 2159SOL     OW 8483   0.687  10.963   0.241
 2159SOL    HW1 8484  11.715  11.027   0.171
 2159SOL    HW2 8485  22.847  10.917   0.219
 2160SOL     OW 8486   1.037   7.658   0.764
 2160SOL    HW1 8487   1.016   7.569   0.738
 2160SOL    HW2 8488   1.047  18.746   0.682
 2161SOL     OW 8489   5.855   9.535   7.493
 2161SOL    HW1 8490   5.919  20.604   7.557
 2161SOL    HW2 8491   5.834  20.653   7.442
 2162SOL     OW 8492   8.050   9.021   2.408
 2162SOL    HW1 8493   8.059 -24.161 -19.742
 2162SOL    HW2 8494   7.955   9.031   2.419
 2163SOL     OW 8495   8.361  11.214   5.165
 2163SOL    HW1 8496   8.351  11.165  16.123
 2163SOL    HW2 8497   8.343   0.265 -27.978
 2164SOL     OW 8498   2.912   7.478  11.415
 2164SOL    HW1 8499  -8.102 -25.654   0.467
 2164SOL    HW2 8500  -8.213 -14.559  11.420
 2165SOL     OW 8501   4.932   5.999   2.678
 2165SOL    HW1 8502   4.982  -5.090 -19.467
 2165SOL    HW2 8503   4.847  17.051  13.677
 2166SOL     OW 8504   2.358   9.875   1.176
 2166SOL    HW1 8505   2.373  -1.083  23.302
 2166SOL    HW2 8506   2.446   9.839  12.201
 2167SOL     OW 8507  10.620   3.520   4.274
 2167SOL    HW1 8508  -0.349   3.464   4.240
 2167SOL    HW2 8509  -0.470   3.463   4.330
 2168SOL     OW 8510   7.237   0.762   2.922
 2168SOL    HW1 8511   7.239   0.790  -8.026
 2168SOL    HW2 8512  29.231  11.760   2.911
 2169SOL     OW 8513   9.400   0.133   7.739
 2169SOL    HW1 8514  -1.731   0.105  18.785
 2169SOL    HW2 8515   9.411   0.197   7.809
 2170SOL     OW 8516  -0.247   2.352   6.652
 2170SOL    HW1 8517 -11.354   2.323   6.714
 2170SOL    HW2 8518  21.785   2.362   6.569
 2171SOL     OW 8519   0.087   4.780   1.695
 2171SOL    HW1 8520   0.096  -6.354  -9.349
 2171SOL    HW2 8521   0.057  -6.242   1.785
 2172SOL     OW 8522   8.038   5.043   5.130
 2172SOL    HW1 8523   8.028   4.960   5.177
 2172SOL    HW2 8524 -14.118   5.048   5.072
 2173SOL     OW 8525   6.651   5.112  -0.126
 2173SOL    HW1 8526   6.690   5.114  -0.038
 2173SOL    HW2 8527  39.700  16.217  10.917
 2174SOL     OW 8528   1.810  10.713  12.246
 2174SOL    HW1 8529   1.721  10.682  -9.849
 2174SOL    HW2 8530  12.893  10.706  12.160
 2175SOL     OW 8531   0.142   6.244  10.597
 2175SOL    HW1 8532  44.337   6.316  10.546
 2175SOL    HW2 8533   0.112   6.286  10.678
 2176SOL     OW 8534   7.706   4.860   0.131
 2176SOL    HW1 8535   7.658   4.811   0.064
 2176SOL    HW2 8536  29.849   4.912   0.082
 2177SOL     OW 8537   2.542   9.994  10.551
 2177SOL    HW1 8538  -8.590   9.976  10.571
 2177SOL    HW2 8539  13.598   9.949  10.469
 2178SOL     OW 8540   8.938   4.208   3.362
 2178SOL    HW1 8541  20.026   4.216   3.444
 2178SOL    HW2 8542   8.967   4.283  -7.730
 2179SOL     OW 8543   0.788   2.382   6.522
 2179SOL    HW1 8544   0.822   2.468   6.496
 2179SOL    HW2 8545   0.864   2.335  17.595
 2180SOL     OW 8546  10.334   5.353   4.955
 2180SOL    HW1 8547  10.387  16.403  27.113
 2180SOL    HW2 8548  10.336   5.259   4.937
 2181SOL     OW 8549   6.658   5.718   1.496
 2181SOL    HW1 8550   6.702   5.802   1.479
 2181SOL    HW2 8551   6.568   5.742  23.596
 2182SOL     OW 8552   0.960  10.561  10.167
 2182SOL    HW1 8553  11.997  10.584  10.075
 2182SOL    HW2 8554   1.051  10.537  10.184
 2183SOL     OW 8555   5.125   8.632   9.442
 2183SOL    HW1 8556   5.111   8.581   9.363
 2183SOL    HW2 8557   5.047  19.656   9.495
 2184SOL     OW 8558   8.370   2.407   5.014
 2184SOL    HW1 8559   8.419   2.462   5.074
 2184SOL    HW2 8560  -2.752   2.454   4.999
 2185SOL     OW 8561   9.339  -0.189   7.387
 2185SOL    HW1 8562   9.303  10.790   7.322
 2185SOL    HW2 8563   9.434  -0.199   7.378
 2186SOL     OW 8564   5.054   5.953   7.002
 2186SOL    HW1 8565   4.988   5.943  40.190
 2186SOL    HW2 8566  16.088   6.045   6.977
 2187SOL     OW 8567   8.335  -1.922   0.830
 2187SOL    HW1 8568   8.270  42.184   0.877
 2187SOL    HW2 8569   8.319  -1.832   0.858
 2188SOL     OW 8570   4.839   7.283  10.329
 2188SOL    HW1 8571   4.773   7.214  21.381
 2188SOL    HW2 8572  15.837  -3.694  10.271
 2189SOL     OW 8573   8.888   6.685   1.487
 2189SOL    HW1 8574  31.030   6.662  23.635
 2189SOL    HW2 8575   8.852   6.601  -9.580
 2190SOL     OW 8576   2.905   7.860   0.883
 2190SOL    HW1 8577   2.881   7.951   0.863
 2190SOL    HW2 8578  35.965   7.836   0.955
 2191SOL     OW 8579  11.069   2.201   0.645
 2191SOL    HW1 8580   0.109   2.254   0.639
 2191SOL    HW2 8581  11.041   2.210   0.736
 2192SOL     OW 8582   8.580   3.540   4.996
 2192SOL    HW1 8583   8.659  -7.468   4.953
 2192SOL    HW2 8584   8.612   3.489   5.071
 2193SOL     OW 8585  -0.893   4.217   5.577
 2193SOL    HW1 8586  10.196   4.215   5.659
 2193SOL    HW2 8587  21.125   4.143   5.584
 2194SOL     OW 8588   3.730   0.403   8.875
 2194SOL    HW1 8589   3.797   0.401   8.806
 2194SOL    HW2 8590   3.780   0.395  -2.083
 2195SOL     OW 8591   5.894   7.406   6.487
 2195SOL    HW1 8592   5.844  51.492   6.448
 2195SOL    HW2 8593   5.984 -14.689   6.461
 2196SOL     OW 8594   2.091   2.411   8.480
 2196SOL    HW1 8595   2.093 -19.601  30.627
 2196SOL    HW2 8596   2.115   2.330   8.524
 2197SOL     OW 8597   4.196  11.218   5.323
 2197SOL    HW1 8598   4.226   0.088   5.321
 2197SOL    HW2 8599   4.243   0.221   5.252
 2198SOL     OW 8600  10.938   6.932   8.747
 2198SOL    HW1 8601  11.002   6.870   8.713
 2198SOL    HW2 8602  10.875   6.942   8.676
 2199SOL     OW 8603   6.399   6.675  10.355
 2199SOL    HW1 8604   6.343   6.718  10.419
 2199SOL    HW2 8605   6.481   6.723  21.398
 2200SOL     OW 8606   7.591   3.109   6.511
 2200SOL    HW1 8607   7.559   3.067   6.590
 2200SOL    HW2 8608   7.526   3.178   6.493
 2201SOL     OW 8609   8.265   1.071  10.523
 2201SOL    HW1 8610   8.190   1.114  10.482
 2201SOL    HW2 8611  -2.698   1.110  10.480
 2202SOL     OW 8612   4.084   9.448   6.239
 2202SOL    HW1 8613  -6.950   9.433  17.373
 2202SOL    HW2 8614   4.161   9.501  28.298
 2203SOL     OW 8615   0.850   8.145  12.324
 2203SOL    HW1 8616  11.831   8.165  12.251
 2203SOL    HW2 8617  11.928   8.230 -20.771
 2204SOL     OW 8618   9.353   4.710   0.733
 2204SOL    HW1 8619  -1.669   4.627   0.690
 2204SOL    HW2 8620   9.302   4.688  11.850
 2205SOL     OW 8621   2.797   8.600   1.431
 2205SOL    HW1 8622   2.728   8.615   1.496
 2205SOL    HW2 8623  13.799   8.634   1.349
 2206SOL     OW 8624   5.108   4.656   0.414
 2206SOL    HW1 8625   5.173   4.704  22.545
 2206SOL    HW2 8626   5.028  -6.379   0.467
 2207SOL     OW 8627   9.838  -2.395   6.545
 2207SOL    HW1 8628   9.813  19.612   6.487
 2207SOL    HW2 8629   9.932  30.715   6.555
 2208SOL     OW 8630   1.988   3.488   0.718
 2208SOL    HW1 8631   1.959   3.414   0.666
 2208SOL    HW2 8632   2.031  -7.493 -10.384
 2209SOL     OW 8633   9.405   2.414   6.167
 2209SOL    HW1 8634  -1.650   2.490   6.223
 2209SOL    HW2 8635 -12.734  -8.692  -4.840
 2210SOL     OW 8636   2.776   4.501   5.363
 2210SOL    HW1 8637   2.782   4.504 -16.621
 2210SOL    HW2 8638   2.732   4.582   5.339
 2211SOL     OW 8639   3.340  10.308   5.679
 2211SOL    HW1 8640   3.400  10.245  27.799
 2211SOL    HW2 8641  36.398  -0.785  16.669
 2212SOL     OW 8642  10.388   9.064   0.407
 2212SOL    HW1 8643  10.437   9.038   0.329
 2212SOL    HW2 8644  21.336   9.048   0.384
 2213SOL     OW 8645   2.988  10.460   4.926
 2213SOL    HW1 8646   3.031  10.545   4.934
 2213SOL    HW2 8647   2.959  10.439   5.015
 2214SOL     OW 8648   7.927   5.818   9.933
 2214SOL    HW1 8649   7.837   5.844   9.952
 2214SOL    HW2 8650   7.933   5.728   9.963
 2215SOL     OW 8651   6.398   6.793   6.515
 2215SOL    HW1 8652   6.323   6.841   6.549
 2215SOL    HW2 8653  17.468  17.883   6.440
 2216SOL     OW 8654   0.787   4.649   2.344
 2216SOL    HW1 8655  11.922   4.648  -8.685
 2216SOL    HW2 8656   0.757   4.573 -19.685
 2217SOL     OW 8657   6.710   0.032   7.763
 2217SOL    HW1 8658 -15.397  -0.044   7.713
 2217SOL    HW2 8659   6.629   0.080   7.781
 2218SOL     OW 8660  10.493   8.765   4.247
 2218SOL    HW1 8661 -11.657  -2.211   4.257
 2218SOL    HW2 8662  10.570   8.808 -17.793
 2219SOL     OW 8663   5.095   1.769   1.016
 2219SOL    HW1 8664   5.041  -9.326   1.072
 2219SOL    HW2 8665  16.091   1.766 -10.109
 2220SOL     OW 8666   4.299   0.405   0.885
 2220SOL    HW1 8667  15.297  11.503   0.821
 2220SOL    HW2 8668   4.393  22.498  11.912
 2221SOL     OW 8669   3.191   7.629   3.503
 2221SOL    HW1 8670   3.268   7.621  -7.593
 2221SOL    HW2 8671  -7.903   7.695  -7.580
 2222SOL     OW 8672  11.439   4.672   8.685
 2222SOL    HW1 8673  11.351   4.708   8.674
 2222SOL    HW2 8674   0.390   4.605   8.753
 2223SOL     OW 8675   6.841   6.107   8.651
 2223SOL    HW1 8676   6.791  -4.997   8.600
 2223SOL    HW2 8677   6.774   6.160   8.694
 2224SOL     OW 8678   9.834   5.970  10.399
 2224SOL    HW1 8679   9.928   5.983 -11.694
 2224SOL    HW2 8680   9.822   5.875  10.397
 2225SOL     OW 8681   8.615   3.912   6.137
 2225SOL    HW1 8682   8.678 -18.218 -49.112
 2225SOL    HW2 8683  -2.500   3.921 -15.999
 2226SOL     OW 8684   6.169   2.790   7.224
 2226SOL    HW1 8685  17.298   2.779   7.256
 2226SOL    HW2 8686  17.153  13.802   7.296
 2227SOL     OW 8687   2.409   0.565   0.888
 2227SOL    HW1 8688  -8.695   0.547  11.859
 2227SOL    HW2 8689   2.390  33.620 -10.083
 2228SOL     OW 8690   2.259   8.417   6.053
 2228SOL    HW1 8691   2.228   8.366   5.978
 2228SOL    HW2 8692   2.342 -13.624   6.022
 2229SOL     OW 8693   8.671   1.895   6.416
 2229SOL    HW1 8694   8.712   1.837  -4.560
 2229SOL    HW2 8695   8.725   1.973   6.416
 2230SOL     OW 8696   4.251   0.600   5.232
 2230SOL    HW1 8697   4.158   0.622   5.228
 2230SOL    HW2 8698   4.295   0.675   5.192
 2231SOL     OW 8699   2.086   0.841   6.360
 2231SOL    HW1 8700   2.049   0.758  28.412
 2231SOL    HW2 8701   2.168   0.849  -4.729
 2232SOL     OW 8702   9.458   7.103  11.828
 2232SOL    HW1 8703   9.396   7.052  11.879
 2232SOL    HW2 8704  20.467   7.194 -10.244
 2233SOL     OW 8705   0.986   6.610   1.433
 2233SOL    HW1 8706   1.077   6.609  56.602
 2233SOL    HW2 8707   0.988   6.658   1.516
 2234SOL     OW 8708  -1.201   7.263   7.661
 2234SOL    HW1 8709  -1.178   7.232 -25.370
 2234SOL    HW2 8710  20.961  29.344   7.613
 2235SOL     OW 8711   7.393   0.750  10.402
 2235SOL    HW1 8712   7.389  22.839  10.307
 2235SOL    HW2 8713   7.302 -10.303  10.428
 2236SOL     OW 8714   5.134   0.071  -1.442
 2236SOL    HW1 8715   5.054   0.104  31.716
 2236SOL    HW2 8716  27.275   0.064  -1.369
 2237SOL     OW 8717   1.352   4.199  10.846
 2237SOL    HW1 8718   1.334  -6.760  10.896
 2237SOL    HW2 8719   1.375  -6.809  10.759
 2238SOL     OW 8720   5.051   0.739   3.803
 2238SOL    HW1 8721 -17.045   0.809   3.866
 2238SOL    HW2 8722   5.130   0.697   3.835
 2239SOL     OW 8723   2.686   8.529   7.524
 2239SOL    HW1 8724  -8.436  30.564  18.543
 2239SOL    HW2 8725   2.693   8.524  18.659
 2240SOL     OW 8726   0.130  10.895  10.294
 2240SOL    HW1 8727   0.174  10.831  10.239
 2240SOL    HW2 8728   0.085  -0.196  10.361
 2241SOL     OW 8729   7.425   5.484   0.057
 2241SOL    HW1 8730   7.406   5.495  11.003
 2241SOL    HW2 8731   7.516   5.513   0.067
 2242SOL     OW 8732   6.352  -0.749  11.447
 2242SOL    HW1 8733   6.366 -11.870   0.456
 2242SOL    HW2 8734   6.266  43.400  11.407
 2243SOL     OW 8735  11.348   6.096   0.359
 2243SOL    HW1 8736   0.357  17.054   0.372
 2243SOL    HW2 8737  11.257  39.187   0.349
 2244SOL     OW 8738   1.721   5.368   9.334
 2244SOL    HW1 8739   1.814   5.350   9.348
 2244SOL    HW2 8740   1.709   5.457   9.366
 2245SOL     OW 8741   5.218   3.380   1.596
 2245SOL    HW1 8742   5.250   3.470   1.605
 2245SOL    HW2 8743   5.186  -7.665  12.545
 2246SOL     OW 8744   8.153   6.940   5.498
 2246SOL    HW1 8745   8.090   7.003  -5.508
 2246SOL    HW2 8746 -47.099  17.908   5.463
 2247SOL     OW 8747   4.977   2.368   6.217
 2247SOL    HW1 8748   5.020   2.296  -4.868
 2247SOL    HW2 8749   5.046   2.433   6.230
 2248SOL     OW 8750   6.686   4.812  -0.119
 2248SOL    HW1 8751  17.653 -17.239  10.866
 2248SOL    HW2 8752   6.718   4.892  -0.078
 2249SOL     OW 8753   1.144  -0.169   7.821
 2249SOL    HW1 8754   1.233  10.843   7.800
 2249SOL    HW2 8755   1.116  -0.119   7.744
 2250SOL     OW 8756   1.462   9.345  11.705
 2250SOL    HW1 8757   1.378 -12.768  11.675
 2250SOL    HW2 8758   1.450 -12.640 -10.368
 2251SOL     OW 8759   5.245   2.736   7.081
 2251SOL    HW1 8760  38.435   2.798   7.095
 2251SOL    HW2 8761  38.393   2.683 -15.073
 2252SOL     OW 8762   1.090  10.728  11.546
 2252SOL    HW1 8763  12.222  10.749  11.560
 2252SOL    HW2 8764  -9.960  -0.313   0.411
 2253SOL     OW 8765   6.482   3.929   6.201
 2253SOL    HW1 8766   6.439   3.984  -4.904
 2253SOL    HW2 8767   6.433   3.847   6.200
 2254SOL     OW 8768   8.620   3.877   8.934
 2254SOL    HW1 8769  19.696  14.843   8.982
 2254SOL    HW2 8770  -2.475   3.922   8.998
 2255SOL     OW 8771   3.861   1.736  10.441
 2255SOL    HW1 8772   3.911   1.679  10.383
 2255SOL    HW2 8773   3.794   1.680  10.479
 2256SOL     OW 8774   2.304   6.428   3.120
 2256SOL    HW1 8775   2.328   6.397  -7.832
 2256SOL    HW2 8776   2.388   6.450  14.119
 2257SOL     OW 8777   9.571   2.079   6.422
 2257SOL    HW1 8778   9.591 -19.907  -4.611
 2257SOL    HW2 8779 -23.533   2.058  17.369
 2258SOL     OW 8780   4.670   8.625   1.786
 2258SOL    HW1 8781   4.674   8.708   1.738
 2258SOL    HW2 8782   4.578 -13.480   1.782
 2259SOL     OW 8783   2.150   1.246   8.586
 2259SOL    HW1 8784   2.232   1.289   8.610
 2259SOL    HW2 8785   2.082   1.306   8.615
 2260SOL     OW 8786   3.844   0.905  10.781
 2260SOL    HW1 8787   3.822   0.945  10.865
 2260SOL    HW2 8788  25.849   0.928  10.724
 2261SOL     OW 8789   9.648   3.410   7.282
 2261SOL    HW1 8790 -12.500  14.501   7.240
 2261SOL    HW2 8791   9.673  14.385 -14.864
 2262SOL     OW 8792   3.332   2.014   3.171
 2262SOL    HW1 8793  14.303   2.059  14.161
 2262SOL    HW2 8794   3.317  -9.118   3.155
 2263SOL     OW 8795   5.190   3.242  10.241
 2263SOL    HW1 8796   5.142   3.322  10.264
 2263SOL    HW2 8797   5.188   3.240  10.146
 2264SOL     OW 8798   4.982   9.005   5.159
 2264SOL    HW1 8799   4.955  -1.967   5.096
 2264SOL    HW2 8800   5.023  -2.102  16.145
 2265SOL     OW 8801  10.528   1.582   0.588
 2265SOL    HW1 8802  10.558   1.566   0.677
 2265SOL    HW2 8803  10.433   1.575  11.632
 2266SOL     OW 8804  10.258   6.254   1.022
 2266SOL    HW1 8805  10.266   6.338   1.068
 2266SOL    HW2 8806  10.313   6.263 -10.095
 2267SOL     OW 8807   7.015   6.627  12.069
 2267SOL    HW1 8808   6.934   6.672 -10.032
 2267SOL    HW2 8809  -3.968   6.696  12.106
 2268SOL     OW 8810  10.143   0.374   5.337
 2268SOL    HW1 8811  10.210   0.414   5.281
 2268SOL    HW2 8812  10.183  11.409   5.423
 2269SOL     OW 8813   9.267   4.133   8.983
 2269SOL    HW1 8814   9.258 -18.006  -2.130
 2269SOL    HW2 8815  -1.686   4.115   9.018
 2270SOL     OW 8816   9.632   9.199   9.567
 2270SOL    HW1 8817   9.663 -12.826   9.494
 2270SOL    HW2 8818   9.710  20.224   9.621
 2271SOL     OW 8819   4.598   7.103   3.262
 2271SOL    HW1 8820   4.652  18.070   3.230
 2271SOL    HW2 8821   4.594   7.090   3.357
 2272SOL     OW 8822   8.445   2.215   1.371
 2272SOL    HW1 8823   8.504   2.160   1.422
 2272SOL    HW2 8824   8.408 -19.803   1.435
 2273SOL     OW 8825   8.766   7.895  11.164
 2273SOL    HW1 8826   8.785   7.808  11.199
 2273SOL    HW2 8827   8.852   7.930   0.101
 2274SOL     OW 8828   7.814   5.857   8.241
 2274SOL    HW1 8829   7.890   5.907   8.210
 2274SOL    HW2 8830   7.749  61.120   8.264
 2275SOL     OW 8831   0.855   5.617   2.237
 2275SOL    HW1 8832   0.777   5.659   2.200
 2275SOL    HW2 8833   0.929 -16.415   2.199
 2276SOL     OW 8834   6.678   5.700   1.906
 2276SOL    HW1 8835   6.657   5.608   1.892
 2276SOL    HW2 8836   6.667   5.714   2.000
 2277SOL     OW 8837   4.468   2.719   5.488
 2277SOL    HW1 8838  -6.654  13.714  -5.535
 2277SOL    HW2 8839   4.517   2.659  16.470
 2278SOL     OW 8840   1.382   3.191   1.817
 2278SOL    HW1 8841  12.436  -7.823   1.908
 2278SOL    HW2 8842   1.447   3.241   1.767
 2279SOL     OW 8843   8.322   7.973   8.853
 2279SOL    HW1 8844   8.314   7.912   8.780
 2279SOL    HW2 8845   8.390   8.035  19.865
 2280SOL     OW 8846   6.750   8.750   6.633
 2280SOL    HW1 8847   6.766   8.839   6.665
 2280SOL    HW2 8848   6.658 -13.329  17.647
 2281SOL     OW 8849   0.577  -1.145   2.888
 2281SOL    HW1 8850   0.616  -1.058   2.896
 2281SOL    HW2 8851   0.483  20.949  -8.140
 2282SOL     OW 8852   5.955   6.895   2.813
 2282SOL    HW1 8853  -5.040   6.978  13.835
 2282SOL    HW2 8854  17.015   6.876   2.905
 2283SOL     OW 8855   8.782   3.241   4.870
 2283SOL    HW1 8856  -2.217 -18.774   4.928
 2283SOL    HW2 8857 -24.285   3.245  -6.250
 2284SOL     OW 8858  -1.986   5.987  -0.912
 2284SOL    HW1 8859  20.145   5.908  -0.903
 2284SOL    HW2 8860  20.086   6.022  21.257
 2285SOL     OW 8861   3.100   5.542   7.284
 2285SOL    HW1 8862   3.124   5.498   7.365
 2285SOL    HW2 8863  -7.969   5.472   7.227
 2286SOL     OW 8864  10.645   5.670   7.110
 2286SOL    HW1 8865  10.729   5.633   7.083
 2286SOL    HW2 8866  10.624   5.734   7.043
 2287SOL     OW 8867   9.710   4.959   4.396
 2287SOL    HW1 8868   9.626   4.913   4.395
 2287SOL    HW2 8869   9.739   4.958  -6.734
 2288SOL     OW 8870   2.728  10.258   3.159
 2288SOL    HW1 8871  13.738  10.201  -7.810
 2288SOL    HW2 8872  -8.308  10.345  -7.841
 2289SOL     OW 8873   9.663   3.396   2.895
 2289SOL    HW1 8874  31.718   3.351   2.813
 2289SOL    HW2 8875   9.758  25.465  -8.138
 2290SOL     OW 8876   5.454  10.103   3.790
 2290SOL    HW1 8877   5.373  10.154   3.795
 2290SOL    HW2 8878   5.433  10.031   3.730
 2291SOL     OW 8879   6.657  10.591   4.565
 2291SOL    HW1 8880   6.682  10.679   4.594
 2291SOL    HW2 8881  -4.300  10.550  15.579
 2292SOL     OW 8882  10.396   4.710   3.768
 2292SOL    HW1 8883  10.440   4.787   3.803
 2292SOL    HW2 8884  10.331   4.745   3.707
 2293SOL     OW 8885   8.873   3.082   9.487
 2293SOL    HW1 8886   8.861   3.144   9.559
 2293SOL    HW2 8887 -24.285   3.001   9.519
 2294SOL     OW 8888  10.623   2.042   2.054
 2294SOL    HW1 8889  10.668  -8.927   2.009
 2294SOL    HW2 8890  10.693   1.985   2.086
 2295SOL     OW 8891   3.830   6.470   4.817
 2295SOL    HW1 8892   3.913 -15.643   4.784
 2295SOL    HW2 8893   3.772  -4.645   4.818
 2296SOL     OW 8894   2.037  13.044   3.566
 2296SOL    HW1 8895   2.128 -42.181  -7.465
 2296SOL    HW2 8896   2.023  13.106  25.716
 2297SOL     OW 8897   0.225   9.242  10.640
 2297SOL    HW1 8898  11.318  20.225 -11.383
 2297SOL    HW2 8899   0.248   9.215  10.551
 2298SOL     OW 8900   4.508   8.160   6.376
 2298SOL    HW1 8901   4.480  30.326   6.403
 2298SOL    HW2 8902 -17.620   8.142   6.296
 2299SOL     OW 8903   5.989   8.999   2.166
 2299SOL    HW1 8904   6.066   8.943   2.156
 2299SOL    HW2 8905   5.933   8.976   2.093
 2300SOL     OW 8906   5.893   9.158   9.875
 2300SOL    HW1 8907  -5.210   9.087   9.866
 2300SOL    HW2 8908   5.919   9.178  -1.254
 2301SOL     OW 8909   0.532   5.804  10.047
 2301SOL    HW1 8910   0.523   5.827  10.139
 2301SOL    HW2 8911   0.498   5.880  10.000
 2302SOL     OW 8912   7.892  -0.227   8.358
 2302SOL    HW1 8913  41.011  -0.304   8.301
 2302SOL    HW2 8914  29.966  10.777  30.526
 2303SOL     OW 8915  10.834   0.026  10.158
 2303SOL    HW1 8916  10.921   0.051  10.191
 2303SOL    HW2 8917  10.852  -0.045  10.096
 2304SOL     OW 8918   8.323   7.748   9.032
 2304SOL    HW1 8919  -2.702   7.788  -1.922
 2304SOL    HW2 8920   8.318   7.823   8.972
 2305SOL     OW 8921   1.398   4.404  10.040
 2305SOL    HW1 8922  12.442   4.462   9.964
 2305SOL    HW2 8923   1.362  -6.581  10.110
 2306SOL     OW 8924   8.429   2.040   4.024
 2306SOL    HW1 8925  -2.581   2.131   4.027
 2306SOL    HW2 8926 -13.623  -9.035   4.109
 2307SOL     OW 8927   5.120   8.921   9.351
 2307SOL    HW1 8928   5.159   8.834   9.344
 2307SOL    HW2 8929   5.161   8.960  -1.612
 2308SOL     OW 8930  10.061   6.819   4.295
 2308SOL    HW1 8931   9.980  28.910   4.244
 2308SOL    HW2 8932  10.055   6.730   4.328
 2309SOL     OW 8933   5.125   7.071  10.378
 2309SOL    HW1 8934   5.154  29.194  10.457
 2309SOL    HW2 8935   5.173   6.988  10.378
 2310SOL     OW 8936   8.481   0.781   4.877
 2310SOL    HW1 8937   8.390   0.804   4.860
 2310SOL    HW2 8938  30.595   0.854   4.927
 2311SOL     OW 8939   2.668   0.768   3.551
 2311SOL    HW1 8940  -8.346   0.704   3.617
 2311SOL    HW2 8941   2.664   0.719   3.470
 2312SOL     OW 8942   7.143   3.965   0.595
 2312SOL    HW1 8943   7.167   3.933  22.761
 2312SOL    HW2 8944   7.212  15.067  11.612
 2313SOL     OW 8945   4.147   9.128   5.524
 2313SOL    HW1 8946   4.158   9.201   5.584
 2313SOL    HW2 8947   4.213   9.143   5.456
 2314SOL     OW 8948   7.563   1.043  10.064
 2314SOL    HW1 8949 -25.492 -21.107  10.073
 2314SOL    HW2 8950  -3.424  23.199  10.043
 2315SOL     OW 8951   6.791   4.927   9.077
 2315SOL    HW1 8952 -26.331   5.003   9.020
 2315SOL    HW2 8953   6.728   4.865   9.041
 2316SOL     OW 8954   2.584   2.652   5.327
 2316SOL    HW1 8955   2.652 -19.457   5.266
 2316SOL    HW2 8956  -8.444  -8.293   5.331
 2317SOL     OW 8957   9.824  10.876   6.767
 2317SOL    HW1 8958   9.763  10.803  28.839
 2317SOL    HW2 8959  20.813  10.947  -4.233
 2318SOL     OW 8960   3.447   1.897   1.595
 2318SOL    HW1 8961   3.508  -9.183  -9.382
 2318SOL    HW2 8962  25.455   1.931  23.728
 2319SOL     OW 8963   3.719   3.333   7.294
 2319SOL    HW1 8964  14.732   3.413  18.379
 2319SOL    HW2 8965   3.696   3.348  -3.837
 2320SOL     OW 8966   8.563  10.783  10.200
 2320SOL    HW1 8967  19.687  21.786  10.226
 2320SOL    HW2 8968   8.499 -11.350 -22.872
 2321SOL     OW 8969   7.647   3.790   4.597
 2321SOL    HW1 8970   7.717   3.742 -28.477
 2321SOL    HW2 8971   7.686 -18.263   4.513
 2322SOL     OW 8972   2.579   0.868  12.193
 2322SOL    HW1 8973   2.595  11.892   1.060
 2322SOL    HW2 8974   2.633  11.984  -9.866
 2323SOL     OW 8975   5.842   5.709  -1.607
 2323SOL    HW1 8976   5.897   5.684  20.546
 2323SOL    HW2 8977  16.841   5.791   9.459
 2324SOL     OW 8978   9.067  10.651   5.887
 2324SOL    HW1 8979 -13.018  10.716   5.816
 2324SOL    HW2 8980   9.048  10.701   5.966
 2325SOL     OW 8981   0.196   7.745   9.452
 2325SOL    HW1 8982  11.173  18.717  -1.613
 2325SOL    HW2 8983   0.192   7.748   9.547
 2326SOL     OW 8984   2.431   0.788   3.723
 2326SOL    HW1 8985   2.515   0.811 -18.316
 2326SOL    HW2 8986 -19.696   0.870 -18.361
 2327SOL     OW 8987   5.711   3.566  10.997
 2327SOL    HW1 8988   5.773   3.558  11.070
 2327SOL    HW2 8989   5.732  25.729  10.956
 2328SOL     OW 8990   3.989   7.134   1.692
 2328SOL    HW1 8991   4.046  29.143  -9.379
 2328SOL    HW2 8992   4.043   7.212   1.691
 2329SOL     OW 8993   2.541   8.087   0.716
 2329SOL    HW1 8994   2.534  -3.036  22.842
 2329SOL    HW2 8995   2.452   8.121   0.715
 2330SOL     OW 8996   8.788   8.728   6.287
 2330SOL    HW1 8997   8.696 -13.343 -15.814
 2330SOL    HW2 8998   8.833  19.772   6.202
 2331SOL     OW 8999   4.116   8.609   3.106
 2331SOL    HW1 9000  26.117  -2.438   3.160
 2331SOL    HW2 9001   4.189   8.592   3.165
 2332SOL     OW 9002   5.435  10.183   3.441
 2332SOL    HW1 9003   5.528  -0.875  -7.592
 2332SOL    HW2 9004   5.404  10.184   3.532
 2333SOL     OW 9005   2.501  10.144   6.331
 2333SOL    HW1 9006  24.509  10.175  -4.764
 2333SOL    HW2 9007  13.513  10.167 -26.699
 2334SOL     OW 9008   3.348  10.854   9.192
 2334SOL    HW1 9009   3.363  10.947   9.176
 2334SOL    HW2 9010   3.406  10.809  31.210
 2335SOL     OW 9011   8.086   9.406   9.035
 2335SOL    HW1 9012   8.138   9.349   9.092
 2335SOL    HW2 9013   8.063   9.480   9.090
 2336SOL     OW 9014   2.102   1.411   1.654
 2336SOL    HW1 9015   2.045  12.382   1.688
 2336SOL    HW2 9016   2.069 -20.649  -9.473
 2337SOL     OW 9017   4.164  10.393   2.022
 2337SOL    HW1 9018   4.090  10.403   2.082
 2337SOL    HW2 9019   4.124  10.374   1.937
 2338SOL     OW 9020   4.098   9.028  10.213
 2338SOL    HW1 9021  15.042   9.023  10.212
 2338SOL    HW2 9022  26.198   9.059  10.301
 2339SOL     OW 9023   8.454   1.892   8.433
 2339SOL    HW1 9024  19.543  34.980   8.510
 2339SOL    HW2 9025  30.600   1.916  -2.670
 2340SOL     OW 9026   6.868   7.671  11.575
 2340SOL    HW1 9027   6.847  -3.344 -10.414
 2340SOL    HW2 9028   6.852   7.751   0.484
 2341SOL     OW 9029   5.482   7.985   4.027
 2341SOL    HW1 9030   5.408   7.930   3.999
 2341SOL    HW2 9031  -5.487   7.923   4.044
 2342SOL     OW 9032   5.549   1.417   7.225
 2342SOL    HW1 9033   5.477   1.472   7.192
 2342SOL    HW2 9034   5.622  23.556  -3.802
 2343SOL     OW 9035   2.462   3.856   6.615
 2343SOL    HW1 9036  -8.541   3.943   6.634
 2343SOL    HW2 9037   2.480   3.805  -4.346
 2344SOL     OW 9038  -1.437   7.538   6.629
 2344SOL    HW1 9039  53.808   7.543  17.752
 2344SOL    HW2 9040  -1.390   7.472   6.578
 2345SOL     OW 9041  10.332   7.944   7.918
 2345SOL    HW1 9042  -0.799  -3.076  -3.140
 2345SOL    HW2 9043  10.329 -14.217   7.967
 2346SOL     OW 9044   4.091   6.187   6.491
 2346SOL    HW1 9045   4.136   6.186   6.576
 2346SOL    HW2 9046  15.048   6.232   6.508
 2347SOL     OW 9047   8.447  10.681   0.400
 2347SOL    HW1 9048  19.424  10.724  11.498
 2347SOL    HW2 9049  19.445  10.682   0.314
 2348SOL     OW 9050   9.993   8.468   3.268
 2348SOL    HW1 9051   9.910   8.431  -7.801
 2348SOL    HW2 9052  10.010   8.539   3.207
 2349SOL     OW 9053   9.242   5.900   6.124
 2349SOL    HW1 9054  20.247   5.814   6.151
 2349SOL    HW2 9055   9.297  28.007 -15.882
 2350SOL     OW 9056   0.775   6.291   0.315
 2350SOL    HW1 9057   0.754   6.214   0.262
 2350SOL    HW2 9058   0.812   6.256   0.396
 2351SOL     OW 9059   2.542   3.534   4.560
 2351SOL    HW1 9060   2.623   3.499  15.637
 2351SOL    HW2 9061  13.514  -7.532   4.622
 2352SOL     OW 9062  10.281   3.365   9.062
 2352SOL    HW1 9063  10.284   3.408   9.148
 2352SOL    HW2 9064  10.373   3.356   9.037
 2353SOL     OW 9065   2.298   1.682   6.880
 2353SOL    HW1 9066  24.448  12.706  17.982
 2353SOL    HW2 9067   2.323  23.709   6.803
 2354SOL     OW 9068   1.009   9.883   8.005
 2354SOL    HW1 9069 -10.008   9.927  -3.117
 2354SOL    HW2 9070   1.022   9.950   8.072
 2355SOL     OW 9071   4.198   8.173   7.491
 2355SOL    HW1 9072   4.130   8.182   7.424
 2355SOL    HW2 9073   4.188   8.084 -36.634
 2356SOL     OW 9074  10.904  10.605  11.360
 2356SOL    HW1 9075  -0.117  10.511   0.324
 2356SOL    HW2 9076 -11.232  10.615  11.284
 2357SOL     OW 9077   8.690  10.241   0.294
 2357SOL    HW1 9078 -24.480  10.316   0.323
 2357SOL    HW2 9079   8.645  10.211   0.215
 2358SOL     OW 9080   0.437   2.516   6.848
 2358SOL    HW1 9081   0.468   2.511   6.938
 2358SOL    HW2 9082   0.395   2.430  17.872
 2359SOL     OW 9083   0.804   9.832  10.685
 2359SOL    HW1 9084   0.854   9.912 -11.409
 2359SOL    HW2 9085   0.841  -1.245  32.844
 2360SOL     OW 9086   4.853   4.179   1.875
 2360SOL    HW1 9087   4.929   4.134   1.911
 2360SOL    HW2 9088  15.928   4.256   1.831
 2361SOL     OW 9089  10.084   9.251   7.559
 2361SOL    HW1 9090  10.012  20.290  -3.418
 2361SOL    HW2 9091  10.140   9.177   7.585
 2362SOL     OW 9092   6.677   8.417   5.714
 2362SOL    HW1 9093   6.767   8.440  27.817
 2362SOL    HW2 9094   6.660   8.335   5.761
 2363SOL     OW 9095   6.572   3.037   5.524
 2363SOL    HW1 9096   6.535   3.119   5.557
 2363SOL    HW2 9097   6.499 -19.086   5.482
 2364SOL     OW 9098   7.410  -0.338  10.725
 2364SOL    HW1 9099  40.444  10.729  10.691
 2364SOL    HW2 9100  18.486  -0.259  -0.273
 2365SOL     OW 9101   1.287   7.273   0.119
 2365SOL    HW1 9102   1.361   7.310   0.072
 2365SOL    HW2 9103   1.212   7.327   0.094
 2366SOL     OW 9104  -1.991   1.472   7.935
 2366SOL    HW1 9105  31.039   1.510   7.934
 2366SOL    HW2 9106   9.105  12.583   7.905
 2367SOL     OW 9107  11.514   5.731   7.763
 2367SOL    HW1 9108  11.468   5.792   7.821
 2367SOL    HW2 9109   0.562  -5.317   7.801
 2368SOL     OW 9110  11.149   4.710   6.448
 2368SOL    HW1 9111   0.100   4.640  -4.526
 2368SOL    HW2 9112 -10.940  -6.249  28.577
 2369SOL     OW 9113   9.179   6.341  10.271
 2369SOL    HW1 9114   9.138   6.267  10.316
 2369SOL    HW2 9115   9.248   6.301  10.219
 2370SOL     OW 9116   1.828   7.921  -0.026
 2370SOL    HW1 9117   1.795   7.936  22.142
 2370SOL    HW2 9118   1.911   7.969  -0.029
 2371SOL     OW 9119   9.749   2.702   3.417
 2371SOL    HW1 9120   9.825   2.757   3.437
 2371SOL    HW2 9121  -1.262  35.769   3.341
 2372SOL     OW 9122   6.341   8.891   8.679
 2372SOL    HW1 9123   6.350   8.928   8.767
 2372SOL    HW2 9124   6.431   8.875   8.650
 2373SOL     OW 9125  -1.689   8.340   7.203
 2373SOL    HW1 9126  20.343  19.440   7.261
 2373SOL    HW2 9127  20.472   8.385   7.183
 2374SOL     OW 9128   8.279  10.992   9.447
 2374SOL    HW1 9129   8.193  10.951  31.538
 2374SOL    HW2 9130  19.298  11.076   9.404
 2375SOL     OW 9131  10.591   8.007   9.149
 2375SOL    HW1 9132  10.547  30.043   9.222
 2375SOL    HW2 9133  10.684   7.987   9.161
 2376SOL     OW 9134   1.608   3.803   7.803
 2376SOL    HW1 9135   1.678  -7.303  40.918
 2376SOL    HW2 9136  12.689   3.883  29.851
 2377SOL     OW 9137   2.279   6.764   1.253
 2377SOL    HW1 9138   2.296   6.679   1.295
 2377SOL    HW2 9139   2.309   6.752  -9.877
 2378SOL     OW 9140   1.536   8.022   3.692
 2378SOL    HW1 9141   1.471  -2.948  -7.353
 2378SOL    HW2 9142   1.607   8.052   3.635
 2379SOL     OW 9143   9.805   4.727   0.924
 2379SOL    HW1 9144   9.866   4.683 -10.175
 2379SOL    HW2 9145   9.730   4.750   0.870
 2380SOL     OW 9146   4.641   5.202  10.222
 2380SOL    HW1 9147  15.704   5.226  21.172
 2380SOL    HW2 9148  15.758   5.157  -0.783
 2381SOL     OW 9149   2.144   2.958  11.007
 2381SOL    HW1 9150   2.080   2.949  11.078
 2381SOL    HW2 9151   2.113   2.898  -0.101
 2382SOL     OW 9152  10.001   9.650   0.028
 2382SOL    HW1 9153  21.021   9.711   0.099
 2382SOL    HW2 9154   9.958   9.688  -0.048
 2383SOL     OW 9155   2.293   6.159   7.712
 2383SOL    HW1 9156   2.266  17.280  -3.370
 2383SOL    HW2 9157  -8.825   6.105   7.711
 2384SOL     OW 9158   9.182   6.830   3.119
 2384SOL    HW1 9159   9.163   6.738  -7.904
 2384SOL    HW2 9160   9.095   6.872  -7.922
 2385SOL     OW 9161   0.793   0.685   3.523
 2385SOL    HW1 9162   0.779   0.777   3.546
 2385SOL    HW2 9163   0.811   0.643   3.607
 2386SOL     OW 9164   5.206   3.993   4.571
 2386SOL    HW1 9165 -16.878   4.018   4.479
 2386SOL    HW2 9166   5.298   4.005  -6.445
 2387SOL     OW 9167   3.322   5.949   9.096
 2387SOL    HW1 9168   3.397   5.979   9.045
 2387SOL    HW2 9169   3.338   5.855   9.108
 2388SOL     OW 9170   4.993   1.454   4.435
 2388SOL    HW1 9171   5.030   1.433   4.520
 2388SOL    HW2 9172   5.052   1.521   4.399
 2389SOL     OW 9173   5.825   6.231  10.396
 2389SOL    HW1 9174   5.817  -4.765  10.311
 2389SOL    HW2 9175  16.777   6.196  10.413
 2390SOL     OW 9176   0.626   9.251   9.929
 2390SOL    HW1 9177   0.683   9.252   9.851
 2390SOL    HW2 9178 -10.354  -1.811  10.001
 2391SOL     OW 9179   9.855   9.127   9.669
 2391SOL    HW1 9180   9.933   9.078  20.734
 2391SOL    HW2 9181  20.843   9.133   9.750
 2392SOL     OW 9182  -1.406   8.548   2.498
 2392SOL    HW1 9183   9.687   8.506  -8.608
 2392SOL    HW2 9184  31.622   8.529 -30.647
 2393SOL     OW 9185   5.674  10.851   6.460
 2393SOL    HW1 9186   5.646  10.761   6.477
 2393SOL    HW2 9187  27.764  10.890   6.546
 2394SOL     OW 9188   5.303  -0.903   8.014
 2394SOL    HW1 9189   5.396  21.153   8.023
 2394SOL    HW2 9190   5.302  -0.835   7.946
 2395SOL     OW 9191   7.840  -0.048   2.718
 2395SOL    HW1 9192  29.851  -0.114  24.813
 2395SOL    HW2 9193 -14.160  10.955  -8.282
 2396SOL     OW 9194   1.297   1.623   9.148
 2396SOL    HW1 9195   1.233   1.686  -1.860
 2396SOL    HW2 9196   1.378   1.645   9.194
 2397SOL     OW 9197   5.640   7.155  -3.406
 2397SOL    HW1 9198   5.608   7.084  29.768
 2397SOL    HW2 9199  -5.476   7.181  73.819
 2398SOL     OW 9200  11.778   8.768   3.519
 2398SOL    HW1 9201  11.829  30.843   3.600
 2398SOL    HW2 9202 -10.236  19.823   3.450
 2399SOL     OW 9203   2.936   1.954   0.215
 2399SOL    HW1 9204  -8.152   1.875   0.191
 2399SOL    HW2 9205   2.991   1.927   0.289
 2400SOL     OW 9206  10.492   4.924   3.883
 2400SOL    HW1 9207 -11.559  16.002  -7.240
 2400SOL    HW2 9208 -11.658   4.981 -18.166
 2401SOL     OW 9209   3.541   7.891   6.163
 2401SOL    HW1 9210   3.509   7.982   6.167
 2401SOL    HW2 9211   3.500   7.848   6.237
 2402SOL     OW 9212   5.422   9.468   4.912
 2402SOL    HW1 9213 -27.650   9.389   4.938
 2402SOL    HW2 9214   5.357   9.481   4.981
 2403SOL     OW 9215   7.236   8.277   9.414
 2403SOL    HW1 9216   7.206   8.186   9.400
 2403SOL    HW2 9217   7.231 -13.790  31.588
 2404SOL     OW 9218   6.051   4.645   7.479
 2404SOL    HW1 9219   5.956   4.656   7.480
 2404SOL    HW2 9220   6.070   4.604   7.394
 2405SOL     OW 9221   7.865   1.955   2.232
 2405SOL    HW1 9222  18.873   1.866   2.245
 2405SOL    HW2 9223   7.913   1.952   2.149
 2406SOL     OW 9224   6.068  11.039   6.521
 2406SOL    HW1 9225 -16.046  10.952  17.583
 2406SOL    HW2 9226  -4.881  11.022  17.534
 2407SOL     OW 9227   5.076   3.526   9.663
 2407SOL    HW1 9228 -17.026 -18.598   9.744
 2407SOL    HW2 9229   5.042 -29.649  20.633
 2408SOL     OW 9230   3.000  10.995   8.935
 2408SOL    HW1 9231  14.047  11.053 -13.220
 2408SOL    HW2 9232  -8.121  10.947  -2.120
 2409SOL     OW 9233   5.789   4.225   5.517
 2409SOL    HW1 9234 -16.299  -6.865   5.598
 2409SOL    HW2 9235   5.769  -6.725   5.543
 2410SOL     OW 9236   6.047   0.096   1.515
 2410SOL    HW1 9237   6.092   0.060  23.518
 2410SOL    HW2 9238   6.112   0.153   1.556
 2411SOL     OW 9239   5.776   8.957   4.438
 2411SOL    HW1 9240  -5.331   8.974   4.372
 2411SOL    HW2 9241   5.751  19.914   4.478
 2412SOL     OW 9242   7.831   0.111   7.470
 2412SOL    HW1 9243  18.802   0.045   7.471
 2412SOL    HW2 9244   7.803   0.174 -25.715
 2413SOL     OW 9245   9.471  10.728   1.289
 2413SOL    HW1 9246   9.427  10.649   1.322
 2413SOL    HW2 9247   9.535  10.695 -20.852
 2414SOL     OW 9248   0.616   0.411   2.992
 2414SOL    HW1 9249   0.679   0.454   3.049
 2414SOL    HW2 9250   0.574   0.345   3.047
 2415SOL     OW 9251   2.595   1.332   1.141
 2415SOL    HW1 9252   2.547   1.401  12.136
 2415SOL    HW2 9253  -8.480   1.331   1.230
 2416SOL     OW 9254   0.457   1.303   4.315
 2416SOL    HW1 9255   0.365   1.326  15.362
 2416SOL    HW2 9256   0.492   1.363  -6.790
 2417SOL     OW 9257   9.182  11.006   6.863
 2417SOL    HW1 9258   9.242  10.932   6.866
 2417SOL    HW2 9259   9.166  11.028   6.955
 2418SOL     OW 9260   6.015   7.275  10.288
 2418SOL    HW1 9261   6.049  18.364  10.214
 2418SOL    HW2 9262   5.955   7.336  21.371
 2419SOL     OW 9263   6.077   8.230  10.302
 2419SOL    HW1 9264 -16.003   8.146  10.257
 2419SOL    HW2 9265   6.165   8.265  10.288
 2420SOL     OW 9266   1.416   3.898   1.747
 2420SOL    HW1 9267   1.357  48.099   1.808
 2420SOL    HW2 9268   1.501  14.981  -9.279
 2421SOL     OW 9269   3.209   7.702   5.553
 2421SOL    HW1 9270   3.129   7.653  16.612
 2421SOL    HW2 9271   3.189   7.750   5.473
 2422SOL     OW 9272   6.243   9.649   1.507
 2422SOL    HW1 9273   6.193   9.674  -9.454
 2422SOL    HW2 9274   6.226   9.555   1.498
 2423SOL     OW 9275   8.353  10.283   8.548
 2423SOL    HW1 9276   8.379  10.265   8.638
 2423SOL    HW2 9277   8.319  10.372   8.549
 2424SOL     OW 9278   2.717   3.589   3.201
 2424SOL    HW1 9279   2.793   3.545   3.163
 2424SOL    HW2 9280   2.725   3.680   3.174
 2425SOL     OW 9281   2.551   3.159   0.911
 2425SOL    HW1 9282   2.511  14.113   0.899
 2425SOL    HW2 9283   2.478  25.296   0.933
 2426SOL     OW 9284   8.569  10.922   9.303
 2426SOL    HW1 9285  19.575  10.879  31.461
 2426SOL    HW2 9286   8.651  10.877   9.284
 2427SOL     OW 9287   5.235  11.119   9.846
 2427SOL    HW1 9288   5.199   0.130  20.958
 2427SOL    HW2 9289  16.360  11.090   9.878
 2428SOL     OW 9290   6.718   9.787   6.620
 2428SOL    HW1 9291  -4.294   9.832   6.700
 2428SOL    HW2 9292  17.823   9.810   6.555
 2429SOL     OW 9293   6.553  10.898   0.730
 2429SOL    HW1 9294   6.521  10.917   0.642
 2429SOL    HW2 9295  -4.504 -11.275  11.782
 2430SOL     OW 9296   8.819   3.416   7.257
 2430SOL    HW1 9297   8.849   3.378   7.175
 2430SOL    HW2 9298 -13.355   3.410  -3.786
 2431SOL     OW 9299   8.703   8.688   3.156
 2431SOL    HW1 9300  -2.289   8.764 -18.956
 2431SOL    HW2 9301   8.670   8.644   3.078
 2432SOL     OW 9302   0.404   4.263   9.431
 2432SOL    HW1 9303   0.439   4.335   9.484
 2432SOL    HW2 9304   0.375   4.305  -1.689
 2433SOL     OW 9305   4.629   7.747   1.775
 2433SOL    HW1 9306   4.549   7.718   1.732
 2433SOL    HW2 9307   4.599  29.869  23.934
 2434SOL     OW 9308   9.590   6.266  -0.425
 2434SOL    HW1 9309   9.516  28.398  32.663
 2434SOL    HW2 9310   9.661  17.369  -0.414
 2435SOL     OW 9311   2.303  10.936   8.549
 2435SOL    HW1 9312   2.339  11.016   8.588
 2435SOL    HW2 9313   2.208  10.951  30.627
 2436SOL     OW 9314   8.859   2.776   2.216
 2436SOL    HW1 9315   8.880   2.752   2.126
 2436SOL    HW2 9316   8.795   2.847   2.207
 2437SOL     OW 9317   1.791   5.076   6.265
 2437SOL    HW1 9318  34.857   5.140  28.295
 2437SOL    HW2 9319   1.739   5.058   6.343
 2438SOL     OW 9320   0.048  10.594   7.884
 2438SOL    HW1 9321  11.146  10.615  -3.083
 2438SOL    HW2 9322   0.095  10.623   7.806
 2439SOL     OW 9323   6.072   8.687   2.931
 2439SOL    HW1 9324   6.155   8.661   2.892
 2439SOL    HW2 9325   6.078 -13.418   3.023
 2440SOL     OW 9326  10.211   7.479   6.152
 2440SOL    HW1 9327  21.220   7.426  -4.813
 2440SOL    HW2 9328  10.228   7.565  -4.849
 2441SOL     OW 9329   4.347   4.666   1.139
 2441SOL    HW1 9330  -6.781  15.700   1.175
 2441SOL    HW2 9331   4.394   4.592   1.179
 2442SOL     OW 9332   7.119   5.107  10.360
 2442SOL    HW1 9333  -4.012   5.133 -22.772
 2442SOL    HW2 9334   7.159   5.118  10.274
 2443SOL     OW 9335   9.602   0.493   4.876
 2443SOL    HW1 9336 -23.579  22.627  15.867
 2443SOL    HW2 9337   9.650   0.554   4.932
 2444SOL     OW 9338   9.032   4.509   9.085
 2444SOL    HW1 9339   9.107   4.499  20.067
 2444SOL    HW2 9340  20.027   4.589   9.054
 2445SOL     OW 9341   2.049  10.454   9.042
 2445SOL    HW1 9342   1.974  10.446   8.983
 2445SOL    HW2 9343   2.058  10.548   9.057
 2446SOL     OW 9344   1.454   4.405   2.116
 2446SOL    HW1 9345   1.489   4.461   2.184
 2446SOL    HW2 9346   1.532   4.367   2.074
 2447SOL     OW 9347  -0.478   2.483   5.071
 2447SOL    HW1 9348  -0.472   2.395 -17.047
 2447SOL    HW2 9349  21.510  24.588  16.097
 2448SOL     OW 9350   1.714   0.668   7.252
 2448SOL    HW1 9351   1.701 -10.301   7.314
 2448SOL    HW2 9352   1.632   0.665   7.202
 2449SOL     OW 9353  -0.374  -1.799   5.332
 2449SOL    HW1 9354  -0.296   9.296   5.332
 2449SOL    HW2 9355  10.658  20.251  -5.798
 2450SOL     OW 9356  10.351   6.741  10.619
 2450SOL    HW1 9357  -0.683   6.778  -0.333
 2450SOL    HW2 9358 -11.806  -4.354  10.621
 2451SOL     OW 9359   4.850  11.728   8.754
 2451SOL    HW1 9360   4.802 -10.353  -2.204
 2451SOL    HW2 9361   4.906 -10.274 -13.319
 2452SOL     OW 9362   2.931  10.473   2.417
 2452SOL    HW1 9363   2.970  10.386   2.431
 2452SOL    HW2 9364   2.870  10.460   2.344
 2453SOL     OW 9365  10.513   3.401   2.786
 2453SOL    HW1 9366  10.470   3.381   2.703
 2453SOL    HW2 9367  10.466   3.350   2.851
 2454SOL     OW 9368   2.068   5.333   1.793
 2454SOL    HW1 9369   2.037   5.291   1.874
 2454SOL    HW2 9370   1.996  27.399   1.731
 2455SOL     OW 9371   1.250   3.024   5.952
 2455SOL    HW1 9372   1.296  -7.940  17.027
 2455SOL    HW2 9373   1.316   2.955   5.950
 2456SOL     OW 9374   6.346   3.566   8.572
 2456SOL    HW1 9375  17.383   3.494   8.509
 2456SOL    HW2 9376  17.329   3.536   8.644
 2457SOL     OW 9377   5.201   6.150   2.483
 2457SOL    HW1 9378   5.250  28.222   2.401
 2457SOL    HW2 9379   5.268   6.157   2.551
 2458SOL     OW 9380   9.734   0.728   6.185
 2458SOL    HW1 9381  -1.398  11.792   6.191
 2458SOL    HW2 9382  -1.289  11.758   6.092
 2459SOL     OW 9383   2.070   3.313   9.405
 2459SOL    HW1 9384   2.090   3.277   9.492
 2459SOL    HW2 9385   2.019  -7.794   9.362
 2460SOL     OW 9386  -0.452   9.043   6.602
 2460SOL    HW1 9387  21.572   9.002   6.536
 2460SOL    HW2 9388  10.675   9.048  28.641
 2461SOL     OW 9389   2.079  10.577   3.001
 2461SOL    HW1 9390   2.093  -0.557   3.011
 2461SOL    HW2 9391   1.985  10.589   3.013
 2462SOL     OW 9392   3.135   8.662   4.641
 2462SOL    HW1 9393   3.069  -2.311  -6.418
 2462SOL    HW2 9394  -7.830   8.686   4.586
 2463SOL     OW 9395   8.747  10.720   9.298
 2463SOL    HW1 9396  19.832  10.643   9.331
 2463SOL    HW2 9397  -2.246  10.744  20.258
 2464SOL     OW 9398   6.567   3.310   0.586
 2464SOL    HW1 9399   6.571   3.220   0.553
 2464SOL    HW2 9400   6.610   3.305   0.671
 2465SOL     OW 9401   7.808   3.069  10.723
 2465SOL    HW1 9402 -14.324  14.030  10.716
 2465SOL    HW2 9403  -3.240   3.112  10.638
 2466SOL     OW 9404   1.072   6.354   6.602
 2466SOL    HW1 9405   1.108  -4.765  17.681
 2466SOL    HW2 9406  12.070   6.323  17.561
 2467SOL     OW 9407   2.522   8.208   3.709
 2467SOL    HW1 9408   2.615  19.233   3.692
 2467SOL    HW2 9409  13.560   8.253   3.794
 2468SOL     OW 9410   9.913   2.504   8.665
 2468SOL    HW1 9411   9.887  -8.626   8.686
 2468SOL    HW2 9412   9.838  13.596   8.692
 2469SOL     OW 9413   8.725   5.140   0.698
 2469SOL    HW1 9414   8.664   5.208 -10.311
 2469SOL    HW2 9415   8.746   5.165   0.608
 2470SOL     OW 9416   6.931   4.670   2.111
 2470SOL    HW1 9417  18.041   4.729   2.133
 2470SOL    HW2 9418  18.012  15.641   2.058
 2471SOL     OW 9419   0.047   8.885   0.917
 2471SOL    HW1 9420   0.043  -2.083   0.854
 2471SOL    HW2 9421   0.069   8.808   0.864
 2472SOL     OW 9422   5.655   8.763   1.408
 2472SOL    HW1 9423   5.605   8.751  -9.713
 2472SOL    HW2 9424   5.719   8.691  -9.632
 2473SOL     OW 9425   8.012   6.288   4.905
 2473SOL    HW1 9426  18.968 -26.871   4.926
 2473SOL    HW2 9427   8.003   6.379  15.972
 2474SOL     OW 9428   2.260   9.017   0.328
 2474SOL    HW1 9429  13.265   8.947   0.383
 2474SOL    HW2 9430  -8.852   9.038  22.347
 2475SOL     OW 9431   4.987  -0.615  10.417
 2475SOL    HW1 9432 -17.163  32.471  10.473
 2475SOL    HW2 9433 -17.132  -0.609  10.330
 2476SOL     OW 9434   8.560   3.612   0.390
 2476SOL    HW1 9435   8.605   3.527   0.388
 2476SOL    HW2 9436   8.527  14.663   0.301
 2477SOL     OW 9437   6.687   9.275   4.696
 2477SOL    HW1 9438   6.639 -23.761  -6.351
 2477SOL    HW2 9439   6.719   9.274 -17.293
 2478SOL     OW 9440   9.932   3.839   7.831
 2478SOL    HW1 9441  10.002  -7.239   7.778
 2478SOL    HW2 9442   9.951 -18.147   7.832
 2479SOL     OW 9443   2.789   5.863   4.880
 2479SOL    HW1 9444   2.695   5.881   4.880
 2479SOL    HW2 9445   2.800 -38.363  -6.226
 2480SOL     OW 9446   4.275   5.085   9.998
 2480SOL    HW1 9447   4.212   5.155  10.009
 2480SOL    HW2 9448   4.334   5.093  10.073
 2481SOL     OW 9449   9.828   2.683   2.243
 2481SOL    HW1 9450   9.810  13.807   2.203
 2481SOL    HW2 9451  -1.121  13.703 -30.902
 2482SOL     OW 9452   6.562   5.628   5.577
 2482SOL    HW1 9453   6.475  -5.424  16.654
 2482SOL    HW2 9454 -26.553   5.721   5.556
 2483SOL     OW 9455   6.091   7.262   3.529
 2483SOL    HW1 9456   6.106  29.324   3.622
 2483SOL    HW2 9457   6.140   7.342   3.511
 2484SOL     OW 9458   8.733   8.343   2.628
 2484SOL    HW1 9459   8.723   8.331   2.722
 2484SOL    HW2 9460   8.758  19.475   2.618
 2485SOL     OW 9461   4.746   5.331   2.411
 2485SOL    HW1 9462  26.743 -16.703   2.431
 2485SOL    HW2 9463   4.798  -5.700  -8.549
 2486SOL     OW 9464   7.957   7.641   1.550
 2486SOL    HW1 9465  -3.176   7.624 -20.515
 2486SOL    HW2 9466   7.988  18.717   1.633
 2487SOL     OW 9467   8.030   7.019  -1.074
 2487SOL    HW1 9468   8.079   7.074  20.944
 2487SOL    HW2 9469   7.985  -3.959  -1.016
 2488SOL     OW 9470   6.665   5.583   8.985
 2488SOL    HW1 9471   6.576   5.582   8.950
 2488SOL    HW2 9472  28.734  -5.426   9.075
 2489SOL     OW 9473   1.341   5.430   4.357
 2489SOL    HW1 9474   1.333  -5.514   4.366
 2489SOL    HW2 9475  -9.606   5.412  15.412
 2490SOL     OW 9476   2.078   0.891   9.295
 2490SOL    HW1 9477   2.097  23.017   9.377
 2490SOL    HW2 9478   2.144 -21.156  20.273
 2491SOL     OW 9479   4.551   3.761   1.549
 2491SOL    HW1 9480   4.551 -18.269  23.710
 2491SOL    HW2 9481  26.684 -18.265  12.529
 2492SOL     OW 9482   4.530   3.248   3.942
 2492SOL    HW1 9483  15.487   3.217   3.906
 2492SOL    HW2 9484   4.506  -7.742   4.020
 2493SOL     OW 9485   8.905   5.058   0.889
 2493SOL    HW1 9486  19.859   5.066   0.846
 2493SOL    HW2 9487   8.949   5.140   0.870
 2494SOL     OW 9488   4.607   9.102   7.400
 2494SOL    HW1 9489  26.602   9.058   7.396
 2494SOL    HW2 9490   4.589   9.191   7.372
 2495SOL     OW 9491   7.516  10.920   7.950
 2495SOL    HW1 9492   7.493  -0.035   7.912
 2495SOL    HW2 9493   7.550  10.942  19.077
 2496SOL     OW 9494   1.444   2.969  11.034
 2496SOL    HW1 9495   1.421   3.000  11.121
 2496SOL    HW2 9496  -9.641   2.885  11.025
 2497SOL     OW 9497   9.595   1.103   5.689
 2497SOL    HW1 9498  -1.450   1.193   5.721
 2497SOL    HW2 9499   9.560  -9.933   5.600
 2498SOL     OW 9500   6.678   5.468   3.387
 2498SOL    HW1 9501 -59.514  16.429   3.419
 2498SOL    HW2 9502  -4.437   5.434   3.340
 2499SOL     OW 9503   7.880   3.538   9.326
 2499SOL    HW1 9504  -3.162   3.511   9.417
 2499SOL    HW2 9505   7.791   3.564  31.385
 2500SOL     OW 9506   8.429   6.233   9.843
 2500SOL    HW1 9507   8.362   6.224   9.911
 2500SOL    HW2 9508  19.551   6.239   9.892
 2501SOL     OW 9509   0.979   1.819   1.078
 2501SOL    HW1 9510  23.030  -9.130   1.066
 2501SOL    HW2 9511  12.034   1.811   1.172
 2502SOL     OW 9512   5.673   4.423   7.692
 2502SOL    HW1 9513   5.735   4.398   7.760
 2502SOL    HW2 9514   5.653  -6.524  -3.330
 2503SOL     OW 9515  10.848   3.225   9.066
 2503SOL    HW1 9516 -11.289  14.189   9.077
 2503SOL    HW2 9517  10.913   3.215   9.135
 2504SOL     OW 9518   2.159   4.722   1.626
 2504SOL    HW1 9519   2.181  26.710  23.729
 2504SOL    HW2 9520   2.075   4.738  23.749
 2505SOL     OW 9521  -2.949   9.746   1.045
 2505SOL    HW1 9522  30.123   9.824   1.015
 2505SOL    HW2 9523  19.104   9.735   1.136
 2506SOL     OW 9524   6.335   9.597   4.503
 2506SOL    HW1 9525   6.260   9.539   4.490
 2506SOL    HW2 9526  17.336   9.685 -17.575
 2507SOL     OW 9527   9.049   6.220   7.296
 2507SOL    HW1 9528   9.102   6.265   7.230
 2507SOL    HW2 9529   9.100  17.265   7.377
 2508SOL     OW 9530   8.189   9.350   4.953
 2508SOL    HW1 9531   8.255   9.318   4.892
 2508SOL    HW2 9532   8.107   9.311   4.923
 2509SOL     OW 9533   2.699   8.175   1.208
 2509SOL    HW1 9534  13.769   8.089  12.218
 2509SOL    HW2 9535   2.768  19.275   1.181
 2510SOL     OW 9536   0.573   3.705  10.253
 2510SOL    HW1 9537   0.505  36.815 -11.893
 2510SOL    HW2 9538   0.652  14.708  -0.826
 2511SOL     OW 9539   0.811   0.090   1.791
 2511SOL    HW1 9540   0.758   0.123   1.718
 2511SOL    HW2 9541   0.902   0.107  34.884
 2512SOL     OW 9542  10.095   5.483  12.081
 2512SOL    HW1 9543  10.045   5.502  12.002
 2512SOL    HW2 9544  10.163   5.551  -9.996
 2513SOL     OW 9545   5.291  -1.335   0.186
 2513SOL    HW1 9546   5.369  53.883   0.136
 2513SOL    HW2 9547   5.218  64.918   0.126
 2514SOL     OW 9548   2.001   4.849  -0.541
 2514SOL    HW1 9549  12.989   4.915  10.451
 2514SOL    HW2 9550   1.937   4.802  -0.489
 2515SOL     OW 9551   7.909   5.304   8.021
 2515SOL    HW1 9552 -14.237   5.364   8.054
 2515SOL    HW2 9553  -3.092   5.349  -3.093
 2516SOL     OW 9554   4.045  13.920   2.150
 2516SOL    HW1 9555  26.190   2.812  24.219
 2516SOL    HW2 9556   4.086 -41.200   2.113
 2517SOL     OW 9557   7.090   8.608   2.666
 2517SOL    HW1 9558  51.201   8.692  -8.379
 2517SOL    HW2 9559   7.029  30.629   2.711
 2518SOL     OW 9560   0.783   3.790   4.056
 2518SOL    HW1 9561   0.702 -18.336  -6.965
 2518SOL    HW2 9562   0.802   3.769   3.964
 2519SOL     OW 9563   5.683  10.901   6.723
 2519SOL    HW1 9564   5.604 -11.128   6.707
 2519SOL    HW2 9565  27.812  10.954  -4.254
 2520SOL     OW 9566   9.885   2.261   7.355
 2520SOL    HW1 9567   9.913   2.335  -3.739
 2520SOL    HW2 9568   9.886  13.335  -3.595
 2521SOL     OW 9569   8.762   5.571   1.691
 2521SOL    HW1 9570   8.840  -5.515  -9.316
 2521SOL    HW2 9571   8.689   5.514   1.715
 2522SOL     OW 9572   8.082   8.344   8.908
 2522SOL    HW1 9573   8.139   8.274   8.939
 2522SOL    HW2 9574   8.031  19.344  30.917
 2523SOL     OW 9575   1.435   0.925   4.089
 2523SOL    HW1 9576   1.375  11.988  -7.022
 2523SOL    HW2 9577   1.522   0.934 -18.029
 2524SOL     OW 9578   3.786   4.443   4.414
 2524SOL    HW1 9579   3.745   4.507  15.512
 2524SOL    HW2 9580   3.848   4.396  -6.569
 2525SOL     OW 9581  -1.640   9.024  10.003
 2525SOL    HW1 9582  -1.655  -1.940   9.946
 2525SOL    HW2 9583  31.437   9.047  10.086
 2526SOL     OW 9584   8.564  10.821   2.253
 2526SOL    HW1 9585 -24.471  -0.215   2.206
 2526SOL    HW2 9586  -2.501  10.913  13.302
 2527SOL     OW 9587   8.196   0.411   0.171
 2527SOL    HW1 9588   8.172   0.388   0.081
 2527SOL    HW2 9589   8.263   0.479   0.161
 2528SOL     OW 9590   4.294  10.160   2.067
 2528SOL    HW1 9591   4.265  10.242   2.027
 2528SOL    HW2 9592   4.323  10.107   1.994
 2529SOL     OW 9593   5.524   0.805   0.829
 2529SOL    HW1 9594   5.578   0.781  11.793
 2529SOL    HW2 9595   5.585   0.814   0.901
 2530SOL     OW 9596   8.503   4.542   0.383
 2530SOL    HW1 9597 -35.682   4.544   0.291
 2530SOL    HW2 9598  -2.579  -6.576  22.498
 2531SOL     OW 9599   6.021   6.510   5.997
 2531SOL    HW1 9600   5.970  -4.576   6.063
 2531SOL    HW2 9601   5.965  -4.531   5.919
 2532SOL     OW 9602   5.919   1.144   9.226
 2532SOL    HW1 9603   5.997   1.116   9.274
 2532SOL    HW2 9604  -5.142   1.229   9.264
 2533SOL     OW 9605   0.742   7.741   7.719
 2533SOL    HW1 9606   0.792  29.856  18.831
 2533SOL    HW2 9607   0.715  -3.223   7.667
 2534SOL     OW 9608   3.086   7.117   5.255
 2534SOL    HW1 9609   3.141   7.078   5.187
 2534SOL    HW2 9610 -19.009   7.207   5.224
 2535SOL     OW 9611   1.122   1.916   5.900
 2535SOL    HW1 9612   1.200   1.897   5.848
 2535SOL    HW2 9613  -9.966   1.980   5.848
 2536SOL     OW 9614   6.288   3.961   1.831
 2536SOL    HW1 9615   6.195   3.963   1.811
 2536SOL    HW2 9616   6.312   4.053  -9.195
 2537SOL     OW 9617   8.050   7.535   8.261
 2537SOL    HW1 9618  -3.023   7.505   8.346
 2537SOL    HW2 9619   7.971  -3.488   8.209
 2538SOL     OW 9620  10.547   1.853   4.060
 2538SOL    HW1 9621  10.528   1.941   4.028
 2538SOL    HW2 9622 -11.592   1.796   4.012
 2539SOL     OW 9623   7.593   0.725   5.081
 2539SOL    HW1 9624   7.642   0.742   5.001
 2539SOL    HW2 9625   7.617 -10.243   5.140
 2540SOL     OW 9626   0.448   3.029   1.997
 2540SOL    HW1 9627   0.417   2.948   1.957
 2540SOL    HW2 9628   0.543   3.027  13.025
 2541SOL     OW 9629   2.817   9.642   1.883
 2541SOL    HW1 9630   2.827   9.568   1.943
 2541SOL    HW2 9631   2.768  -1.434 -20.270
 2542SOL     OW 9632   2.683   5.546   6.795
 2542SOL    HW1 9633   2.693  -5.579   6.753
 2542SOL    HW2 9634 -19.464   5.533   6.861
 2543SOL     OW 9635   7.116   4.019   6.071
 2543SOL    HW1 9636   7.024  -7.024   6.044
 2543SOL    HW2 9637   7.145   4.106   6.044
 2544SOL     OW 9638   7.488   9.083   6.682
 2544SOL    HW1 9639   7.526   9.170   6.694
 2544SOL    HW2 9640   7.418   9.096   6.619
 2545SOL     OW 9641   7.793   7.306  10.640
 2545SOL    HW1 9642   7.757   7.298  10.551
 2545SOL    HW2 9643   7.717   7.321  10.696
 2546SOL     OW 9644   5.233   6.848   5.800
 2546SOL    HW1 9645   5.236   6.861  -5.335
 2546SOL    HW2 9646 -27.795  39.979  -5.211
 2547SOL     OW 9647   1.736   3.746  10.071
 2547SOL    HW1 9648  23.786   3.736   9.980
 2547SOL    HW2 9649  23.787  25.914  10.095
 2548SOL     OW 9650  11.470   1.772   5.663
 2548SOL    HW1 9651   0.458   1.863   5.656
 2548SOL    HW2 9652  11.439   1.763   5.753
 2549SOL     OW 9653   2.518   9.638   7.400
 2549SOL    HW1 9654   2.597   9.589  18.417
 2549SOL    HW2 9655  -8.545   9.607   7.487
 2550SOL     OW 9656   7.991   7.486   7.030
 2550SOL    HW1 9657   8.034 -14.636   6.955
 2550SOL    HW2 9658  19.030   7.419  29.177
 2551SOL     OW 9659   5.683   6.638   6.424
 2551SOL    HW1 9660   5.703   6.673   6.511
 2551SOL    HW2 9661   5.731  -4.344  17.403
 2552SOL     OW 9662   3.214   7.517   4.237
 2552SOL    HW1 9663  36.416   7.553  -6.774
 2552SOL    HW2 9664  25.229   7.585   4.258
 2553SOL     OW 9665   7.223   4.780   7.055
 2553SOL    HW1 9666   7.238   4.856   7.111
 2553SOL    HW2 9667   7.307   4.763   7.013
 2554SOL     OW 9668  11.372   0.363  10.635
 2554SOL    HW1 9669   0.299   0.391  10.550
 2554SOL    HW2 9670  11.330   0.279  10.651
 2555SOL     OW 9671   0.915   4.683   1.109
 2555SOL    HW1 9672   0.926   4.600  12.103
 2555SOL    HW2 9673   0.881  -6.381   1.195
 2556SOL     OW 9674   5.561   8.715   1.961
 2556SOL    HW1 9675  -5.462   8.721   1.867
 2556SOL    HW2 9676  16.548   8.636   1.971
 2557SOL     OW 9677   5.962   6.895   0.526
 2557SOL    HW1 9678   5.974   6.961   0.458
 2557SOL    HW2 9679   5.874   6.910   0.560
 2558SOL     OW 9680   8.598  10.320   9.696
 2558SOL    HW1 9681   8.588  10.368   9.614
 2558SOL    HW2 9682   8.511  -0.756  -1.326
 2559SOL     OW 9683   8.246  10.585   9.302
 2559SOL    HW1 9684  19.380  -0.442   9.296
 2559SOL    HW2 9685   8.223  21.575   9.223
 2560SOL     OW 9686   6.165   7.218   2.559
 2560SOL    HW1 9687  -4.876   7.275   2.482
 2560SOL    HW2 9688   6.101   7.150  13.579
 2561SOL     OW 9689   2.273  10.309  10.021
 2561SOL    HW1 9690   2.345  10.372  10.029
 2561SOL    HW2 9691   2.293  10.241  21.124
 2562SOL     OW 9692   0.034   4.088  -0.607
 2562SOL    HW1 9693   0.066   4.005  -0.572
 2562SOL    HW2 9694  10.993  -6.974  21.425
 2563SOL     OW 9695   7.644   4.114   2.487
 2563SOL    HW1 9696   7.612   4.095 -19.505
 2563SOL    HW2 9697   7.718   4.173   2.501
 2564SOL     OW 9698   3.180   7.833   6.088
 2564SOL    HW1 9699  14.124   7.829  -4.947
 2564SOL    HW2 9700   3.209  18.839   6.173
 2565SOL     OW 9701   8.278   3.593   7.748
 2565SOL    HW1 9702   8.351  -7.464   7.808
 2565SOL    HW2 9703  19.305   3.511   7.701
 2566SOL     OW 9704   8.268   4.643   8.661
 2566SOL    HW1 9705   8.308  15.730   8.588
 2566SOL    HW2 9706 -24.888   4.565   8.620
 2567SOL     OW 9707   6.403  10.815   8.800
 2567SOL    HW1 9708   6.354  10.874   8.744
 2567SOL    HW2 9709  17.441  10.731   8.754
 2568SOL     OW 9710  -1.082   2.502   1.921
 2568SOL    HW1 9711  -1.097   2.414   1.887
 2568SOL    HW2 9712  21.092  -8.533   1.935
 2569SOL     OW 9713   8.504   9.416   8.844
 2569SOL    HW1 9714   8.415   9.435   8.814
 2569SOL    HW2 9715   8.552   9.498   8.831
 2570SOL     OW 9716   4.292   4.774   4.242
 2570SOL    HW1 9717  -6.704   4.854   4.273
 2570SOL    HW2 9718  15.264   4.757   4.307
 2571SOL     OW 9719   2.070   2.263   2.980
 2571SOL    HW1 9720  13.028  -8.760   3.027
 2571SOL    HW2 9721   2.133   2.239   3.049
 2572SOL     OW 9722   2.853   2.436   4.426
 2572SOL    HW1 9723   2.944  13.501   4.411
 2572SOL    HW2 9724  13.859  13.455   4.339
 2573SOL     OW 9725  10.222  10.888   8.266
 2573SOL    HW1 9726  10.305  10.869   8.222
 2573SOL    HW2 9727  10.247  10.934   8.346
 2574SOL     OW 9728   6.988   6.762   4.818
 2574SOL    HW1 9729   7.040   6.766   4.899
 2574SOL    HW2 9730   6.929  -4.351   4.831
 2575SOL     OW 9731  10.069   2.586   3.193
 2575SOL    HW1 9732  10.065   2.681   3.186
 2575SOL    HW2 9733  10.097  24.649   3.283
 2576SOL     OW 9734   2.827   0.805   5.455
 2576SOL    HW1 9735   2.894   0.741  -5.608
 2576SOL    HW2 9736  -8.166   0.870  16.548
 2577SOL     OW 9737   6.344   1.809   8.330
 2577SOL    HW1 9738 -15.732   1.903   8.313
 2577SOL    HW2 9739   6.251  -9.249  19.384
 2578SOL     OW 9740   7.708   3.109   5.232
 2578SOL    HW1 9741   7.762 -19.039   5.193
 2578SOL    HW2 9742   7.748   3.126   5.317
 2579SOL     OW 9743  11.216   4.267   7.920
 2579SOL    HW1 9744  11.169  26.368   7.840
 2579SOL    HW2 9745 -66.106  15.229   7.954
 2580SOL     OW 9746   3.474   1.505   8.442
 2580SOL    HW1 9747   3.472  -9.584   8.360
 2580SOL    HW2 9748   3.481   1.439   8.510
 2581SOL     OW 9749  10.857   5.391   0.971
 2581SOL    HW1 9750  -0.104   5.429   0.933
 2581SOL    HW2 9751  10.870   5.297 -10.074
 2582SOL     OW 9752   3.951   2.907   7.120
 2582SOL    HW1 9753   3.935  -8.125   7.026
 2582SOL    HW2 9754  -7.089   2.813  51.296
 2583SOL     OW 9755  10.503   0.481   0.865
 2583SOL    HW1 9756  10.543  11.488  11.825
 2583SOL    HW2 9757  10.558   0.448   0.936
 2584SOL     OW 9758   1.741   5.414   2.730
 2584SOL    HW1 9759   1.790   5.405  35.930
 2584SOL    HW2 9760   1.650   5.397   2.755
 2585SOL     OW 9761   2.811   3.794   2.182
 2585SOL    HW1 9762  13.818   3.732   2.116
 2585SOL    HW2 9763   2.731   3.832 -19.860
 2586SOL     OW 9764   3.349   3.650  -0.478
 2586SOL    HW1 9765   3.277  25.667  21.591
 2586SOL    HW2 9766   3.428   3.597  -0.487
 2587SOL     OW 9767   8.227   0.403   6.088
 2587SOL    HW1 9768   8.141   0.387 -27.069
 2587SOL    HW2 9769   8.282   0.331  -4.984
 2588SOL     OW 9770   4.846   3.126   1.819
 2588SOL    HW1 9771  15.844  14.237  12.812
 2588SOL    HW2 9772  15.861   3.047   1.771
 2589SOL     OW 9773   9.187   8.317   0.099
 2589SOL    HW1 9774  -1.844   8.290   0.190
 2589SOL    HW2 9775   9.095   8.341   0.090
 2590SOL     OW 9776   1.311   6.330   2.675
 2590SOL    HW1 9777  12.263   6.296  46.813
 2590SOL    HW2 9778  -9.715   6.307   2.767
 2591SOL     OW 9779   4.886   9.175   6.763
 2591SOL    HW1 9780   4.927   9.099   6.805
 2591SOL    HW2 9781   4.911   9.168   6.671
 2592SOL     OW 9782   3.427   7.846   9.398
 2592SOL    HW1 9783  14.526   7.854   9.472
 2592SOL    HW2 9784   3.340   7.857   9.435
 2593SOL     OW 9785   0.932   6.117   0.045
 2593SOL    HW1 9786   1.011   6.142  22.172
 2593SOL    HW2 9787   0.922  17.063  22.143
 2594SOL     OW 9788  11.087   9.920   4.733
 2594SOL    HW1 9789  -0.024  20.979   4.793
 2594SOL    HW2 9790  11.043   9.883   4.656
 2595SOL     OW 9791   7.262   9.512   0.970
 2595SOL    HW1 9792   7.203 -23.619   1.044
 2595SOL    HW2 9793   7.207   9.550   0.902
 2596SOL     OW 9794   5.061   1.319   1.804
 2596SOL    HW1 9795  -6.032 -20.807  12.907
 2596SOL    HW2 9796   5.012   1.313   1.722
 2597SOL     OW 9797  10.922  10.633   5.754
 2597SOL    HW1 9798  10.866  -0.485   5.757
 2597SOL    HW2 9799  10.971  -0.410   5.836
 2598SOL     OW 9800   9.999   6.514   9.212
 2598SOL    HW1 9801   9.912 -26.607   9.253
 2598SOL    HW2 9802  21.085   6.440   9.251
 2599SOL     OW 9803   4.819   3.538   3.536
 2599SOL    HW1 9804   4.910   3.559   3.555
 2599SOL    HW2 9805   4.801   3.460  25.668
 2600SOL     OW 9806  10.831   7.900   5.342
 2600SOL    HW1 9807  -0.274   7.946   5.289
 2600SOL    HW2 9808  21.899   7.964   5.407
 2601SOL     OW 9809   3.408   3.448  -1.581
 2601SOL    HW1 9810  -7.594  -7.524  20.440
 2601SOL    HW2 9811   3.340  14.533  20.546
 2602SOL     OW 9812   5.540   7.397   0.241
 2602SOL    HW1 9813   5.446   7.407   0.230
 2602SOL    HW2 9814   5.561  18.485   0.320
 2603SOL     OW 9815   0.958   9.498   7.620
 2603SOL    HW1 9816   0.942   9.588   7.647
 2603SOL    HW2 9817   0.989  20.544   7.530
 2604SOL     OW 9818   5.288   1.811   9.183
 2604SOL    HW1 9819   5.327   1.895   9.160
 2604SOL    HW2 9820  16.306   1.770 -12.980
 2605SOL     OW 9821   1.071   5.296  11.016
 2605SOL    HW1 9822  12.106   5.215  11.066
 2605SOL    HW2 9823   0.990   5.342  11.036
 2606SOL     OW 9824   8.315  10.608  10.634
 2606SOL    HW1 9825   8.280 -11.401  -0.462
 2606SOL    HW2 9826   8.294  -0.403  -0.317
 2607SOL     OW 9827   3.363   9.708   5.024
 2607SOL    HW1 9828   3.385   9.786   4.973
 2607SOL    HW2 9829   3.446   9.680  -5.976
 2608SOL     OW 9830   7.759   9.821   4.931
 2608SOL    HW1 9831   7.685   9.841  -6.165
 2608SOL    HW2 9832   7.819   9.894  -6.121
 2609SOL     OW 9833  -1.362   7.224   9.842
 2609SOL    HW1 9834   9.743   7.289   9.866
 2609SOL    HW2 9835  31.675  29.336  -1.159
 2610SOL     OW 9836   4.359   4.025   0.837
 2610SOL    HW1 9837   4.374   4.076   0.758
 2610SOL    HW2 9838   4.428   3.960   0.838
 2611SOL     OW 9839   5.333   8.872   5.688
 2611SOL    HW1 9840   5.341   8.777   5.672
 2611SOL    HW2 9841   5.353   8.882   5.781
 2612SOL     OW 9842   9.661   0.303   7.949
 2612SOL    HW1 9843   9.713   0.229   7.918
 2612SOL    HW2 9844   9.597   0.263  -3.032
 2613SOL     OW 9845   2.709  11.104   9.156
 2613SOL    HW1 9846   2.643   0.115  31.187
 2613SOL    HW2 9847   2.657  11.047  20.253
 2614SOL     OW 9848   4.008   6.361   2.543
 2614SOL    HW1 9849   4.051   6.378   2.627
 2614SOL    HW2 9850   3.918  17.428  -8.483
 2615SOL     OW 9851  10.645   8.660   3.048
 2615SOL    HW1 9852  10.633   8.722  14.015
 2615SOL    HW2 9853  10.736 -13.409 -30.045
 2616SOL     OW 9854   7.541   0.044   3.450
 2616SOL    HW1 9855   7.559   0.028  -7.497
 2616SOL    HW2 9856  18.504   0.102   3.450
 2617SOL     OW 9857   3.573   4.050   8.881
 2617SOL    HW1 9858   3.496   4.060   8.825
 2617SOL    HW2 9859   3.597   4.139  -2.133
 2618SOL     OW 9860   7.307  -1.226   7.747
 2618SOL    HW1 9861  -3.662  20.795   7.719
 2618SOL    HW2 9862 -14.733  -1.139   7.749
 2619SOL     OW 9863   2.609   4.381   3.036
 2619SOL    HW1 9864   2.700  -6.672   3.063
 2619SOL    HW2 9865   2.615   4.416  13.987
 2620SOL     OW 9866   1.288   9.766   6.198
 2620SOL    HW1 9867  12.252   9.757   6.257
 2620SOL    HW2 9868   1.356   9.713   6.238
 2621SOL     OW 9869   2.779   6.083   3.416
 2621SOL    HW1 9870   2.804   6.000   3.376
 2621SOL    HW2 9871   2.823   6.149   3.364
 2622SOL     OW 9872  -2.849   6.201   8.194
 2622SOL    HW1 9873  19.163   6.251  19.280
 2622SOL    HW2 9874  41.348   6.264   8.133
 2623SOL     OW 9875   0.999  -0.933  11.020
 2623SOL    HW1 9876   0.918 -12.003  11.063
 2623SOL    HW2 9877  23.049  32.217  10.934
 2624SOL     OW 9878   5.273  -0.602   7.102
 2624SOL    HW1 9879  16.253  10.369   7.071
 2624SOL    HW2 9880   5.360  -0.640   7.092
 2625SOL     OW 9881   0.983   1.078   9.236
 2625SOL    HW1 9882   1.033  23.177   9.315
 2625SOL    HW2 9883 -10.148  12.130   9.262
 2626SOL     OW 9884   9.566   0.512  -0.603
 2626SOL    HW1 9885   9.647   0.473  21.444
 2626SOL    HW2 9886   9.577   0.517  -0.508
 2627SOL     OW 9887   8.683   1.305  10.215
 2627SOL    HW1 9888   8.725   1.269  10.137
 2627SOL    HW2 9889   8.707   1.398 -22.905
 2628SOL     OW 9890   5.289   9.424   1.605
 2628SOL    HW1 9891  -5.719   9.425   1.514
 2628SOL    HW2 9892   5.367   9.444   1.657
 2629SOL     OW 9893   7.490   7.595   5.316
 2629SOL    HW1 9894   7.558  18.682   5.268
 2629SOL    HW2 9895   7.466  18.692   5.388
 2630SOL     OW 9896   3.992   7.780   7.091
 2630SOL    HW1 9897   4.055   7.740   7.151
 2630SOL    HW2 9898  26.065   7.871  29.199
 2631SOL     OW 9899   4.381   5.157   3.455
 2631SOL    HW1 9900  -6.639  -5.922   3.370
 2631SOL    HW2 9901   4.467   5.167   3.497
 2632SOL     OW 9902   4.953  10.378   3.119
 2632SOL    HW1 9903   4.954 -22.835   3.133
 2632SOL    HW2 9904   5.034 -11.670   3.157
 2633SOL     OW 9905   2.041   9.082   6.695
 2633SOL    HW1 9906   2.064  20.214   6.686
 2633SOL    HW2 9907   2.123   9.040   6.720
 2634SOL     OW 9908   2.470   5.445   2.073
 2634SOL    HW1 9909   2.512   5.530  35.180
 2634SOL    HW2 9910   2.504  -5.649   2.001
 2635SOL     OW 9911  10.990   8.290   1.173
 2635SOL    HW1 9912  10.948   8.218   1.220
 2635SOL    HW2 9913  11.063   8.249   1.127
 2636SOL     OW 9914   9.366   8.075   5.789
 2636SOL    HW1 9915   9.411   8.130   5.725
 2636SOL    HW2 9916  20.315   8.071  16.797
 2637SOL     OW 9917   6.433  10.353   1.107
 2637SOL    HW1 9918   6.364  10.419   1.117
 2637SOL    HW2 9919   6.510  21.432  12.189
 2638SOL     OW 9920   3.775   1.713   0.681
 2638SOL    HW1 9921  25.846  23.859  33.868
 2638SOL    HW2 9922   3.832  23.725   0.720
 2639SOL     OW 9923   5.485   7.072   6.449
 2639SOL    HW1 9924  38.559  -3.951   6.366
 2639SOL    HW2 9925  16.455  -3.991  17.550
 2640SOL     OW 9926  10.028  10.785   9.645
 2640SOL    HW1 9927  -0.947  10.717   9.663
 2640SOL    HW2 9928  -1.092 -11.327  31.764
 2641SOL     OW 9929   0.099   2.757   1.001
 2641SOL    HW1 9930   0.003   2.754   1.003
 2641SOL    HW2 9931   0.123   2.799   1.083
 2642SOL     OW 9932   1.498   9.939   1.842
 2642SOL    HW1 9933  12.491  20.897   1.858
 2642SOL    HW2 9934  12.612   9.914   1.787
 2643SOL     OW 9935   8.601   1.391   6.542
 2643SOL    HW1 9936   8.658   1.347   6.605
 2643SOL    HW2 9937   8.598   1.482   6.571
 2644SOL     OW 9938   4.431  14.026   7.729
 2644SOL    HW1 9939 -17.689 -19.154   7.791
 2644SOL    HW2 9940   4.524 -19.092   7.755
 2645SOL     OW 9941   8.975   3.688   6.151
 2645SOL    HW1 9942  -2.094  -7.271   6.108
 2645SOL    HW2 9943   8.921   3.619   6.111
 2646SOL     OW 9944   4.610  12.158   5.044
 2646SOL    HW1 9945   4.641  12.130  16.169
 2646SOL    HW2 9946   4.607 -10.001   4.992
 2647SOL     OW 9947  10.236   8.507  11.868
 2647SOL    HW1 9948  21.271   8.415  11.844
 2647SOL    HW2 9949  10.327   8.532 -10.226
 2648SOL     OW 9950   2.857  10.802   6.883
 2648SOL    HW1 9951   2.898  10.887   6.894
 2648SOL    HW2 9952  -8.229  -0.253  -4.074
 2649SOL     OW 9953   2.953   0.096   4.472
 2649SOL    HW1 9954  25.085   0.019   4.448
 2649SOL    HW2 9955   3.007   0.142   4.537
 2650SOL     OW 9956  10.831   4.907  -1.275
 2650SOL    HW1 9957  10.915   4.883  -1.237
 2650SOL    HW2 9958  10.821   4.848  31.769
 2651SOL     OW 9959  10.749   4.161   9.449
 2651SOL    HW1 9960 -22.288  15.153   9.435
 2651SOL    HW2 9961  10.700   4.107   9.511
 2652SOL     OW 9962   6.487  10.836   1.737
 2652SOL    HW1 9963   6.498  10.794   1.822
 2652SOL    HW2 9964   6.568  10.885  12.763
 2653SOL     OW 9965   8.366   1.148   7.222
 2653SOL    HW1 9966  -2.595   1.110   7.184
 2653SOL    HW2 9967   8.309   1.073  -3.800
 2654SOL     OW 9968  10.133   8.357   5.208
 2654SOL    HW1 9969  21.096   8.393   5.163
 2654SOL    HW2 9970  10.126  30.342  38.315
 2655SOL     OW 9971   1.298   5.466   3.997
 2655SOL    HW1 9972   1.364  16.511   4.067
 2655SOL    HW2 9973   1.217   5.497   4.037
 2656SOL     OW 9974   6.504   9.407   0.268
 2656SOL    HW1 9975   6.475   9.455   0.346
 2656SOL    HW2 9976   6.426   9.400   0.213
 2657SOL     OW 9977   3.638   1.057   8.337
 2657SOL    HW1 9978   3.708  12.097   8.401
 2657SOL    HW2 9979  25.758   1.087  41.374
 2658SOL     OW 9980   9.657  10.822   2.254
 2658SOL    HW1 9981  -1.408  10.733   2.277
 2658SOL    HW2 9982   9.609  10.841  13.214
 2659SOL     OW 9983   9.446   5.283   2.126
 2659SOL    HW1 9984   9.386   5.286  -8.840
 2659SOL    HW2 9985   9.532   5.267  -8.874
 2660SOL     OW 9986   5.470   7.958   7.063
 2660SOL    HW1 9987  -5.614   8.029   7.017
 2660SOL    HW2 9988   5.406   7.887  18.107
 2661SOL     OW 9989   2.157   6.363   5.478
 2661SOL    HW1 9990   2.100   6.385   5.551
 2661SOL    HW2 9991   2.199 -26.674   5.453
 2662SOL     OW 9992   6.171   3.999   6.705
 2662SOL    HW1 9993   6.161   4.020   6.612
 2662SOL    HW2 9994 -15.946   4.074   6.750
 2663SOL     OW 9995   8.486   9.836   4.547
 2663SOL    HW1 9996   8.404   9.787  -6.496
 2663SOL    HW2 9997   8.459   9.928  -6.495
 2664SOL     OW 9998   4.891   4.542   2.170
 2664SOL    HW1 9999   4.864   4.577   2.085
 2664SOL    HW210000   4.813  -6.541   2.204
 2665SOL     OW10001   9.039  10.633   8.971
 2665SOL    HW110002   9.092 -11.402   9.037
 2665SOL    HW210003  31.181  10.593   8.912
 2666SOL     OW10004   8.531   5.314   6.265
 2666SOL    HW110005  30.608   5.377   6.193
 2666SOL    HW210006   8.537  16.268   6.222
 2667SOL     OW10007   5.294   6.901   9.357
 2667SOL    HW110008   5.355   6.926   9.288
 2667SOL    HW210009   5.293 -15.103   9.417
 2668SOL     OW10010   9.255   0.807   5.172
 2668SOL    HW110011   9.180   0.775   5.222
 2668SOL    HW210012  -1.800   0.901   5.164
 2669SOL     OW10013   8.667   6.961   8.735
 2669SOL    HW110014   8.605 -15.172   8.686
 2669SOL    HW210015   8.613   7.006   8.801
 2670SOL     OW10016   6.764   3.557   7.262
 2670SOL    HW110017  -4.210   3.512  18.248
 2670SOL    HW210018   6.752   3.642  -3.821
 2671SOL     OW10019   4.843  -1.216   1.519
 2671SOL    HW110020   4.846  -1.169   1.603
 2671SOL    HW210021   4.921  20.808   1.519
 2672SOL     OW10022  10.684  -0.976   1.256
 2672SOL    HW110023  10.687  54.144  23.280
 2672SOL    HW210024  10.645  10.033  12.377
 2673SOL     OW10025   5.908   0.502   9.075
 2673SOL    HW110026  -5.123  11.632 -13.035
 2673SOL    HW210027 -27.304  22.570 -12.988
 2674SOL     OW10028   3.048   1.397   4.926
 2674SOL    HW110029   3.025   1.304  15.963
 2674SOL    HW210030  -7.979   1.416   5.019
 2675SOL     OW10031   1.016   9.228   5.576
 2675SOL    HW110032  12.040  -1.788  -5.555
 2675SOL    HW210033  34.114  -1.905  -5.458
 2676SOL     OW10034  -1.128   6.751   4.911
 2676SOL    HW110035  31.931   6.825   4.898
 2676SOL    HW210036  32.023  -4.277   5.001
 2677SOL     OW10037   8.305   7.793   0.428
 2677SOL    HW110038  30.408  -3.285   0.343
 2677SOL    HW210039   8.310   7.720  33.608
 2678SOL     OW10040   0.447   5.341   7.470
 2678SOL    HW110041   0.467   5.262   7.420
 2678SOL    HW210042   0.404   5.399   7.406
 2679SOL     OW10043   6.765   1.709   1.083
 2679SOL    HW110044   6.746   1.789   1.034
 2679SOL    HW210045   6.760   1.735  23.254
 2680SOL     OW10046   7.936   3.040   7.780
 2680SOL    HW110047   7.841  14.071   7.787
 2680SOL    HW210048   7.962   2.971   7.719
 2681SOL     OW10049   5.392   3.841   5.857
 2681SOL    HW110050  16.463   3.887   5.779
 2681SOL    HW210051   5.308   3.883   5.876
 2682SOL     OW10052   5.613   3.609   2.656
 2682SOL    HW110053   5.628  14.663   2.750
 2682SOL    HW210054  27.752   3.538  13.673
 2683SOL     OW10055   6.445   5.655   1.751
 2683SOL    HW110056   6.359   5.699   1.749
 2683SOL    HW210057  -4.542  16.750   1.809
 2684SOL     OW10058  -0.331  10.595   7.658
 2684SOL    HW110059  10.710  10.503  40.803
 2684SOL    HW210060  21.657  10.612 -14.443
 2685SOL     OW10061   6.486   2.096   2.819
 2685SOL    HW110062   6.527   2.182  35.941
 2685SOL    HW210063   6.543   2.043  35.881
 2686SOL     OW10064   2.205   7.972   0.969
 2686SOL    HW110065   2.246   7.966   1.055
 2686SOL    HW210066   2.115  -3.040   0.986
 2687SOL     OW10067  10.025   8.572   6.209
 2687SOL    HW110068  21.035  -2.558   6.198
 2687SOL    HW210069  10.052   8.599   6.121
 2688SOL     OW10070   1.394   6.763   8.841
 2688SOL    HW110071 -20.635   6.774  -2.118
 2688SOL    HW210072  12.481   6.815  -2.264
 2689SOL     OW10073   2.384   1.098   8.787
 2689SOL    HW110074   2.306   1.043  -2.243
 2689SOL    HW210075   2.350   1.185   8.766
 2690SOL     OW10076   1.119   8.318   8.880
 2690SOL    HW110077   1.046  -2.659  -2.154
 2690SOL    HW210078  12.233   8.367  -2.126
 2691SOL     OW10079   8.041   0.904   2.162
 2691SOL    HW110080   7.964   0.881   2.214
 2691SOL    HW210081   8.007   0.959   2.091
 2692SOL     OW10082   2.704   1.516   1.748
 2692SOL    HW110083 -19.289 -20.605   1.753
 2692SOL    HW210084   2.646   1.458   1.799
 2693SOL     OW10085   7.527   2.339   3.107
 2693SOL    HW110086   7.506   2.251   3.140
 2693SOL    HW210087   7.498   2.337  36.135
 2694SOL     OW10088   8.849  10.525   1.852
 2694SOL    HW110089   8.922  10.587   1.860
 2694SOL    HW210090   8.878  -0.593  23.978
 2695SOL     OW10091   3.028   1.071  10.241
 2695SOL    HW110092   2.985   1.016  10.307
 2695SOL    HW210093   3.090   1.013  21.237
 2696SOL     OW10094   6.750   3.424   0.772
 2696SOL    HW110095   6.674   3.468  22.813
 2696SOL    HW210096   6.823  14.524 -10.283
 2697SOL     OW10097   4.555   4.002   8.250
 2697SOL    HW110098 -17.619 -18.081   8.265
 2697SOL    HW210099   4.567  15.001   8.164
 2698SOL     OW10100   2.589   2.374   5.551
 2698SOL    HW110101   2.537  13.375  16.520
 2698SOL    HW210102   2.540   2.353   5.630
 2699SOL     OW10103   0.795   8.668   6.563
 2699SOL    HW110104   0.852   8.592   6.548
 2699SOL    HW210105   0.711   8.631  -4.449
 2700SOL     OW10106   2.513   4.048  11.277
 2700SOL    HW110107   2.578   4.044  11.346
 2700SOL    HW210108  13.491  15.155   0.267
 2701SOL     OW10109  -1.321   6.094   2.052
 2701SOL    HW110110  -1.252   6.066  24.072
 2701SOL    HW210111  31.759 -26.948  24.088
 2702SOL     OW10112   5.966   0.224   5.483
 2702SOL    HW110113  16.960  22.361   5.545
 2702SOL    HW210114   5.912   0.145 -27.637
 2703SOL     OW10115   4.157   1.800   1.334
 2703SOL    HW110116   4.166  12.746   1.317
 2703SOL    HW210117   4.098  12.871  12.305
 2704SOL     OW10118   0.896   4.163   8.220
 2704SOL    HW110119   0.961   4.122  -2.763
 2704SOL    HW210120   0.915   4.257  19.265
 2705SOL     OW10121   8.745   6.243   1.155
 2705SOL    HW110122   8.711   6.160   1.186
 2705SOL    HW210123   8.780   6.285  12.273
 2706SOL     OW10124   9.905   7.392   5.889
 2706SOL    HW110125 -12.204   7.451   5.958
 2706SOL    HW210126   9.887  18.344   5.924
 2707SOL     OW10127   9.861   9.222   4.173
 2707SOL    HW110128  20.907  20.286   4.081
 2707SOL    HW210129   9.907  20.331   4.220
 2708SOL     OW10130   2.669   4.132   7.909
 2708SOL    HW110131   2.671   4.036   7.900
 2708SOL    HW210132  24.657   4.155   7.890
 2709SOL     OW10133   1.316   2.151   8.591
 2709SOL    HW110134   1.236   2.157  -2.501
 2709SOL    HW210135   1.309   2.223   8.654
 2710SOL     OW10136   9.977   6.278   0.058
 2710SOL    HW110137  -1.007   6.237   0.124
 2710SOL    HW210138 -23.220  -4.816   0.055
 2711SOL     OW10139  10.911   3.181   7.135
 2711SOL    HW110140  10.903   3.222   7.049
 2711SOL    HW210141  10.871   3.095   7.124
 2712SOL     OW10142   4.636   8.857   2.901
 2712SOL    HW110143   4.635   8.949   2.926
 2712SOL    HW210144  37.791   8.856  24.892
 2713SOL     OW10145   2.492   0.897  11.086
 2713SOL    HW110146   2.429  12.002   0.076
 2713SOL    HW210147   2.543   0.876   0.125
 2714SOL     OW10148   0.181   9.587   4.571
 2714SOL    HW110149   0.151  -1.533  -6.511
 2714SOL    HW210150   0.107  -1.424   4.624
 2715SOL     OW10151   4.212   8.603   4.626
 2715SOL    HW110152 -17.839  30.716   4.541
 2715SOL    HW210153   4.292   8.572  26.746
 2716SOL     OW10154   2.626   7.982   1.675
 2716SOL    HW110155   2.689   7.958   1.743
 2716SOL    HW210156   2.612   7.901   1.625
 2717SOL     OW10157   8.588   7.525   4.338
 2717SOL    HW110158   8.505  -3.471   4.321
 2717SOL    HW210159   8.650  -3.474   4.277
 2718SOL     OW10160   8.854   3.680   8.809
 2718SOL    HW110161   8.836   3.646   8.897
 2718SOL    HW210162  -2.091  -7.349  -2.234
 2719SOL     OW10163   3.978   3.001  10.088
 2719SOL    HW110164   4.040   3.055  10.038
 2719SOL    HW210165   4.013   3.001  10.177
 2720SOL     OW10166   7.321   9.727   7.041
 2720SOL    HW110167   7.256   9.699  18.016
 2720SOL    HW210168 -14.798   9.802  -3.955
 2721SOL     OW10169   5.858   1.723   3.928
 2721SOL    HW110170   5.786   1.709   3.989
 2721SOL    HW210171 -16.262  23.836  14.888
 2722SOL     OW10172   4.736   5.082   2.312
 2722SOL    HW110173   4.747  16.211   2.347
 2722SOL    HW210174   4.660   5.047  -8.680
 2723SOL     OW10175   5.809  11.135   4.935
 2723SOL    HW110176 -16.254 -10.871   4.995
 2723SOL    HW210177   5.714  11.137  -6.120
 2724SOL     OW10178   6.697  10.117   1.076
 2724SOL    HW110179  -4.261  -0.908   1.125
 2724SOL    HW210180   6.653  10.202   1.077
 2725SOL     OW10181   2.637   4.862   9.877
 2725SOL    HW110182   2.572   4.818   9.821
 2725SOL    HW210183  -8.318   4.841   9.837
 2726SOL     OW10184   2.971   0.297   4.276
 2726SOL    HW110185  13.961   0.233   4.327
 2726SOL    HW210186   2.950   0.382  -6.724
 2727SOL     OW10187   9.237   3.678   7.338
 2727SOL    HW110188   9.292   3.613   7.383
 2727SOL    HW210189   9.150 -18.440   7.337
 2728SOL     OW10190   3.800  10.556   3.102
 2728SOL    HW110191  25.857  10.467   3.130
 2728SOL    HW210192  25.934  10.591  -7.868
 2729SOL     OW10193   6.865   2.844   6.813
 2729SOL    HW110194   6.850   2.930  17.813
 2729SOL    HW210195   6.872   2.862   6.907
 2730SOL     OW10196   1.399   7.777   4.977
 2730SOL    HW110197   1.354   7.820  -5.990
 2730SOL    HW210198   1.332   7.768   4.909
 2731SOL     OW10199  10.282   5.373   5.903
 2731SOL    HW110200 -11.882  16.442  39.052
 2731SOL    HW210201  10.273   5.366   5.808
 2732SOL     OW10202   0.051  10.263  12.161
 2732SOL    HW110203  22.131  10.178  -9.876
 2732SOL    HW210204   0.025  10.245 -10.009
 2733SOL     OW10205   6.035   3.125   3.147
 2733SOL    HW110206   6.016 -30.084   3.120
 2733SOL    HW210207   6.040  -7.919  14.282
 2734SOL     OW10208   0.524   8.101   1.623
 2734SOL    HW110209  22.527  -2.883   1.607
 2734SOL    HW210210   0.549   8.120  12.753
 2735SOL     OW10211  -0.429   9.469   4.933
 2735SOL    HW110212  10.612   9.374   4.950
 2735SOL    HW210213  -0.337  -1.545   4.934
 2736SOL     OW10214  -0.125   2.970  10.860
 2736SOL    HW110215  33.063   3.030  -0.152
 2736SOL    HW210216  -0.087   2.920  -0.252
 2737SOL     OW10217   9.820   8.936   4.889
 2737SOL    HW110218  -1.193  19.994   4.799
 2737SOL    HW210219   9.819  19.880   4.894
 2738SOL     OW10220   8.511   2.991   3.527
 2738SOL    HW110221  -2.451   3.047   3.531
 2738SOL    HW210222 -24.594   2.938   3.449
 2739SOL     OW10223   7.283   9.023   8.682
 2739SOL    HW110224 -14.723   9.054   8.734
 2739SOL    HW210225   7.300   8.929  19.710
 2740SOL     OW10226   0.392   3.065   6.934
 2740SOL    HW110227   0.332  14.086   7.006
 2740SOL    HW210228   0.478   3.068   6.975
 2741SOL     OW10229   9.717   5.642   5.323
 2741SOL    HW110230   9.624   5.658   5.340
 2741SOL    HW210231   9.759 -27.395   5.351
 2742SOL     OW10232   4.535   5.432   8.247
 2742SOL    HW110233   4.465   5.478   8.293
 2742SOL    HW210234   4.615   5.479   8.271
 2743SOL     OW10235   6.767   7.561   6.978
 2743SOL    HW110236  28.815   7.626   6.914
 2743SOL    HW210237   6.687   7.532   7.022
 2744SOL     OW10238   3.975   2.554   6.555
 2744SOL    HW110239   4.061   2.515 -15.511
 2744SOL    HW210240   3.918   2.507   6.617
 2745SOL     OW10241  11.538   7.974   1.226
 2745SOL    HW110242  11.628  -3.091  -9.795
 2745SOL    HW210243   0.451 -14.188  12.257
 2746SOL     OW10244   4.046   1.538   3.485
 2746SOL    HW110245  37.130   1.477   3.419
 2746SOL    HW210246   3.998   1.620  25.549
 2747SOL     OW10247   9.751   1.906   3.631
 2747SOL    HW110248 -23.386  12.862   3.673
 2747SOL    HW210249   9.845  35.024   3.617
 2748SOL     OW10250   5.920   8.914   3.944
 2748SOL    HW110251   5.938   8.833   3.898
 2748SOL    HW210252   5.993   8.972  26.002
 2749SOL     OW10253   7.999  10.192   0.795
 2749SOL    HW110254  -3.099  10.240   0.853
 2749SOL    HW210255  -2.960  10.181  33.964
 2750SOL     OW10256   1.982   7.180  11.002
 2750SOL    HW110257   2.056  -3.912  10.970
 2750SOL    HW210258   2.017   7.268  11.010
 2751SOL     OW10259   3.870  10.039   4.163
 2751SOL    HW110260   3.962  10.020   4.183
 2751SOL    HW210261   3.873  10.116   4.107
 2752SOL     OW10262   0.824   7.174   8.866
 2752SOL    HW110263  11.799  -3.861   8.796
 2752SOL    HW210264   0.906   7.155  30.900
 2753SOL     OW10265  11.244   6.113   0.691
 2753SOL    HW110266  11.247   6.177   0.620
 2753SOL    HW210267   0.133   6.053   0.667
 2754SOL     OW10268   3.156   2.947   5.437
 2754SOL    HW110269  -7.978  -8.107   5.437
 2754SOL    HW210270   3.187 -19.178   5.515
 2755SOL     OW10271   1.683   0.401   8.160
 2755SOL    HW110272  -9.263  11.463  -2.884
 2755SOL    HW210273   1.645   0.467 -24.902
 2756SOL     OW10274   4.687   2.001   4.695
 2756SOL    HW110275  -6.338   2.043  -6.429
 2756SOL    HW210276   4.755  -9.106  -6.339
 2757SOL     OW10277   6.045   6.324   9.964
 2757SOL    HW110278  -4.983   6.373  -1.157
 2757SOL    HW210279   5.966 -15.807   9.951
 2758SOL     OW10280   5.064   2.813   7.524
 2758SOL    HW110281   5.130   2.846   7.464
 2758SOL    HW210282   4.996  24.856   7.467
 2759SOL     OW10283   6.668   5.969   7.616
 2759SOL    HW110284  17.687  16.923  40.772
 2759SOL    HW210285   6.586   5.999  29.656
 2760SOL     OW10286  10.088   6.119   3.933
 2760SOL    HW110287  10.176   6.127   3.897
 2760SOL    HW210288  -1.009  28.191  36.976
 2761SOL     OW10289   7.467   4.047   5.926
 2761SOL    HW110290   7.433   4.085  61.205
 2761SOL    HW210291  -3.630   4.083   5.858
 2762SOL     OW10292   4.802   4.096   4.227
 2762SOL    HW110293  15.758   4.066  26.270
 2762SOL    HW210294  15.859  26.115   4.299
 2763SOL     OW10295   6.520  -0.825   4.757
 2763SOL    HW110296   6.451  21.300   4.710
 2763SOL    HW210297  -4.442  -0.816   4.701
 2764SOL     OW10298   8.781   0.174   9.818
 2764SOL    HW110299  19.867   0.093   9.797
 2764SOL    HW210300   8.832   0.242  20.815
 2765SOL     OW10301   7.310   7.997   6.356
 2765SOL    HW110302 -14.737   7.979   6.444
 2765SOL    HW210303 -14.846   7.942   6.346
 2766SOL     OW10304   8.981   3.549  10.926
 2766SOL    HW110305   8.980   3.584  10.837
 2766SOL    HW210306  31.132  36.713  10.970
 2767SOL     OW10307   4.290   8.779   8.948
 2767SOL    HW110308   4.227   8.794   8.877
 2767SOL    HW210309  -6.787   8.823   9.024
 2768SOL     OW10310   9.018   1.677   3.336
 2768SOL    HW110311   9.051   1.644   3.253
 2768SOL    HW210312  31.098  -9.267 -18.754
 2769SOL     OW10313   4.389   7.304   8.977
 2769SOL    HW110314   4.298   7.294   8.948
 2769SOL    HW210315   4.404  29.308   9.035
 2770SOL     OW10316   9.704   0.419   5.386
 2770SOL    HW110317   9.731   0.434   5.476
 2770SOL    HW210318  -1.414  22.444   5.392
 2771SOL     OW10319   3.522   6.703   1.372
 2771SOL    HW110320  14.560   6.798   1.355
 2771SOL    HW210321  -7.518   6.663  -9.754
 2772SOL     OW10322   3.009   5.803   2.169
 2772SOL    HW110323  13.964  16.809  13.238
 2772SOL    HW210324  14.113   5.742   2.206
 2773SOL     OW10325   5.782  -0.131   9.408
 2773SOL    HW110326   5.816  -0.047   9.439
 2773SOL    HW210327   5.766  21.962  20.354
 2774SOL     OW10328   2.893   6.902   0.675
 2774SOL    HW110329   2.837   6.954   0.732
 2774SOL    HW210330   2.898   6.816  11.757
 2775SOL     OW10331   2.684   2.304   3.024
 2775SOL    HW110332   2.618 -19.711   2.999
 2775SOL    HW210333   2.721  13.314  36.059
 2776SOL     OW10334   2.780   3.617   4.359
 2776SOL    HW110335   2.753   3.639  -6.770
 2776SOL    HW210336   2.731  36.797  15.453
 2777SOL     OW10337  11.127   4.340   4.250
 2777SOL    HW110338   0.061   4.249 -17.819
 2777SOL    HW210339  11.071  15.428  26.391
 2778SOL     OW10340   4.833   6.382   8.577
 2778SOL    HW110341   4.795   6.295  19.624
 2778SOL    HW210342   4.925   6.370  -2.438
 2779SOL     OW10343   9.570   6.177  10.039
 2779SOL    HW110344  -1.410  -4.815  -1.059
 2779SOL    HW210345   9.601  -4.842  21.167
 2780SOL     OW10346   1.623  11.193   1.816
 2780SOL    HW110347   1.535 -10.874   1.781
 2780SOL    HW210348  12.682  11.276   1.861
 2781SOL     OW10349   3.707   7.359   5.271
 2781SOL    HW110350  -7.408  18.406   5.329
 2781SOL    HW210351   3.716   7.447   5.233
 2782SOL     OW10352   7.923   5.430   6.011
 2782SOL    HW110353   7.842   5.465  17.014
 2782SOL    HW210354   7.895   5.374   6.083
 2783SOL     OW10355   8.717   6.575  10.582
 2783SOL    HW110356   8.639  17.566 -11.472
 2783SOL    HW210357   8.719   6.570  10.486
 2784SOL     OW10358   4.937  -0.495   8.640
 2784SOL    HW110359   4.922  21.555   8.550
 2784SOL    HW210360  -6.106  -0.575   8.693
 2785SOL     OW10361   7.960   6.509   7.788
 2785SOL    HW110362 -14.213  28.600   7.777
 2785SOL    HW210363  19.016   6.418   7.763
 2786SOL     OW10364  -0.597   3.606   7.866
 2786SOL    HW110365  -0.632   3.678  -3.122
 2786SOL    HW210366  10.484   3.648   7.791
 2787SOL     OW10367   4.139   2.204   5.923
 2787SOL    HW110368   4.137   2.239   6.012
 2787SOL    HW210369 -17.848  24.265  -5.134
 2788SOL     OW10370   1.707   2.693   3.456
 2788SOL    HW110371   1.720  24.683  -7.553
 2788SOL    HW210372   1.639   2.729   3.513
 2789SOL     OW10373   9.578   1.407  10.706
 2789SOL    HW110374   9.509  12.401  10.754
 2789SOL    HW210375   9.566  23.459  10.615
 2790SOL     OW10376   5.257  -0.108   0.249
 2790SOL    HW110377   5.267  -0.046   0.320
 2790SOL    HW210378   5.215  10.981   0.179
 2791SOL     OW10379   8.812   1.244   4.334
 2791SOL    HW110380   8.767  -9.793   4.250
 2791SOL    HW210381   8.903   1.269  15.354
 2792SOL     OW10382   1.850   9.917  -0.182
 2792SOL    HW110383   1.933   9.935  10.902
 2792SOL    HW210384   1.872   9.853  -0.249
 2793SOL     OW10385   8.829   0.434   4.428
 2793SOL    HW110386   8.821   0.474   4.514
 2793SOL    HW210387  -2.255  11.389 -17.643
 2794SOL     OW10388   4.105   1.605   7.534
 2794SOL    HW110389  15.210   1.670   7.506
 2794SOL    HW210390   4.021   1.644  51.669
 2795SOL     OW10391   6.828   2.993   2.038
 2795SOL    HW110392   6.876  14.028  24.034
 2795SOL    HW210393 -15.335   2.951  24.099
 2796SOL     OW10394   6.937   0.885   2.479
 2796SOL    HW110395   6.953   0.911   2.570
 2796SOL    HW210396  -4.135   0.964   2.436
 2797SOL     OW10397   3.303   9.444   2.095
 2797SOL    HW110398   3.265   9.529   2.075
 2797SOL    HW210399   3.396   9.455  13.114
 2798SOL     OW10400   7.260   3.078   0.330
 2798SOL    HW110401   7.267   3.105   0.421
 2798SOL    HW210402   7.169   3.048   0.321
 2799SOL     OW10403  10.021   2.701   0.249
 2799SOL    HW110404  10.027   2.608   0.270
 2799SOL    HW210405  20.991   2.734   0.306
 2800SOL     OW10406   1.658   7.674   0.159
 2800SOL    HW110407   1.650   7.770   0.155
 2800SOL    HW210408  12.786   7.657   0.127
 2801SOL     OW10409   7.448   4.550   9.745
 2801SOL    HW110410   7.362   4.578  -1.328
 2801SOL    HW210411   7.430   4.517   9.833
 2802SOL     OW10412   6.607  -0.235  -0.395
 2802SOL    HW110413   6.521  -0.272  -0.377
 2802SOL    HW210414   6.664  10.767  10.712
 2803SOL     OW10415   8.828   0.915  12.212
 2803SOL    HW110416   8.884   0.895  -9.793
 2803SOL    HW210417  19.874   1.010  -9.878
 2804SOL     OW10418  11.990   9.436   5.922
 2804SOL    HW110419  11.927   9.431  16.890
 2804SOL    HW210420 -10.129 -12.694   5.993
 2805SOL     OW10421  10.646   2.438   4.751
 2805SOL    HW110422  10.608   2.373  15.850
 2805SOL    HW210423  10.739  24.495   4.748
 2806SOL     OW10424   3.635   4.111   4.449
 2806SOL    HW110425   3.624  15.215   4.519
 2806SOL    HW210426   3.709   4.144   4.398
 2807SOL     OW10427   3.984   2.119   1.867
 2807SOL    HW110428   4.002   2.188 -31.187
 2807SOL    HW210429  -6.989   2.132   1.800
 2808SOL     OW10430   0.784   1.399   5.565
 2808SOL    HW110431 -10.296   1.471   5.614
 2808SOL    HW210432   0.730  12.430   5.487
 2809SOL     OW10433   5.452   4.072  -0.410
 2809SOL    HW110434   5.408   4.040  -0.331
 2809SOL    HW210435 -27.712   4.029  21.597
 2810SOL     OW10436   9.586   8.983   1.406
 2810SOL    HW110437   9.659 -13.037   1.388
 2810SOL    HW210438   9.624  19.935   1.407
 2811SOL     OW10439   9.518   8.021   0.968
 2811SOL    HW110440   9.475   7.970   0.900
 2811SOL    HW210441   9.535  30.186   0.928
 2812SOL     OW10442  10.639   2.427  11.191
 2812SOL    HW110443  -0.436  -8.534   0.110
 2812SOL    HW210444  10.729   2.421  11.158
 2813SOL     OW10445   3.941   3.005   6.073
 2813SOL    HW110446   3.956   2.968  -5.054
 2813SOL    HW210447  26.095   2.975   6.125
 2814SOL     OW10448   2.053   2.235   9.309
 2814SOL    HW110449   1.984   2.291   9.343
 2814SOL    HW210450  -8.990   2.156   9.364
 2815SOL     OW10451   0.924   5.297   3.678
 2815SOL    HW110452   0.831  -5.719   3.677
 2815SOL    HW210453 -10.069   5.379   3.663
 2816SOL     OW10454   5.153   4.030   5.260
 2816SOL    HW110455   5.249  26.107   5.267
 2816SOL    HW210456   5.129  -7.098   5.234
 2817SOL     OW10457   1.192   0.715   5.422
 2817SOL    HW110458   1.261   0.744   5.482
 2817SOL    HW210459  -9.910   0.669   5.478
 2818SOL     OW10460   5.629   6.172   9.406
 2818SOL    HW110461   5.580  -4.788   9.424
 2818SOL    HW210462   5.620   6.158   9.312
 2819SOL     OW10463   6.100   7.941   3.767
 2819SOL    HW110464   6.155   7.901   3.834
 2819SOL    HW210465   6.011  18.970  25.879
 2820SOL     OW10466   8.280   1.294   8.579
 2820SOL    HW110467   8.234   1.243  -2.394
 2820SOL    HW210468  41.402   1.236   8.503
 2821SOL     OW10469   0.091   5.305   3.088
 2821SOL    HW110470 -10.918  16.424   3.044
 2821SOL    HW210471  11.040  16.335   3.060
 2822SOL     OW10472   7.851  10.571   5.009
 2822SOL    HW110473  40.903  10.575   5.076
 2822SOL    HW210474   7.811 -22.597   4.937
 2823SOL     OW10475   5.628   1.159   6.717
 2823SOL    HW110476  -5.438  23.167   6.776
 2823SOL    HW210477   5.709   1.192  28.833
 2824SOL     OW10478   3.006   4.121   9.830
 2824SOL    HW110479   3.000   4.212   9.801
 2824SOL    HW210480   3.064   4.124   9.906
 2825SOL     OW10481   6.584   3.268   3.806
 2825SOL    HW110482  -4.363   3.266   3.831
 2825SOL    HW210483  -4.495   3.196   3.855
 2826SOL     OW10484   0.796   1.534   7.636
 2826SOL    HW110485   0.769   1.486   7.715
 2826SOL    HW210486   0.732  12.644   7.628
 2827SOL     OW10487   8.326  10.994   2.478
 2827SOL    HW110488  -2.638  10.959   2.525
 2827SOL    HW210489   8.363  -0.009   2.397
 2828SOL     OW10490   6.386   2.715   1.361
 2828SOL    HW110491  17.335   2.721   1.393
 2828SOL    HW210492   6.403   2.801 -20.757
 2829SOL     OW10493   6.298   3.737   9.250
 2829SOL    HW110494   6.224   3.676  -1.792
 2829SOL    HW210495   6.275   3.801  -1.722
 2830SOL     OW10496   6.901   1.322   2.182
 2830SOL    HW110497  17.846   1.336  -8.855
 2830SOL    HW210498  17.960   1.314   2.088
 2831SOL     OW10499   4.191   6.183   9.146
 2831SOL    HW110500 -28.996   6.219  31.168
 2831SOL    HW210501 -17.811   6.177   9.089
 2832SOL     OW10502   8.259   8.659  10.060
 2832SOL    HW110503  -2.723   8.652  10.136
 2832SOL    HW210504   8.215   8.574  10.055
 2833SOL     OW10505   0.170   5.792   1.145
 2833SOL    HW110506   0.091   5.822   1.191
 2833SOL    HW210507   0.222   5.749   1.213
 2834SOL     OW10508   5.866   7.613   3.402
 2834SOL    HW110509   5.847   7.591   3.311
 2834SOL    HW210510   5.854  -3.509  -7.590
 2835SOL     OW10511  10.002   4.557   5.574
 2835SOL    HW110512  -1.057  26.721   5.534
 2835SOL    HW210513  10.065  15.556   5.516
 2836SOL     OW10514  10.437   9.667   9.538
 2836SOL    HW110515 -11.677   9.609   9.606
 2836SOL    HW210516  10.396   9.637   9.457
 2837SOL     OW10517   9.403   8.397   2.800
 2837SOL    HW110518  31.570   8.435  13.849
 2837SOL    HW210519   9.417   8.303   2.814
 2838SOL     OW10520   0.311   1.500   8.400
 2838SOL    HW110521   0.296   1.552   8.478
 2838SOL    HW210522   0.392   1.533   8.363
 2839SOL     OW10523   8.552   5.185  10.852
 2839SOL    HW110524   8.528 -16.850  10.770
 2839SOL    HW210525  19.631   5.102  -0.216
 2840SOL     OW10526   5.765   9.800  10.886
 2840SOL    HW110527   5.714  31.809  10.845
 2840SOL    HW210528 -16.375   9.842  10.947
 2841SOL     OW10529   4.234   6.135   2.905
 2841SOL    HW110530   4.196  28.144   2.851
 2841SOL    HW210531   4.318   6.098  -8.105
 2842SOL     OW10532   8.458   7.115   1.957
 2842SOL    HW110533   8.382   7.098   1.901
 2842SOL    HW210534   8.528   7.062  12.958
 2843SOL     OW10535   6.701   4.388   9.865
 2843SOL    HW110536   6.607   4.388  -1.193
 2843SOL    HW210537   6.723   4.479   9.881
 2844SOL     OW10538   4.624   1.088   7.346
 2844SOL    HW110539 -17.498 -10.036   7.360
 2844SOL    HW210540   4.692   1.070  29.359
 2845SOL     OW10541   0.021   7.737   3.895
 2845SOL    HW110542   0.110   7.709   3.876
 2845SOL    HW210543  33.139   7.830   3.872
 2846SOL     OW10544   9.555   5.133   4.848
 2846SOL    HW110545   9.468   5.128  26.967
 2846SOL    HW210546  31.660   5.042   4.835
 2847SOL     OW10547   1.228   6.997   1.479
 2847SOL    HW110548   1.243   6.918  12.467
 2847SOL    HW210549   1.167   7.049  12.466
 2848SOL     OW10550   9.709   1.582   8.775
 2848SOL    HW110551   9.776   1.558  19.878
 2848SOL    HW210552   9.750   1.649  -2.319
 2849SOL     OW10553  10.749   6.714   4.022
 2849SOL    HW110554  10.710   6.802   4.019
 2849SOL    HW210555  10.803  -4.325   4.101
 2850SOL     OW10556  10.202   7.030   6.623
 2850SOL    HW110557  -0.875   6.955   6.669
 2850SOL    HW210558  10.217   6.998  17.573
 2851SOL     OW10559   1.812   4.794  10.691
 2851SOL    HW110560   1.798 -17.212  10.752
 2851SOL    HW210561   1.728   4.749  10.688
 2852SOL     OW10562  10.378   1.932   6.165
 2852SOL    HW110563  10.328   1.866   6.214
 2852SOL    HW210564  10.464   1.933  17.248
 2853SOL     OW10565   5.461   9.953   7.576
 2853SOL    HW110566   5.526  10.019   7.601
 2853SOL    HW210567  16.550   9.890  -3.517
 2854SOL     OW10568   9.308   2.073   0.729
 2854SOL    HW110569  -1.794  13.047  11.736
 2854SOL    HW210570   9.345  -9.007   0.808
 2855SOL     OW10571  11.219   1.655   6.262
 2855SOL    HW110572  11.201   1.692   6.176
 2855SOL    HW210573 -32.864   1.705   6.295
 2856SOL     OW10574   0.234   9.635   2.106
 2856SOL    HW110575   0.321   9.606   2.080
 2856SOL    HW210576   0.232   9.622   2.201
 2857SOL     OW10577   7.096  -0.400   6.632
 2857SOL    HW110578 -14.891  -0.424  -4.420
 2857SOL    HW210579   7.065  10.657  17.583
 2858SOL     OW10580   6.114   7.793  10.559
 2858SOL    HW110581  -5.000   7.733  -0.480
 2858SOL    HW210582  17.167   7.816  10.652
 2859SOL     OW10583  10.505   8.409   3.243
 2859SOL    HW110584  10.522   8.408   3.149
 2859SOL    HW210585  10.450  30.411   3.258
 2860SOL     OW10586   2.498   7.946   9.841
 2860SOL    HW110587  -8.617  19.006   9.896
 2860SOL    HW210588   2.570   7.994  -1.159
 2861SOL     OW10589   5.152   6.233   9.577
 2861SOL    HW110590  27.167   6.283   9.629
 2861SOL    HW210591  16.276   6.261   9.611
 2862SOL     OW10592   4.749  11.797   2.370
 2862SOL    HW110593   4.676  22.782   2.339
 2862SOL    HW210594   4.803 -21.309   2.292
 2863SOL     OW10595   0.301   7.744   6.277
 2863SOL    HW110596   0.392   7.736 -15.834
 2863SOL    HW210597   0.284   7.661  17.361
 2864SOL     OW10598  -0.439   6.681   7.389
 2864SOL    HW110599  21.554   6.722 -14.692
 2864SOL    HW210600  10.603  17.665  -3.729
 2865SOL     OW10601   5.216   6.602  -1.207
 2865SOL    HW110602   5.205   6.697   9.827
 2865SOL    HW210603   5.296  -4.450   9.884
 2866SOL     OW10604   1.689   2.180   5.611
 2866SOL    HW110605   1.657   2.123   5.680
 2866SOL    HW210606   1.784  13.212   5.614
 2867SOL     OW10607   8.001   9.076  11.322
 2867SOL    HW110608   8.000   9.033 -10.842
 2867SOL    HW210609   8.069   9.143  11.315
 2868SOL     OW10610   5.351   9.894   3.624
 2868SOL    HW110611   5.295   9.905   3.702
 2868SOL    HW210612   5.303   9.939   3.554
 2869SOL     OW10613   9.403  10.288  10.526
 2869SOL    HW110614   9.464  10.236  -0.460
 2869SOL    HW210615 -12.665  10.255  -0.602
 2870SOL     OW10616   8.306   3.764   7.114
 2870SOL    HW110617   8.258  14.744   7.058
 2870SOL    HW210618  19.423   3.788   7.063
 2871SOL     OW10619   6.660   2.280   9.050
 2871SOL    HW110620  39.758 -19.846   9.131
 2871SOL    HW210621  28.722   2.372   9.070
 2872SOL     OW10622   5.111   4.049   7.299
 2872SOL    HW110623  16.207 -18.035  18.262
 2872SOL    HW210624   5.061   4.129   7.287
 2873SOL     OW10625   1.572   7.618   8.039
 2873SOL    HW110626   1.479   7.597  41.151
 2873SOL    HW210627   1.593   7.662   7.956
 2874SOL     OW10628  -0.959   8.093  11.007
 2874SOL    HW110629  32.107   8.172  11.019
 2874SOL    HW210630  -0.945   8.087  10.913
 2875SOL     OW10631   9.167   0.935   7.614
 2875SOL    HW110632   9.248   0.984   7.599
 2875SOL    HW210633   9.184 -10.153   7.694
 2876SOL     OW10634   9.206   3.386  10.436
 2876SOL    HW110635   9.255   3.307 -22.708
 2876SOL    HW210636   9.149  25.483  10.361
 2877SOL     OW10637  -0.724   3.616   3.941
 2877SOL    HW110638  21.269   3.576   3.951
 2877SOL    HW210639  -0.700   3.598   3.850
 2878SOL     OW10640   2.910  10.331   2.982
 2878SOL    HW110641   2.843  10.304  14.085
 2878SOL    HW210642  25.067  10.348  14.074
 2879SOL     OW10643   8.489   1.154  10.674
 2879SOL    HW110644   8.520   1.107  10.751
 2879SOL    HW210645  19.437   1.128  10.665
 2880SOL     OW10646   4.213   2.080   8.993
 2880SOL    HW110647   4.292   2.131   8.975
 2880SOL    HW210648   4.194   2.096   9.085
 2881SOL     OW10649   9.888   7.135   0.620
 2881SOL    HW110650   9.821  29.240  11.723
 2881SOL    HW210651   9.917  18.256  22.659
 2882SOL     OW10652   2.715   3.621   1.985
 2882SOL    HW110653   2.766   3.602  12.946
 2882SOL    HW210654 -19.383   3.534  24.101
 2883SOL     OW10655   1.132   4.597   9.983
 2883SOL    HW110656   1.178   4.649  10.048
 2883SOL    HW210657   1.047   4.578  10.023
 2884SOL     OW10658   0.694   0.398   1.799
 2884SOL    HW110659   0.661   0.315   1.834
 2884SOL    HW210660   0.785   0.403  -9.210
 2885SOL     OW10661   1.476  10.809   4.190
 2885SOL    HW110662   1.463  10.741  15.296
 2885SOL    HW210663   1.523  10.878   4.235
 2886SOL     OW10664   4.106   5.818   1.743
 2886SOL    HW110665 -62.186   5.749   1.706
 2886SOL    HW210666   4.096   5.891  12.722
 2887SOL     OW10667   5.125   3.289  11.177
 2887SOL    HW110668   5.084   3.375 -10.907
 2887SOL    HW210669  27.134  14.270  11.205
 2888SOL     OW10670   5.710   1.905   7.225
 2888SOL    HW110671   5.712   1.978   7.163
 2888SOL    HW210672   5.774  12.968   7.292
 2889SOL     OW10673   1.116   9.656  10.666
 2889SOL    HW110674   1.050  -1.346  10.608
 2889SOL    HW210675   1.118  -1.326  -0.298
 2890SOL     OW10676   1.329   7.832  10.924
 2890SOL    HW110677 -20.838   7.862  10.948
 2890SOL    HW210678   1.384   7.910  10.933
 2891SOL     OW10679  10.980   1.905   7.752
 2891SOL    HW110680  10.904   1.849   7.765
 2891SOL    HW210681  10.984   1.921  18.697
 2892SOL     OW10682   5.555   4.098   0.102
 2892SOL    HW110683  -5.579   4.106   0.093
 2892SOL    HW210684  16.627   4.187   0.096
 2893SOL     OW10685   3.653   5.466   0.641
 2893SOL    HW110686  -7.328   5.527   0.596
 2893SOL    HW210687  -7.439   5.521  11.738
 2894SOL     OW10688   8.862   7.499   6.417
 2894SOL    HW110689   8.830   7.558  61.547
 2894SOL    HW210690   8.933   7.450  28.454
 2895SOL     OW10691  11.279   1.574   9.887
 2895SOL    HW110692 -21.875  23.603   9.813
 2895SOL    HW210693   0.245   1.664   9.854
 2896SOL     OW10694   8.023   3.020   4.888
 2896SOL    HW110695   8.111   3.023  -6.191
 2896SOL    HW210696   7.985   2.939   4.854
 2897SOL     OW10697  10.113   6.990   6.164
 2897SOL    HW110698 -11.923   7.040   6.095
 2897SOL    HW210699  10.020   7.011  17.194
 2898SOL     OW10700   1.147   2.556   0.401
 2898SOL    HW110701  23.296   2.523  11.384
 2898SOL    HW210702  12.146 -19.453   0.350
 2899SOL     OW10703   3.306   1.607   6.772
 2899SOL    HW110704   3.353  12.640  28.768
 2899SOL    HW210705  14.414   1.609   6.838
 2900SOL     OW10706   3.523   8.016   0.810
 2900SOL    HW110707   3.548   8.106   0.791
 2900SOL    HW210708   3.541   7.968   0.729
 2901SOL     OW10709   4.988   3.998   8.866
 2901SOL    HW110710   5.010   4.042  -2.256
 2901SOL    HW210711  -5.979   4.018   8.924
 2902SOL     OW10712   0.731   5.574   4.420
 2902SOL    HW110713   0.677   5.653   4.421
 2902SOL    HW210714   0.717   5.533  15.545
 2903SOL     OW10715   1.336   3.683   7.778
 2903SOL    HW110716   1.333   3.600   7.730
 2903SOL    HW210717   1.430   3.701   7.789
 2904SOL     OW10718   5.795   7.442   4.664
 2904SOL    HW110719   5.869   7.386   4.689
 2904SOL    HW210720   5.717   7.394   4.694
 2905SOL     OW10721   3.360   6.952  10.724
 2905SOL    HW110722   3.354  -3.992  10.728
 2905SOL    HW210723   3.285   6.921  10.775
 2906SOL     OW10724   2.422   8.060  10.132
 2906SOL    HW110725   2.433   7.983  -0.851
 2906SOL    HW210726   2.430   8.134 -11.888
 2907SOL     OW10727  -1.647   4.946   8.136
 2907SOL    HW110728  31.443   5.034  -2.925
 2907SOL    HW210729  -1.675   4.933   8.227
 2908SOL     OW10730   6.887   9.121   0.629
 2908SOL    HW110731   6.794  31.185   0.612
 2908SOL    HW210732   6.905   9.074   0.710
 2909SOL     OW10733   8.926   8.201   6.384
 2909SOL    HW110734  30.958  -2.850   6.466
 2909SOL    HW210735   8.944   8.113   6.353
 2910SOL     OW10736   4.982  10.781   8.824
 2910SOL    HW110737   4.962  -0.337   8.774
 2910SOL    HW210738   5.076  10.797  -2.232
 2911SOL     OW10739   9.528  12.564   6.254
 2911SOL    HW110740   9.488   1.605  17.260
 2911SOL    HW210741  20.566  -9.504   6.350
 2912SOL     OW10742   6.941   6.750   7.652
 2912SOL    HW110743   6.970   6.841 -14.425
 2912SOL    HW210744   7.010   6.705 -25.516
 2913SOL     OW10745  10.726   8.807   9.781
 2913SOL    HW110746  -0.228   8.813   9.823
 2913SOL    HW210747  -0.339   8.897   9.762
 2914SOL     OW10748   3.573   3.720  10.093
 2914SOL    HW110749   3.610  25.827  10.009
 2914SOL    HW210750   3.479   3.712  10.076
 2915SOL     OW10751   8.144   8.391   4.475
 2915SOL    HW110752  19.142   8.477   4.472
 2915SOL    HW210753  19.222   8.379   4.388
 2916SOL     OW10754   5.713   6.116   0.127
 2916SOL    HW110755  -5.331   6.100   0.033
 2916SOL    HW210756   5.724   6.210   0.136
 2917SOL     OW10757   8.628   7.432   2.417
 2917SOL    HW110758   8.586   7.347   2.406
 2917SOL    HW210759   8.617  -3.586   2.509
 2918SOL     OW10760   9.300  11.731   7.091
 2918SOL    HW110761   9.350 -21.413   7.014
 2918SOL    HW210762   9.255  11.811 -15.014
 2919SOL     OW10763   1.413  10.330   5.382
 2919SOL    HW110764   1.503  10.300   5.369
 2919SOL    HW210765 -20.660  10.425  27.459
 2920SOL     OW10766  10.993  10.099   7.842
 2920SOL    HW110767  10.974  10.073   7.932
 2920SOL    HW210768  10.919  10.066   7.791
 2921SOL     OW10769   3.447   1.898   1.322
 2921SOL    HW110770  14.578  12.912   1.314
 2921SOL    HW210771   3.435   1.916  12.454
 2922SOL     OW10772   7.670   4.119   4.285
 2922SOL    HW110773   7.725  15.227   4.247
 2922SOL    HW210774  29.811   4.054  15.359
 2923SOL     OW10775   1.285   5.293  10.597
 2923SOL    HW110776  -9.804  -5.683 -11.430
 2923SOL    HW210777  23.418  -5.693  10.539
 2924SOL     OW10778   6.795   2.192   8.391
 2924SOL    HW110779   6.809  13.149   8.438
 2924SOL    HW210780   6.707   2.220  19.458
 2925SOL     OW10781   4.482   4.783   9.782
 2925SOL    HW110782   4.389   4.760   9.773
 2925SOL    HW210783  48.652  37.975   9.721
 2926SOL     OW10784   5.878   8.626  11.195
 2926SOL    HW110785   5.789   8.649  11.221
 2926SOL    HW210786   5.933  41.810   0.198
 2927SOL     OW10787  -2.001   6.422   4.132
 2927SOL    HW110788  20.013  28.571   4.124
 2927SOL    HW210789  20.147   6.460   4.187
 2928SOL     OW10790   0.608   5.499   6.179
 2928SOL    HW110791   0.650   5.433  17.163
 2928SOL    HW210792   0.642   5.583   6.146
 2929SOL     OW10793   9.913   5.451   1.428
 2929SOL    HW110794   9.868   5.443   1.344
 2929SOL    HW210795   9.876  -5.658   1.482
 2930SOL     OW10796   5.931   4.105   5.333
 2930SOL    HW110797   5.998   4.166  -5.739
 2930SOL    HW210798   5.895   4.149   5.410
 2931SOL     OW10799   4.330   1.024   4.767
 2931SOL    HW110800   4.341 -10.085   4.701
 2931SOL    HW210801   4.303   0.978   4.846
 2932SOL     OW10802  10.269   0.308   4.420
 2932SOL    HW110803  10.306   0.260  26.574
 2932SOL    HW210804  10.206  22.327   4.381
 2933SOL     OW10805   9.763   6.911   2.578
 2933SOL    HW110806   9.788   7.004 -19.507
 2933SOL    HW210807   9.782   6.887   2.668
 2934SOL     OW10808   2.669  10.819  -0.130
 2934SOL    HW110809  24.741  10.788  33.078
 2934SOL    HW210810 -19.326  10.864  21.945
 2935SOL     OW10811   5.695   6.298   8.996
 2935SOL    HW110812  -5.363   6.219  -1.993
 2935SOL    HW210813   5.753  39.468   9.052
 2936SOL     OW10814   4.446   3.660  12.102
 2936SOL    HW110815  -6.555   3.573   1.050
 2936SOL    HW210816   4.495  -7.323 -10.036
 2937SOL     OW10817   3.908   7.098   6.826
 2937SOL    HW110818   3.836   7.042   6.796
 2937SOL    HW210819  -7.155   7.123   6.915
 2938SOL     OW10820   2.975   7.956   0.163
 2938SOL    HW110821 -30.218   7.899  11.223
 2938SOL    HW210822  -7.995   7.896  33.255
 2939SOL     OW10823  11.172   7.746   7.625
 2939SOL    HW110824   0.096   7.662   7.598
 2939SOL    HW210825  11.100   7.808   7.615
 2940SOL     OW10826   8.366   6.785  13.485
 2940SOL    HW110827  19.456 -15.277 -30.594
 2940SOL    HW210828   8.401   6.846   2.381
 2941SOL     OW10829   4.327   7.634   4.321
 2941SOL    HW110830   4.357   7.604   4.235
 2941SOL    HW210831   4.354  18.765 -17.754
 2942SOL     OW10832  -0.692   1.780   3.226
 2942SOL    HW110833  10.430   1.736  14.245
 2942SOL    HW210834  10.300   1.781   3.143
 2943SOL     OW10835   7.830   7.312   2.858
 2943SOL    HW110836  18.915  -3.676   2.924
 2943SOL    HW210837   7.885  -3.723   2.780
 2944SOL     OW10838   8.006   5.090   9.821
 2944SOL    HW110839   8.005   5.091   9.726
 2944SOL    HW210840   7.939   5.025   9.845
 2945SOL     OW10841   4.572   4.210   5.521
 2945SOL    HW110842   4.635   4.215   5.593
 2945SOL    HW210843  15.527  37.315   5.564
 2946SOL     OW10844   8.397  10.165   2.232
 2946SOL    HW110845   8.425  21.128   2.181
 2946SOL    HW210846   8.362  10.128  24.392
 2947SOL     OW10847   6.444   6.662   6.878
 2947SOL    HW110848   6.473  28.666   6.929
 2947SOL    HW210849   6.392   6.714   6.939
 2948SOL     OW10850   9.837   5.719   1.455
 2948SOL    HW110851   9.888   5.639   1.464
 2948SOL    HW210852   9.797  -5.307   1.541
 2949SOL     OW10853   6.277   5.866   2.025
 2949SOL    HW110854   6.272  16.927   2.119
 2949SOL    HW210855   6.349  16.959   1.992
 2950SOL     OW10856  10.129   4.418   9.490
 2950SOL    HW110857  10.195   4.457   9.548
 2950SOL    HW210858  10.129   4.475   9.413
 2951SOL     OW10859   7.241   1.591   6.574
 2951SOL    HW110860   7.333  34.682   6.580
 2951SOL    HW210861   7.219  -9.458   6.481
 2952SOL     OW10862   5.243   5.994   1.891
 2952SOL    HW110863   5.302   6.057  24.012
 2952SOL    HW210864   5.250   5.915   1.945
 2953SOL     OW10865   4.063   1.886   7.291
 2953SOL    HW110866   4.077  12.999  18.271
 2953SOL    HW210867  15.188  12.912   7.332
 2954SOL     OW10868   1.839  10.556   3.855
 2954SOL    HW110869   1.761  10.559  36.917
 2954SOL    HW210870   1.892  10.630  14.866
 2955SOL     OW10871  10.368   0.320   5.535
 2955SOL    HW110872  10.379   0.262   5.611
 2955SOL    HW210873  10.422   0.279   5.467
 2956SOL     OW10874   5.683   2.665   3.529
 2956SOL    HW110875   5.761  13.657   3.498
 2956SOL    HW210876  -5.324   2.753   3.549
 2957SOL     OW10877   2.598   1.361   6.046
 2957SOL    HW110878 -30.605   1.389   6.009
 2957SOL    HW210879   2.638   1.309   5.977
 2958SOL     OW10880   3.352  11.624   3.884
 2958SOL    HW110881   3.311 -10.454   3.970
 2958SOL    HW210882   3.406  11.703   3.881
 2959SOL     OW10883   5.321   5.588   9.576
 2959SOL    HW110884   5.384   5.659   9.591
 2959SOL    HW210885   5.371   5.508   9.592
 2960SOL     OW10886   4.240  10.337   9.862
 2960SOL    HW110887   4.273  10.414  -1.225
 2960SOL    HW210888   4.150  -0.680   9.884
 2961SOL     OW10889   1.070   7.503   3.033
 2961SOL    HW110890   1.025   7.516   2.949
 2961SOL    HW210891   1.038  -3.621   3.064
 2962SOL     OW10892   6.481   5.674   2.903
 2962SOL    HW110893   6.527   5.712   2.978
 2962SOL    HW210894   6.548   5.665   2.835
 2963SOL     OW10895   4.244   5.079   4.542
 2963SOL    HW110896   4.199   5.108   4.463
 2963SOL    HW210897   4.298   5.153   4.568
 2964SOL     OW10898   0.707   1.252  10.274
 2964SOL    HW110899   0.692   1.234  -0.673
 2964SOL    HW210900   0.652   1.189  10.227
 2965SOL     OW10901   3.729   8.028   1.063
 2965SOL    HW110902   3.681   7.946   1.051
 2965SOL    HW210903   3.666   8.096  12.082
 2966SOL     OW10904   2.460  14.200   8.477
 2966SOL    HW110905   2.469 -29.867   8.502
 2966SOL    HW210906   2.377  -7.907   8.515
 2967SOL     OW10907   9.399  -0.553   1.064
 2967SOL    HW110908   9.356  10.401   1.068
 2967SOL    HW210909   9.329  10.549   1.082
 2968SOL     OW10910   7.197   1.740   3.601
 2968SOL    HW110911 -14.910   1.800   3.531
 2968SOL    HW210912   7.223  -9.242   3.672
 2969SOL     OW10913   5.514   0.039  10.540
 2969SOL    HW110914  27.500   0.018  10.543
 2969SOL    HW210915  16.585  -0.001  -0.581
 2970SOL     OW10916   3.530  12.759   5.947
 2970SOL    HW110917   3.447  -9.358   5.919
 2970SOL    HW210918   3.543   1.687  17.076
 2971SOL     OW10919   8.298   1.690   6.944
 2971SOL    HW110920  19.252  -9.309  -4.104
 2971SOL    HW210921   8.283   1.597   6.928
 2972SOL     OW10922   7.436   8.585   0.081
 2972SOL    HW110923   7.518   8.607   0.125
 2972SOL    HW210924  -3.661   8.659  11.139
 2973SOL     OW10925   5.145   1.580   3.839
 2973SOL    HW110926   5.134   1.528 -18.320
 2973SOL    HW210927   5.071   1.556   3.894
 2974SOL     OW10928   7.824   3.559   0.956
 2974SOL    HW110929  29.967   3.495   0.925
 2974SOL    HW210930   7.739   3.520   0.935
 2975SOL     OW10931   5.980   3.441   5.205
 2975SOL    HW110932   6.041   3.377  16.281
 2975SOL    HW210933   6.026   3.525   5.210
 2976SOL     OW10934   5.182   9.219   4.928
 2976SOL    HW110935   5.172   9.298   4.875
 2976SOL    HW210936   5.098   9.210  16.012
 2977SOL     OW10937   7.658  -1.195   8.442
 2977SOL    HW110938   7.606  -1.275   8.432
 2977SOL    HW210939  -3.292  20.857  30.502
 2978SOL     OW10940   7.144   7.821   1.121
 2978SOL    HW110941   7.076   7.856  34.297
 2978SOL    HW210942  -3.827  18.831  34.300
 2979SOL     OW10943   4.467   5.136   3.813
 2979SOL    HW110944  15.583   5.170   3.860
 2979SOL    HW210945   4.482   5.160   3.721
 2980SOL     OW10946   0.295  10.613   1.852
 2980SOL    HW110947  11.351  10.527   1.890
 2980SOL    HW210948   0.380 -11.439   1.816
 2981SOL     OW10949   6.096   0.189   8.592
 2981SOL    HW110950   6.076   0.282   8.588
 2981SOL    HW210951  17.051   0.145 -13.500
 2982SOL     OW10952   3.578   8.724   5.923
 2982SOL    HW110953   3.611   8.810  -5.141
 2982SOL    HW210954   3.654   8.678   5.957
 2983SOL     OW10955   2.421   1.084   6.917
 2983SOL    HW110956   2.474   1.023   6.968
 2983SOL    HW210957  -8.614  12.090   6.827
 2984SOL     OW10958  10.959   4.620   0.419
 2984SOL    HW110959  11.004   4.679   0.359
 2984SOL    HW210960  10.993   4.533   0.399
 2985SOL     OW10961   0.399   2.298   6.556
 2985SOL    HW110962  11.442  13.258   6.502
 2985SOL    HW210963   0.376   2.266  28.723
 2986SOL     OW10964   0.818   5.872   0.790
 2986SOL    HW110965   0.843   5.813   0.719
 2986SOL    HW210966   0.902   5.902   0.827
 2987SOL     OW10967   2.980   6.166   0.085
 2987SOL    HW110968  25.123   6.167   0.156
 2987SOL    HW210969   2.960  17.112   0.072
 2988SOL     OW10970  10.228   9.075  10.041
 2988SOL    HW110971  10.243   9.085  10.135
 2988SOL    HW210972  -0.857   9.155  -1.025
 2989SOL     OW10973   3.786   0.286   3.142
 2989SOL    HW110974  14.867   0.371   3.131
 2989SOL    HW210975   3.813   0.256  14.268
 2990SOL     OW10976   9.920   5.236   6.662
 2990SOL    HW110977   9.825  16.278   6.656
 2990SOL    HW210978   9.950   5.240   6.571
 2991SOL     OW10979   1.978   2.127   6.232
 2991SOL    HW110980  13.076   2.170   6.170
 2991SOL    HW210981   2.010   2.155 -26.800
 2992SOL     OW10982   9.132   4.924   7.384
 2992SOL    HW110983   9.125  16.050  18.383
 2992SOL    HW210984   9.224  -6.121  18.452
 2993SOL     OW10985   2.371   7.651   3.533
 2993SOL    HW110986   2.407  29.682   3.459
 2993SOL    HW210987   2.448   7.675   3.586
 2994SOL     OW10988   6.415  -1.069   3.792
 2994SOL    HW110989  17.545  -1.041   3.806
 2994SOL    HW210990   6.411  20.923   3.832
 2995SOL     OW10991   3.136   7.017   4.741
 2995SOL    HW110992   3.204  51.221  15.731
 2995SOL    HW210993   3.100   6.953   4.681
 2996SOL     OW10994   1.922   2.060   0.714
 2996SOL    HW110995   2.000   2.005   0.711
 2996SOL    HW210996  -9.153   2.057   0.625
 2997SOL     OW10997   2.507   0.290   5.765
 2997SOL    HW110998   2.540   0.217   5.713
 2997SOL    HW210999  13.495   0.248   5.834
 2998SOL     OW11000   7.002   2.285   8.752
 2998SOL    HW111001 -15.170   2.263   8.753
 2998SOL    HW211002   7.008   2.369   8.797
 2999SOL     OW11003   4.173   9.749   4.586
 2999SOL    HW111004  15.248   9.831   4.551
 2999SOL    HW211005  26.327   9.689   4.587
 3000SOL     OW11006   2.284  11.098  10.653
 3000SOL    HW111007  13.332   0.025  10.742
 3000SOL    HW211008 -30.767  11.165  10.646
 3001SOL     OW11009   1.634   6.037   4.821
 3001SOL    HW111010   1.556 -16.074   4.776
 3001SOL    HW211011   1.706  -5.023   4.762
 3002SOL     OW11012   2.341   8.043   6.212
 3002SOL    HW111013   2.332   8.079  17.163
 3002SOL    HW211014   2.254   8.009   6.233
 3003SOL     OW11015   9.755   5.137   9.498
 3003SOL    HW111016   9.683   5.199   9.485
 3003SOL    HW211017 -12.254  49.327   9.442
 3004SOL     OW11018  10.431   9.652   8.726
 3004SOL    HW111019  10.378   9.575  -2.334
 3004SOL    HW211020  10.485   9.665  -2.392
 3005SOL     OW11021   3.299   8.100   9.300
 3005SOL    HW111022   3.366 -25.079  20.374
 3005SOL    HW211023   3.299   8.173  20.401
 3006SOL     OW11024   4.861   8.161   5.849
 3006SOL    HW111025   4.803   8.095   5.810
 3006SOL    HW211026  -6.179   8.234   5.787
 3007SOL     OW11027   3.298   9.495   6.279
 3007SOL    HW111028 -18.731   9.484  -4.680
 3007SOL    HW211029   3.363   9.488   6.209
 3008SOL     OW11030   5.970   2.487   5.479
 3008SOL    HW111031   5.916   2.484 -27.718
 3008SOL    HW211032  17.099   2.498  -5.592
 3009SOL     OW11033   4.239  10.685   3.441
 3009SOL    HW111034   4.177  10.716  25.454
 3009SOL    HW211035  26.371 -11.459   3.397
 3010SOL     OW11036  10.250   9.538   0.032
 3010SOL    HW111037  10.246   9.498   0.119
 3010SOL    HW211038  -0.875 -12.498   0.021
 3011SOL     OW11039  10.910   4.465   9.712
 3011SOL    HW111040 -11.150   4.400 -12.434
 3011SOL    HW211041  -0.045   4.484   9.753
 3012SOL     OW11042   2.814   6.992   2.469
 3012SOL    HW111043   2.845   7.083   2.471
 3012SOL    HW211044  -8.316   6.999   2.440
 3013SOL     OW11045   9.968   2.991   8.376
 3013SOL    HW111046   9.927   2.990 -13.617
 3013SOL    HW211047   9.978   2.898  -2.686
 3014SOL     OW11048   7.453   1.120   5.628
 3014SOL    HW111049   7.419   1.181  -5.478
 3014SOL    HW211050   7.437   1.165   5.711
 3015SOL     OW11051   8.775   5.273  -0.004
 3015SOL    HW111052  -2.341   5.255  -0.059
 3015SOL    HW211053 -13.336   5.266  66.323
 3016SOL     OW11054  10.684   4.117   3.741
 3016SOL    HW111055  10.773   4.097  25.793
 3016SOL    HW211056  -0.408   4.107   3.661
 3017SOL     OW11057   8.879   4.265   5.869
 3017SOL    HW111058   8.927 -17.893 -16.184
 3017SOL    HW211059  19.827  15.275  -5.175
 3018SOL     OW11060   9.272   6.627   3.585
 3018SOL    HW111061   9.178  17.651  -7.453
 3018SOL    HW211062   9.281   6.722 -40.563
 3019SOL     OW11063   7.656   1.919   9.945
 3019SOL    HW111064   7.584  24.059   9.958
 3019SOL    HW211065   7.727   1.973   9.911
 3020SOL     OW11066   4.787   3.916   5.790
 3020SOL    HW111067   4.740  -7.058   5.842
 3020SOL    HW211068  15.758   3.868  -5.296
 3021SOL     OW11069   4.896   4.979   1.224
 3021SOL    HW111070  16.009   5.016  23.350
 3021SOL    HW211071  -6.219   4.991   1.283
 3022SOL     OW11072   3.407   6.892   2.371
 3022SOL    HW111073   3.502  -4.160   2.380
 3022SOL    HW211074  14.416   6.807   2.339
 3023SOL     OW11075   6.565   4.629   1.038
 3023SOL    HW111076   6.614   4.615   1.118
 3023SOL    HW211077  39.677   4.724   1.029
 3024SOL     OW11078   3.079   7.394   5.514
 3024SOL    HW111079  25.152   7.314   5.566
 3024SOL    HW211080   3.170   7.397   5.485
 3025SOL     OW11081   6.625   9.147   7.148
 3025SOL    HW111082 -37.558 -12.983   7.070
 3025SOL    HW211083  -4.397   9.235   7.114
 3026SOL     OW11084   2.824   0.864   4.135
 3026SOL    HW111085  13.843   0.828   4.221
 3026SOL    HW211086   2.917   0.885  15.178
 3027SOL     OW11087   9.277   9.757   1.659
 3027SOL    HW111088   9.285  -1.188  12.693
 3027SOL    HW211089   9.282  -1.313   1.569
 3028SOL     OW11090   2.248   8.107   1.743
 3028SOL    HW111091  35.359  19.056   1.775
 3028SOL    HW211092  24.402  30.222   1.791
 3029SOL     OW11093   1.084   3.913   4.893
 3029SOL    HW111094  34.160   3.885  15.852
 3029SOL    HW211095   1.138 -18.241   4.919
 3030SOL     OW11096   3.561   4.857   1.683
 3030SOL    HW111097   3.491   4.913   1.718
 3030SOL    HW211098  -7.521  26.885   1.614
 3031SOL     OW11099   6.500  10.839   8.257
 3031SOL    HW111100   6.574  10.894   8.282
 3031SOL    HW211101   6.444  10.896   8.206
 3032SOL     OW11102   3.227  10.208  10.765
 3032SOL    HW111103   3.278  10.274  10.812
 3032SOL    HW211104   3.293  10.148  10.728
 3033SOL     OW11105   8.868   0.745   5.710
 3033SOL    HW111106 -13.269 -10.361   5.674
 3033SOL    HW211107   8.849   0.745   5.804
 3034SOL     OW11108   2.219   7.478   3.848
 3034SOL    HW111109  13.203   7.500  25.852
 3034SOL    HW211110  24.377   7.531   3.836
 3035SOL     OW11111   5.605   3.536   1.835
 3035SOL    HW111112   5.543  -7.455   1.890
 3035SOL    HW211113   5.664   3.603  -9.239
 3036SOL     OW11114  10.288   4.367   3.281
 3036SOL    HW111115  10.212  26.489  -7.799
 3036SOL    HW211116  10.355   4.436  -7.755
 3037SOL     OW11117   1.037   5.461   5.483
 3037SOL    HW111118  23.128   5.530   5.550
 3037SOL    HW211119   1.125 -16.650   5.466
 3038SOL     OW11120   8.819   6.738   0.591
 3038SOL    HW111121   8.792   6.691   0.670
 3038SOL    HW211122  -2.224   6.673   0.521
 3039SOL     OW11123   6.631   1.934   8.006
 3039SOL    HW111124   6.550   1.894   8.040
 3039SOL    HW211125   6.650   1.884  18.966
 3040SOL     OW11126   6.763   2.796   9.998
 3040SOL    HW111127  17.771   2.863  10.060
 3040SOL    HW211128   6.771   2.843  20.955
 3041SOL     OW11129   3.078   7.130  10.502
 3041SOL    HW111130   3.130   7.185  10.443
 3041SOL    HW211131  -7.932  29.120  10.484
 3042SOL     OW11132   3.730  10.079  11.089
 3042SOL    HW111133  -7.402  10.085  11.067
 3042SOL    HW211134   3.738   9.997   0.098
 3043SOL     OW11135   7.154   7.119   4.435
 3043SOL    HW111136   7.150   7.025   4.418
 3043SOL    HW211137  -3.879   7.126   4.530
 3044SOL     OW11138   0.294   7.458   5.204
 3044SOL    HW111139  11.383   7.518  16.299
 3044SOL    HW211140   0.280   7.380  16.297
 3045SOL     OW11141   4.755   6.437   0.123
 3045SOL    HW111142  15.886   6.442   0.149
 3045SOL    HW211143   4.758   6.430   0.027
 3046SOL     OW11144   9.059   6.847   3.908
 3046SOL    HW111145  -1.946  17.940   3.836
 3046SOL    HW211146   9.100   6.761   3.895
 3047SOL     OW11147   4.441   6.231   8.063
 3047SOL    HW111148   4.391 -15.770   8.040
 3047SOL    HW211149   4.378   6.175   8.110
 3048SOL     OW11150   1.257   6.292   3.913
 3048SOL    HW111151  12.258   6.338   3.838
 3048SOL    HW211152  12.357   6.229   3.875
 3049SOL     OW11153  10.183   1.671   1.447
 3049SOL    HW111154  10.244   1.685   1.374
 3049SOL    HW211155  10.163   1.759  12.518
 3050SOL     OW11156   4.541  10.877   4.038
 3050SOL    HW111157  15.547  10.814  15.014
 3050SOL    HW211158  37.601  10.870  15.153
 3051SOL     OW11159   5.692   5.939   9.534
 3051SOL    HW111160   5.706   6.024   9.492
 3051SOL    HW211161   5.598  -5.118 -12.556
 3052SOL     OW11162   8.253   9.130   4.541
 3052SOL    HW111163   8.234   9.070   4.469
 3052SOL    HW211164   8.180   9.192   4.541
 3053SOL     OW11165   5.033   3.979   5.666
 3053SOL    HW111166 -17.126   3.967   5.717
 3053SOL    HW211167  -5.997   4.074   5.659
 3054SOL     OW11168   9.431   6.469   6.452
 3054SOL    HW111169   9.369   6.437  17.425
 3054SOL    HW211170   9.377   6.481   6.530
 3055SOL     OW11171   1.917   8.056  11.263
 3055SOL    HW111172  -9.139   7.962  11.277
 3055SOL    HW211173   2.010  -2.972   0.246
 3056SOL     OW11174   1.989   2.606   2.892
 3056SOL    HW111175   1.967   2.681   2.837
 3056SOL    HW211176   1.905   2.571 -30.199
 3057SOL     OW11177   9.893   7.065   3.242
 3057SOL    HW111178   9.877  18.199  14.278
 3057SOL    HW211179   9.899   7.046   3.336
 3058SOL     OW11180   9.571   5.899   9.528
 3058SOL    HW111181   9.637  16.872 -12.531
 3058SOL    HW211182   9.511   5.896  -1.437
 3059SOL     OW11183   4.275   3.284   6.580
 3059SOL    HW111184   4.272  14.340  17.525
 3059SOL    HW211185   4.336   3.211   6.590
 3060SOL     OW11186   1.940  11.623   3.758
 3060SOL    HW111187  12.989  11.716   3.738
 3060SOL    HW211188   2.029 -10.491   3.749
 3061SOL     OW11189   2.298   5.208   2.622
 3061SOL    HW111190   2.366   5.275   2.628
 3061SOL    HW211191   2.339   5.129  -8.381
 3062SOL     OW11192   8.103   5.144   5.789
 3062SOL    HW111193   8.009   5.139   5.803
 3062SOL    HW211194  -2.902  16.224  27.948
 3063SOL     OW11195   7.736   5.010   3.468
 3063SOL    HW111196  18.828  -6.097   3.425
 3063SOL    HW211197   7.724   4.978   3.557
 3064SOL     OW11198   8.071   1.099   4.547
 3064SOL    HW111199  41.277   1.080   4.512
 3064SOL    HW211200   8.027   1.146   4.476
 3065SOL     OW11201   6.824   6.032   9.401
 3065SOL    HW111202   6.893   6.097   9.384
 3065SOL    HW211203  -4.242   6.002   9.315
 3066SOL     OW11204   6.513   5.923   5.534
 3066SOL    HW111205   6.436  -5.061  -5.512
 3066SOL    HW211206  17.624  17.016   5.499
 3067SOL     OW11207   4.450  11.004   9.587
 3067SOL    HW111208  -6.630  11.061  31.731
 3067SOL    HW211209  15.416  10.972   9.534
 3068SOL     OW11210   3.825   9.826   3.748
 3068SOL    HW111211  -7.269   9.760  25.870
 3068SOL    HW211212  25.871   9.830  14.698
 3069SOL     OW11213   6.711   9.558   7.655
 3069SOL    HW111214  -4.351   9.466  29.719
 3069SOL    HW211215  -4.293   9.588   7.572
 3070SOL     OW11216  10.376   3.089   3.731
 3070SOL    HW111217  10.385   2.995   3.716
 3070SOL    HW211218  10.430   3.106  -7.231
 3071SOL     OW11219   2.004   7.246   4.253
 3071SOL    HW111220   1.977   7.302   4.180
 3071SOL    HW211221   1.954   7.165   4.241
 3072SOL     OW11222   6.926   6.220   8.339
 3072SOL    HW111223   6.950   6.162   8.412
 3072SOL    HW211224   6.901   6.161   8.268
 3073SOL     OW11225   4.048   1.673   5.072
 3073SOL    HW111226   4.001   1.756   5.073
 3073SOL    HW211227  -6.970  12.695 -38.995
 3074SOL     OW11228   2.365   6.701   6.618
 3074SOL    HW111229   2.332   6.750   6.693
 3074SOL    HW211230  -8.625   6.628   6.656
 3075SOL     OW11231   4.565   2.549   4.802
 3075SOL    HW111232   4.598   2.538  26.971
 3075SOL    HW211233   4.519  -8.407   4.804
 3076SOL     OW11234  10.033   7.043   4.545
 3076SOL    HW111235  21.087   6.949   4.553
 3076SOL    HW211236   9.954   7.051   4.491
 3077SOL     OW11237   3.577   8.224   7.600
 3077SOL    HW111238 -29.528   8.319  18.639
 3077SOL    HW211239  -7.445 -13.881   7.691
 3078SOL     OW11240   7.632   6.906   0.422
 3078SOL    HW111241   7.662   6.887   0.511
 3078SOL    HW211242   7.575   6.833  11.439
 3079SOL     OW11243   7.751   8.790   8.243
 3079SOL    HW111244  18.838   8.710   8.223
 3079SOL    HW211245  -3.379   8.772  -2.821
 3080SOL     OW11246  10.084   5.702   5.435
 3080SOL    HW111247  10.085  -5.419  27.464
 3080SOL    HW211248  10.147   5.687 -16.573
 3081SOL     OW11249   6.168   2.910   2.868
 3081SOL    HW111250  28.222   2.863   2.948
 3081SOL    HW211251   6.105  14.021   2.861
 3082SOL     OW11252   4.962   7.419   1.218
 3082SOL    HW111253   4.918  18.536   1.253
 3082SOL    HW211254   4.965   7.433   1.124
 3083SOL     OW11255  10.131   5.655   0.742
 3083SOL    HW111256  10.194   5.657   0.814
 3083SOL    HW211257  10.069  16.765  11.802
 3084SOL     OW11258  -0.998   1.342   2.539
 3084SOL    HW111259  21.050  -9.613 -19.509
 3084SOL    HW211260  -1.051   1.323   2.462
 3085SOL     OW11261   1.860   8.418   7.324
 3085SOL    HW111262   1.828  -2.702   7.364
 3085SOL    HW211263   1.902   8.389   7.243
 3086SOL     OW11264   2.579   7.573   9.817
 3086SOL    HW111265  13.617 -25.616  -1.287
 3086SOL    HW211266 -30.597   7.543   9.887
 3087SOL     OW11267   8.943   7.713   1.278
 3087SOL    HW111268   8.952  -3.414   1.315
 3087SOL    HW211269   9.001   7.768 -20.749
 3088SOL     OW11270   2.105   2.925  10.169
 3088SOL    HW111271   2.059  14.027  10.112
 3088SOL    HW211272  13.207   2.979  21.257
 3089SOL     OW11273   5.939   3.712   2.714
 3089SOL    HW111274   5.974   3.624   2.729
 3089SOL    HW211275   5.984   3.767   2.778
 3090SOL     OW11276   1.934   5.671  10.073
 3090SOL    HW111277   1.935  16.615  10.070
 3090SOL    HW211278   1.976   5.693  10.155
 3091SOL     OW11279   3.686   9.574  10.209
 3091SOL    HW111280   3.652   9.536  21.329
 3091SOL    HW211281  -7.313  -1.539  10.163
 3092SOL     OW11282   7.892  10.066   5.240
 3092SOL    HW111283 -14.181  21.102  -5.895
 3092SOL    HW211284   7.907  10.159   5.262
 3093SOL     OW11285   7.582   5.596   9.549
 3093SOL    HW111286   7.572   5.689   9.572
 3093SOL    HW211287  18.665   5.557   9.624
 3094SOL     OW11288   6.089   4.512   1.852
 3094SOL    HW111289   6.001 -39.664   1.819
 3094SOL    HW211290   6.148  -6.568   1.788
 3095SOL     OW11291   7.220   8.957   3.599
 3095SOL    HW111292   7.250  20.086   3.586
 3095SOL    HW211293  29.297   8.946   3.694
 3096SOL     OW11294   5.749   0.900   1.546
 3096SOL    HW111295  27.735   0.905   1.566
 3096SOL    HW211296   5.785 -10.198 -20.466
 3097SOL     OW11297   5.138   1.372   0.710
 3097SOL    HW111298   5.184  -9.717   0.778
 3097SOL    HW211299  16.201   1.463   0.726
 3098SOL     OW11300   1.650   2.187  10.438
 3098SOL    HW111301   1.605   2.235  10.507
 3098SOL    HW211302  -9.425   2.099  10.442
 3099SOL     OW11303   9.515   5.282   3.715
 3099SOL    HW111304   9.453   5.347   3.747
 3099SOL    HW211305   9.585  -5.758   3.781
 3100SOL     OW11306   8.535   9.874   9.233
 3100SOL    HW111307  -2.569   9.841   9.171
 3100SOL    HW211308   8.595   9.800   9.247
 3101SOL     OW11309   5.795   4.684   7.779
 3101SOL    HW111310   5.811  48.833   7.685
 3101SOL    HW211311   5.754  15.809  18.828
 3102SOL     OW11312   1.540   2.745   2.748
 3102SOL    HW111313   1.577  -8.215 -19.368
 3102SOL    HW211314  23.567  35.894   2.823
 3103SOL     OW11315   9.282   2.838   3.096
 3103SOL    HW111316   9.360   2.783   3.090
 3103SOL    HW211317 -12.869   2.784   3.064
 3104SOL     OW11318   1.707   5.021  10.813
 3104SOL    HW111319   1.755  -5.950  -0.179
 3104SOL    HW211320  12.661 -28.058  10.794
 3105SOL     OW11321   9.853   6.236   1.539
 3105SOL    HW111322   9.798 -26.962  12.575
 3105SOL    HW211323   9.794 -15.772  12.554
 3106SOL     OW11324   7.254   1.537   9.076
 3106SOL    HW111325   7.321  12.546  -1.902
 3106SOL    HW211326   7.280   1.498  20.032
 3107SOL     OW11327   8.223   5.450   8.809
 3107SOL    HW111328   8.240  16.504  -2.323
 3107SOL    HW211329   8.228   5.537   8.848
 3108SOL     OW11330   7.098   9.255   4.135
 3108SOL    HW111331   7.174  -1.727  26.215
 3108SOL    HW211332   7.119   9.186  26.276
 3109SOL     OW11333   9.213   6.953   6.891
 3109SOL    HW111334   9.120  17.970  17.931
 3109SOL    HW211335   9.221  18.065   6.953
 3110SOL     OW11336   6.046   2.786   6.926
 3110SOL    HW111337   6.036   2.814   7.017
 3110SOL    HW211338   6.076   2.865  -4.160
 3111SOL     OW11339   1.691   4.856   4.765
 3111SOL    HW111340   1.632   4.803  -6.221
 3111SOL    HW211341   1.710   4.932 -17.260
 3112SOL     OW11342   5.414   2.415   1.997
 3112SOL    HW111343   5.426   2.469   2.075
 3112SOL    HW211344   5.497   2.423   1.950
 3113SOL     OW11345   2.828   3.957   7.228
 3113SOL    HW111346 -19.254  -7.139   7.151
 3113SOL    HW211347   2.773  -7.126   7.292
 3114SOL     OW11348  10.163   8.248   3.265
 3114SOL    HW111349  10.120   8.330 -29.828
 3114SOL    HW211350 -23.011  19.219  -7.737
 3115SOL     OW11351  13.846   7.689   1.695
 3115SOL    HW111352 -19.350   7.680  23.719
 3115SOL    HW211353  -8.198   7.600   1.702
 3116SOL     OW11354   7.869  12.785   1.426
 3116SOL    HW111355  18.940  12.808   1.513
 3116SOL    HW211356  -3.144 -31.465   1.414
 3117SOL     OW11357   2.386   6.161   6.718
 3117SOL    HW111358   2.418   6.087  -4.373
 3117SOL    HW211359   2.422   6.148   6.806
 3118SOL     OW11360   8.329   2.044   9.523
 3118SOL    HW111361 -24.794  -8.938   9.600
 3118SOL    HW211362   8.295   2.097   9.451
 3119SOL     OW11363   1.418   9.351   3.631
 3119SOL    HW111364   1.423   9.333   3.724
 3119SOL    HW211365  12.543   9.324   3.597
 3120SOL     OW11366   3.375  12.787   5.652
 3120SOL    HW111367   3.444  -9.322   5.592
 3120SOL    HW211368   3.377   1.684   5.724
 3121SOL     OW11369   1.515   0.059   6.817
 3121SOL    HW111370   1.554  22.105  28.977
 3121SOL    HW211371   1.589  22.159   6.761
 3122SOL     OW11372   8.986   6.762   5.138
 3122SOL    HW111373   8.996   6.811   5.220
 3122SOL    HW211374  -2.130  -4.238   5.096
 3123SOL     OW11375   5.362   0.081   2.961
 3123SOL    HW111376   5.423   0.153   2.979
 3123SOL    HW211377   5.381  44.175   3.030
 3124SOL     OW11378   6.275  10.959   5.098
 3124SOL    HW111379   6.202  10.899   5.084
 3124SOL    HW211380   6.237  11.032  -5.892
 3125SOL     OW11381   8.106   6.719   6.295
 3125SOL    HW111382   8.194 -15.368  17.298
 3125SOL    HW211383   8.090   6.813  17.337
 3126SOL     OW11384   5.694   3.917   8.721
 3126SOL    HW111385   5.758  -7.052   8.716
 3126SOL    HW211386   5.617  -7.089   8.676
 3127SOL     OW11387   6.944   5.695   2.762
 3127SOL    HW111388  29.025   5.655   2.849
 3127SOL    HW211389  29.052   5.785  -8.264
 3128SOL     OW11390   1.847   8.733   2.714
 3128SOL    HW111391   1.798  19.704 -30.450
 3128SOL    HW211392   1.938   8.702   2.715
 3129SOL     OW11393  12.223   4.446   9.494
 3129SOL    HW111394   1.207   4.392   9.419
 3129SOL    HW211395   1.105  15.443  -1.509
 3130SOL     OW11396   8.863   1.927   0.770
 3130SOL    HW111397   8.768   1.920   0.782
 3130SOL    HW211398   8.880  24.100  11.808
 3131SOL     OW11399   9.539   5.800   8.862
 3131SOL    HW111400   9.513   5.835 -24.342
 3131SOL    HW211401   9.608  -5.302   8.842
 3132SOL     OW11402   4.319   9.608  10.334
 3132SOL    HW111403  26.377  31.608  10.284
 3132SOL    HW211404   4.269   9.677  10.290
 3133SOL     OW11405   6.451   0.628   6.563
 3133SOL    HW111406   6.508   0.556  17.631
 3133SOL    HW211407   6.471   0.699  28.703
 3134SOL     OW11408   6.342   4.222   1.881
 3134SOL    HW111409   6.293  -6.772   1.813
 3134SOL    HW211410  17.388  -6.754  -9.086
 3135SOL     OW11411   5.051   4.343   2.287
 3135SOL    HW111412  16.048   4.391 -30.903
 3135SOL    HW211413   5.070   4.257   2.249
 3136SOL     OW11414  10.202  10.356   5.399
 3136SOL    HW111415  10.170  -0.773   5.406
 3136SOL    HW211416  10.128  21.450   5.427
 3137SOL     OW11417   7.706   8.620   4.609
 3137SOL    HW111418   7.710   8.562   4.685
 3137SOL    HW211419   7.685  19.746 -17.434
 3138SOL     OW11420   2.631   3.381   1.312
 3138SOL    HW111421  35.837   3.352   1.288
 3138SOL    HW211422  13.614   3.349   1.241
 3139SOL     OW11423   4.164   5.251   4.020
 3139SOL    HW111424   4.214   5.303   4.084
 3139SOL    HW211425  26.187   5.315   3.976
 3140SOL     OW11426  10.591   6.499   5.179
 3140SOL    HW111427  10.515  17.487  -5.833
 3140SOL    HW211428  10.554   6.580   5.145
 3141SOL     OW11429   0.676   4.872   5.953
 3141SOL    HW111430   0.748   4.815   5.982
 3141SOL    HW211431   0.613  15.910   6.025
 3142SOL     OW11432   7.986  -0.141  10.597
 3142SOL    HW111433   7.928  10.922  -0.516
 3142SOL    HW211434  19.094  -0.195  10.557
 3143SOL     OW11435   0.062   2.711  -0.780
 3143SOL    HW111436  22.106   2.626  -0.807
 3143SOL    HW211437 -21.971   2.744  32.262
 3144SOL     OW11438   7.322  -0.632   3.569
 3144SOL    HW111439  -3.797  10.431   3.521
 3144SOL    HW211440 -47.806  21.496  14.565
 3145SOL     OW11441   3.922   1.901   2.866
 3145SOL    HW111442  14.994   1.920   2.778
 3145SOL    HW211443   3.953   1.812   2.885
 3146SOL     OW11444   5.972   5.359   1.202
 3146SOL    HW111445   5.972  -5.610   1.266
 3146SOL    HW211446  16.969  16.325  -9.792
 3147SOL     OW11447   5.359  10.741   0.054
 3147SOL    HW111448   5.320  10.800   0.118
 3147SOL    HW211449   5.447  10.725   0.087
 3148SOL     OW11450   0.626   5.317   5.598
 3148SOL    HW111451   0.560   5.359 -16.535
 3148SOL    HW211452   0.689   5.280 -16.544
 3149SOL     OW11453   3.273   1.824   5.260
 3149SOL    HW111454   3.273  56.926   5.265
 3149SOL    HW211455   3.183  23.926   5.236
 3150SOL     OW11456  -0.006  -0.553   5.175
 3150SOL    HW111457  21.992  21.568   5.204
 3150SOL    HW211458   0.031  -0.494  -5.930
 3151SOL     OW11459   2.618   2.750  10.247
 3151SOL    HW111460  13.732   2.694  10.269
 3151SOL    HW211461   2.626  24.904  10.306
 3152SOL     OW11462   0.382  -1.667   7.721
 3152SOL    HW111463   0.469  20.451   7.710
 3152SOL    HW211464  11.364  20.467   7.668
 3153SOL     OW11465   6.667   7.636   8.887
 3153SOL    HW111466   6.668  18.757   8.838
 3153SOL    HW211467   6.719   7.575   8.834
 3154SOL     OW11468   2.797   9.418   7.661
 3154SOL    HW111469  13.860  -1.663   7.745
 3154SOL    HW211470   2.703  -1.609   7.667
 3155SOL     OW11471   9.814   5.299   8.600
 3155SOL    HW111472  20.855  -5.684   8.677
 3155SOL    HW211473   9.816   5.359   8.526
 3156SOL     OW11474  11.965  10.411   3.042
 3156SOL    HW111475  11.945  10.361   2.962
 3156SOL    HW211476 -10.024  10.442   3.029
 3157SOL     OW11477   1.384  10.363  -0.928
 3157SOL    HW111478   1.410  10.274  -0.903
 3157SOL    HW211479  -9.720  10.351  21.082
 3158SOL     OW11480   4.562   8.604   7.478
 3158SOL    HW111481   4.552  -2.346   7.511
 3158SOL    HW211482   4.634   8.567   7.530
 3159SOL     OW11483   5.817   3.425  -0.277
 3159SOL    HW111484   5.895   3.460  -0.319
 3159SOL    HW211485  27.885   3.479  21.881
 3160SOL     OW11486   4.368   2.515   5.186
 3160SOL    HW111487  26.366  13.506  16.209
 3160SOL    HW211488  15.381  35.726   5.187
 3161SOL     OW11489   5.189   0.702  10.268
 3161SOL    HW111490   5.243 -10.260  10.281
 3161SOL    HW211491   5.144   0.717 -22.934
 3162SOL     OW11492   3.471   6.128   4.948
 3162SOL    HW111493  -7.603  39.179  -6.150
 3162SOL    HW211494  -7.640  17.186 -28.111
 3163SOL     OW11495   4.923   3.911   2.083
 3163SOL    HW111496  15.923   3.893   1.998
 3163SOL    HW211497  26.928   3.920  -8.897
 3164SOL     OW11498   7.306   4.626   8.759
 3164SOL    HW111499   7.263   4.544   8.736
 3164SOL    HW211500   7.310   4.625  30.934
 3165SOL     OW11501   6.166  10.336  10.090
 3165SOL    HW111502   6.097  -0.670  10.034
 3165SOL    HW211503   6.120  10.304  -0.872
 3166SOL     OW11504  10.552  10.369   0.923
 3166SOL    HW111505  -0.432  -0.642   0.995
 3166SOL    HW211506  -0.574  -0.636   0.945
 3167SOL     OW11507   5.210   4.826   5.816
 3167SOL    HW111508 -16.823  37.903   5.888
 3167SOL    HW211509   5.130   4.861   5.855
 3168SOL     OW11510   5.112   1.181   3.958
 3168SOL    HW111511   5.110  23.180  15.050
 3168SOL    HW211512   5.139  12.191   3.871
 3169SOL     OW11513   4.250   2.501   6.635
 3169SOL    HW111514  -6.710   2.464  -4.441
 3169SOL    HW211515  -6.768  13.631   6.655
 3170SOL     OW11516   4.834   6.549  10.899
 3170SOL    HW111517   4.886   6.619  10.859
 3170SOL    HW211518   4.896   6.499  10.951
 3171SOL     OW11519   4.349   6.516   2.369
 3171SOL    HW111520  26.454   6.455  13.478
 3171SOL    HW211521   4.256  17.538   2.356
 3172SOL     OW11522   1.676   8.837   3.282
 3172SOL    HW111523   1.698   8.832  14.229
 3172SOL    HW211524   1.759   8.853   3.326
 3173SOL     OW11525   1.823  10.689   3.282
 3173SOL    HW111526 -20.204  21.803   3.313
 3173SOL    HW211527   1.779 -11.423   3.360
 3174SOL     OW11528   2.566   4.945   2.835
 3174SOL    HW111529  24.696   4.876  -8.248
 3174SOL    HW211530   2.586   5.024   2.787
 3175SOL     OW11531   9.511   3.969  11.462
 3175SOL    HW111532   9.469   3.922  11.390
 3175SOL    HW211533   9.538  37.019   0.483
 3176SOL     OW11534  -1.170   3.425   7.738
 3176SOL    HW111535  31.957   3.380  18.694
 3176SOL    HW211536  -1.081   3.428   7.774
 3177SOL     OW11537   1.785   4.793   5.955
 3177SOL    HW111538   1.824   4.781   5.868
 3177SOL    HW211539   1.852   4.763 -16.063
 3178SOL     OW11540   8.260   5.239   0.873
 3178SOL    HW111541   8.317   5.261   0.800
 3178SOL    HW211542   8.202   5.171   0.839
 3179SOL     OW11543   1.881   2.337   1.246
 3179SOL    HW111544  24.036  -8.676  12.337
 3179SOL    HW211545  12.899   2.415   1.194
 3180SOL     OW11546   9.136   5.877  10.506
 3180SOL    HW111547 -23.916   5.904  10.569
 3180SOL    HW211548   9.119 -27.333  10.526
 3181SOL     OW11549  11.653   5.455  10.085
 3181SOL    HW111550   0.696   5.459  10.133
 3181SOL    HW211551 -32.534   5.364  10.094
 3182SOL     OW11552   1.308  10.061  11.225
 3182SOL    HW111553   1.358  10.022 -10.927
 3182SOL    HW211554   1.366  10.129 -21.859
 3183SOL     OW11555  11.041   8.507   1.553
 3183SOL    HW111556  11.030   8.583   1.611
 3183SOL    HW211557  -0.011  19.581   1.465
 3184SOL     OW11558   9.963   3.383   6.381
 3184SOL    HW111559   9.876  -7.668 -26.774
 3184SOL    HW211560   9.975   3.309   6.440
 3185SOL     OW11561   3.083   8.145   3.440
 3185SOL    HW111562   3.060   8.213  -7.662
 3185SOL    HW211563   3.004   8.132   3.492
 3186SOL     OW11564   3.619   6.420   4.343
 3186SOL    HW111565   3.682   6.371   4.290
 3186SOL    HW211566   3.576   6.479   4.281
 3187SOL     OW11567   4.070   2.238   9.514
 3187SOL    HW111568   3.987   2.282   9.532
 3187SOL    HW211569  26.211   2.309  20.535
 3188SOL     OW11570   3.201   4.932   5.701
 3188SOL    HW111571   3.247 -17.213  -5.390
 3188SOL    HW211572  14.280   4.927   5.788
 3189SOL     OW11573   5.353   3.536   2.460
 3189SOL    HW111574  -5.623   3.500   2.522
 3189SOL    HW211575  -5.670   3.490   2.378
 3190SOL     OW11576   6.367   2.035  10.016
 3190SOL    HW111577   6.335   2.024  10.106
 3190SOL    HW211578   6.330  -9.079   9.969
 3191SOL     OW11579   1.688   8.640   8.287
 3191SOL    HW111580   1.644   8.626  -2.669
 3191SOL    HW211581   1.617  19.694  19.264
 3192SOL     OW11582   3.235   8.590   3.130
 3192SOL    HW111583   3.185   8.659 -30.032
 3192SOL    HW211584  -7.746   8.556   3.062
 3193SOL     OW11585   8.903   4.582   9.953
 3193SOL    HW111586   8.987  15.580  21.009
 3193SOL    HW211587   8.900  26.674   9.858
 3194SOL     OW11588   3.948   3.629   3.751
 3194SOL    HW111589   3.900   3.711   3.763
 3194SOL    HW211590   3.945  14.653   3.656
 3195SOL     OW11591  10.613   9.452   3.157
 3195SOL    HW111592  10.556   9.471   3.232
 3195SOL    HW211593  10.659   9.372   3.182
 3196SOL     OW11594   5.025   2.224   6.755
 3196SOL    HW111595   5.014  13.357  17.813
 3196SOL    HW211596  16.126   2.221   6.681
 3197SOL     OW11597  -1.382   6.877   4.840
 3197SOL    HW111598  -1.422   6.880   4.754
 3197SOL    HW211599  31.665 -15.228  15.938
 3198SOL     OW11600   7.811   1.746   5.171
 3198SOL    HW111601  52.063  -9.301   5.149
 3198SOL    HW211602   7.801   1.693   5.250
 3199SOL     OW11603   3.494   3.481   8.319
 3199SOL    HW111604   3.542   3.537   8.258
 3199SOL    HW211605   3.426  36.559   8.265
 3200SOL     OW11606   3.900   4.323   6.149
 3200SOL    HW111607   3.987  15.327   6.128
 3200SOL    HW211608   3.843   4.288   6.081
 3201SOL     OW11609  -0.504  -0.991   1.879
 3201SOL    HW111610  32.541  21.149   1.874
 3201SOL    HW211611  -0.506  -1.037   1.795
 3202SOL     OW11612   2.790   7.305   0.873
 3202SOL    HW111613   2.789   7.396   0.841
 3202SOL    HW211614   2.708   7.296   0.921
 3203SOL     OW11615   4.419   1.281   2.747
 3203SOL    HW111616  26.444   1.348  13.745
 3203SOL    HW211617  15.473   1.216 -19.401
 3204SOL     OW11618   1.554   6.795   2.671
 3204SOL    HW111619   1.487   6.734   2.640
 3204SOL    HW211620   1.630  39.895   2.615
 3205SOL     OW11621   9.135   9.648   9.954
 3205SOL    HW111622   9.098   9.565   9.923
 3205SOL    HW211623   9.161   9.694 -23.245
 3206SOL     OW11624   1.731  -0.993   4.970
 3206SOL    HW111625  12.754  32.183  16.084
 3206SOL    HW211626   1.647  -1.002   4.927
 3207SOL     OW11627   0.140   8.160   1.055
 3207SOL    HW111628   0.214  -2.888   1.115
 3207SOL    HW211629  11.213   8.131   0.970
 3208SOL     OW11630   3.658   6.755   2.334
 3208SOL    HW111631   3.703  -4.288   2.250
 3208SOL    HW211632   3.722   6.722   2.398
 3209SOL     OW11633   2.037  10.249   2.112
 3209SOL    HW111634   2.041  -0.849   2.037
 3209SOL    HW211635   2.055 -11.743   2.076
 3210SOL     OW11636   4.749   6.904   8.822
 3210SOL    HW111637  -6.385  17.947 -24.312
 3210SOL    HW211638   4.787   6.955  -2.289
 3211SOL     OW11639   5.891   2.591   0.932
 3211SOL    HW111640   5.845  13.548   0.951
 3211SOL    HW211641   5.895  -8.445   0.837
 3212SOL     OW11642   2.759   4.832   5.475
 3212SOL    HW111643  13.893   4.844   5.464
 3212SOL    HW211644   2.726  26.903  16.425
 3213SOL     OW11645   1.944   8.202   8.221
 3213SOL    HW111646   1.897 -13.960   8.234
 3213SOL    HW211647   1.875   8.268   8.216
 3214SOL     OW11648  10.113   6.384   5.835
 3214SOL    HW111649  10.171   6.441   5.885
 3214SOL    HW211650 -23.056   6.336  -5.138
 3215SOL     OW11651  10.339   3.073   8.679
 3215SOL    HW111652  21.350   2.986   8.706
 3215SOL    HW211653  10.280   3.133   8.725
 3216SOL     OW11654   9.642   0.708   5.738
 3216SOL    HW111655  -1.486 -10.324   5.774
 3216SOL    HW211656   9.630   0.717   5.643
 3217SOL     OW11657   4.032   3.485   7.798
 3217SOL    HW111658 -18.114   3.445   7.853
 3217SOL    HW211659   4.065 -29.561   7.849
 3218SOL     OW11660   9.381   2.771   0.864
 3218SOL    HW111661   9.371   2.713   0.940
 3218SOL    HW211662   9.433  -8.195   0.896
 3219SOL     OW11663   6.980   0.584   3.473
 3219SOL    HW111664   6.900  22.651 -51.674
 3219SOL    HW211665   6.967   0.667   3.428
 3220SOL     OW11666   3.534   7.573   0.415
 3220SOL    HW111667   3.597  29.712   0.454
 3220SOL    HW211668  -7.591  -3.437  11.487
 3221SOL     OW11669   8.481   3.323   6.218
 3221SOL    HW111670   8.565   3.320   6.172
 3221SOL    HW211671 -13.576  25.425   6.308
 3222SOL     OW11672   5.623   2.585   9.339
 3222SOL    HW111673   5.669   2.516   9.290
 3222SOL    HW211674   5.671  -8.449   9.422
 3223SOL     OW11675   4.132   0.826   9.364
 3223SOL    HW111676   4.053   0.779  20.428
 3223SOL    HW211677   4.116 -10.123   9.392
 3224SOL     OW11678   7.942   8.237   8.374
 3224SOL    HW111679   7.962   8.180   8.300
 3224SOL    HW211680  18.889   8.223   8.391
 3225SOL     OW11681   7.166   6.413   4.746
 3225SOL    HW111682   7.257 -26.700  15.755
 3225SOL    HW211683   7.120   6.479   4.696
 3226SOL     OW11684  -0.889   6.000   5.292
 3226SOL    HW111685  10.240   5.965   5.298
 3226SOL    HW211686  10.161   6.095 -16.786
 3227SOL     OW11687   2.303   4.982   5.965
 3227SOL    HW111688   2.325  -5.966  -5.092
 3227SOL    HW211689  13.419   4.948   6.011
 3228SOL     OW11690   8.520   5.014   0.850
 3228SOL    HW111691   8.462  16.038   0.775
 3228SOL    HW211692  19.646  -6.013   0.811
 3229SOL     OW11693   4.307   1.930   4.255
 3229SOL    HW111694  -6.722   1.943   4.349
 3229SOL    HW211695   4.396  -9.115  -6.819
 3230SOL     OW11696   8.275   3.498  -0.326
 3230SOL    HW111697   8.281   3.404  10.725
 3230SOL    HW211698  30.266 -18.567  -0.362
 3231SOL     OW11699   2.912   4.774   3.821
 3231SOL    HW111700  -8.082  26.816   3.897
 3231SOL    HW211701  -8.144   4.865   3.846
 3232SOL     OW11702   9.679   9.420   4.296
 3232SOL    HW111703   9.740   9.493   4.305
 3232SOL    HW211704   9.622   9.444  15.263
 3233SOL     OW11705   2.860   6.143   4.516
 3233SOL    HW111706   2.948   6.108  -6.510
 3233SOL    HW211707   2.872   6.237   4.506
 3234SOL     OW11708   8.006   6.053   1.040
 3234SOL    HW111709   8.093   6.085   1.064
 3234SOL    HW211710  19.026  17.024   1.104
 3235SOL     OW11711   0.237   1.900   7.060
 3235SOL    HW111712  11.354   1.870   7.108
 3235SOL    HW211713   0.270  24.003   6.973
 3236SOL     OW11714  10.636  -0.037   5.322
 3236SOL    HW111715 -11.360  11.036   5.291
 3236SOL    HW211716  10.574  -0.019   5.251
 3237SOL     OW11717   9.661   5.459   6.205
 3237SOL    HW111718   9.614   5.384  28.320
 3237SOL    HW211719   9.753  -5.609  61.398
 3238SOL     OW11720   2.137   7.438   7.404
 3238SOL    HW111721   2.094   7.380   7.341
 3238SOL    HW211722   2.080  -3.604   7.481
 3239SOL     OW11723   7.105   2.310   0.847
 3239SOL    HW111724   7.143   2.376   0.789
 3239SOL    HW211725   7.078   2.359   0.925
 3240SOL     OW11726  -1.045   7.175  10.306
 3240SOL    HW111727  21.070  -3.787  10.264
 3240SOL    HW211728  21.110   7.133  10.347
 3241SOL     OW11729   5.692  10.802   4.398
 3241SOL    HW111730   5.775  -0.236   4.444
 3241SOL    HW211731  16.670  10.760  15.498
 3242SOL     OW11732   8.933   2.834  10.969
 3242SOL    HW111733   8.840   2.820  10.953
 3242SOL    HW211734   8.950   2.922  10.936
 3243SOL     OW11735   3.634   3.417   0.805
 3243SOL    HW111736  -7.346  36.587 -10.289
 3243SOL    HW211737   3.621   3.336   0.756
 3244SOL     OW11738  10.278   6.441   9.717
 3244SOL    HW111739  10.326  17.551  -1.278
 3244SOL    HW211740 -11.813   6.374  -1.256
 3245SOL     OW11741   6.134   4.554   4.285
 3245SOL    HW111742   6.142   4.631  15.381
 3245SOL    HW211743  17.261   4.541   4.249
 3246SOL     OW11744   9.478   6.896   8.720
 3246SOL    HW111745   9.416   6.962   8.688
 3246SOL    HW211746   9.564   6.934   8.703
 3247SOL     OW11747   1.351   1.205   9.618
 3247SOL    HW111748   1.348   1.287   9.667
 3247SOL    HW211749   1.369   1.138   9.684
 3248SOL     OW11750   2.401   6.335   0.732
 3248SOL    HW111751   2.448  -4.698   0.815
 3248SOL    HW211752   2.386   6.426 -10.333
 3249SOL     OW11753   2.886  10.658   1.536
 3249SOL    HW111754   2.939 -11.385   1.465
 3249SOL    HW211755   2.837  -0.308  12.610
 3250SOL     OW11756   4.498   3.782   8.861
 3250SOL    HW111757   4.463  -7.188   8.917
 3250SOL    HW211758 -17.501 -18.261   8.824
 3251SOL     OW11759   8.795   1.496  10.524
 3251SOL    HW111760   8.737   1.463  -0.448
 3251SOL    HW211761   8.863   1.543  10.571
 3252SOL     OW11762  -0.131   8.414   6.189
 3252SOL    HW111763  -0.197  30.436   6.228
 3252SOL    HW211764  10.992   8.369  39.324
 3253SOL     OW11765   3.582   4.450   6.411
 3253SOL    HW111766   3.635   4.503   6.351
 3253SOL    HW211767 -51.565  37.488   6.422
 3254SOL     OW11768   1.916   6.927   5.250
 3254SOL    HW111769   1.824   6.944 -16.847
 3254SOL    HW211770   1.915 -15.215  -5.717
 3255SOL     OW11771   1.504   0.351   1.147
 3255SOL    HW111772   1.451   0.415   1.194
 3255SOL    HW211773   1.529  33.514   1.066
 3256SOL     OW11774   8.687   0.152   6.103
 3256SOL    HW111775   8.657  22.264  -4.852
 3256SOL    HW211776  -2.260   0.178 -15.980
 3257SOL     OW11777   9.453   5.963   6.316
 3257SOL    HW111778   9.488   5.875   6.330
 3257SOL    HW211779   9.414  17.026  -4.640
 3258SOL     OW11780   3.359   8.468   3.408
 3258SOL    HW111781   3.443   8.452   3.452
 3258SOL    HW211782   3.293   8.446 -18.606
 3259SOL     OW11783   0.175  -0.276   4.587
 3259SOL    HW111784  22.330  -0.241   4.540
 3259SOL    HW211785   0.107  10.830  15.615
 3260SOL     OW11786   3.856   8.092   8.632
 3260SOL    HW111787   3.854   8.187   8.644
 3260SOL    HW211788   3.790   8.076  -2.476
 3261SOL     OW11789   7.163   4.290   5.158
 3261SOL    HW111790  18.277  15.376  16.235
 3261SOL    HW211791   7.202  15.262   5.102
 3262SOL     OW11792  11.142   3.840   7.144
 3262SOL    HW111793 -10.967   3.787   7.070
 3262SOL    HW211794  11.186  36.897   7.202
 3263SOL     OW11795   4.765   9.379   8.118
 3263SOL    HW111796 -17.324   9.358  41.144
 3263SOL    HW211797   4.676   9.396   8.149
 3264SOL     OW11798   5.674   7.939   1.993
 3264SOL    HW111799   5.744   7.926   1.929
 3264SOL    HW211800  -5.402   8.025   1.973
 3265SOL     OW11801   5.718   2.099   6.522
 3265SOL    HW111802  -5.292   2.136  -4.601
 3265SOL    HW211803   5.665  -9.016   6.497
 3266SOL     OW11804  10.126   1.382  10.737
 3266SOL    HW111805  10.161   1.358  10.651
 3266SOL    HW211806 -11.878  -9.661 -11.283
 3267SOL     OW11807   1.631   6.357   0.140
 3267SOL    HW111808  12.706  72.672  11.137
 3267SOL    HW211809   1.619  -4.656  11.271
 3268SOL     OW11810   8.674   3.753   3.976
 3268SOL    HW111811   8.760   3.717   3.950
 3268SOL    HW211812   8.693 -18.237   4.005
 3269SOL     OW11813   9.400   8.418   1.634
 3269SOL    HW111814   9.490   8.449   1.629
 3269SOL    HW211815   9.389  -2.678   1.557
 3270SOL     OW11816   4.804   3.951  11.923
 3270SOL    HW111817   4.802  15.086  11.920
 3270SOL    HW211818   4.897   3.928 -10.157
 3271SOL     OW11819   7.007   6.355   8.604
 3271SOL    HW111820   7.029   6.332   8.514
 3271SOL    HW211821   6.920  17.358   8.617
 3272SOL     OW11822  10.865   8.482   4.972
 3272SOL    HW111823  10.819  19.590   5.020
 3272SOL    HW211824  10.958   8.506   4.978
 3273SOL     OW11825   8.869   8.669   1.525
 3273SOL    HW111826   8.903   8.722  -9.587
 3273SOL    HW211827   8.774   8.673  23.595
 3274SOL     OW11828   4.665   4.492   3.511
 3274SOL    HW111829   4.702  -6.460   3.502
 3274SOL    HW211830   4.588   4.504   3.567
 3275SOL     OW11831   3.730   8.820   2.532
 3275SOL    HW111832  25.751   8.889   2.502
 3275SOL    HW211833 -18.407   8.748  -8.483
 3276SOL     OW11834   3.810   6.002   1.114
 3276SOL    HW111835  25.817   6.065  12.159
 3276SOL    HW211836   3.785 -16.135   1.042
 3277SOL     OW11837  -0.289  -0.617   5.807
 3277SOL    HW111838  -0.217  21.399  -5.235
 3277SOL    HW211839  10.706  21.445   5.890
 3278SOL     OW11840   0.164   8.258   2.698
 3278SOL    HW111841   0.087  30.363   2.749
 3278SOL    HW211842   0.128   8.228   2.614
 3279SOL     OW11843   6.301   3.518   3.202
 3279SOL    HW111844   6.289  14.472 -18.836
 3279SOL    HW211845   6.333  14.537 -18.965
 3280SOL     OW11846   5.653   8.737   4.520
 3280SOL    HW111847   5.701 -13.389   4.452
 3280SOL    HW211848   5.615 -35.490   4.575
 3281SOL     OW11849   5.439   3.697   8.411
 3281SOL    HW111850   5.394  14.658  41.499
 3281SOL    HW211851 -27.670   3.684   8.506
 3282SOL     OW11852   8.015   3.778   8.065
 3282SOL    HW111853   8.003   3.763   7.971
 3282SOL    HW211854   8.105  -7.230   8.074
 3283SOL     OW11855   1.429  11.714  10.869
 3283SOL    HW111856  -9.620  11.782  10.803
 3283SOL    HW211857   1.510 -10.343  10.914
 3284SOL     OW11858   7.192   3.993   6.943
 3284SOL    HW111859   7.275   3.998  -4.144
 3284SOL    HW211860   7.155   3.908 -48.280
 3285SOL     OW11861   7.407   7.253  -0.447
 3285SOL    HW111862   7.458   7.291  10.665
 3285SOL    HW211863  -3.673   7.175  -0.409
 3286SOL     OW11864   2.825   8.995   8.600
 3286SOL    HW111865   2.842  42.063   8.520
 3286SOL    HW211866  -8.307   8.980  19.658
 3287SOL     OW11867   7.194   9.126  10.501
 3287SOL    HW111868   7.276   9.132  10.550
 3287SOL    HW211869   7.144  31.282  10.527
 3288SOL     OW11870   1.478   2.329   5.258
 3288SOL    HW111871   1.514   2.325  -5.693
 3288SOL    HW211872   1.433   2.413   5.254
 3289SOL     OW11873   7.053   3.361   8.026
 3289SOL    HW111874   6.972  -7.712   7.987
 3289SOL    HW211875   7.122   3.306   7.990
 3290SOL     OW11876   4.369   6.100  11.010
 3290SOL    HW111877   4.425  -4.889  11.069
 3290SOL    HW211878   4.430   6.047  10.959
 3291SOL     OW11879   7.249   9.871  10.883
 3291SOL    HW111880   7.172   9.852  10.937
 3291SOL    HW211881  18.255   9.876  -0.246
 3292SOL     OW11882  10.978   7.139   9.172
 3292SOL    HW111883  10.941   7.113  -1.951
 3292SOL    HW211884  10.908   7.184   9.218
 3293SOL     OW11885   9.380   9.296   2.944
 3293SOL    HW111886  20.424  -1.656   2.905
 3293SOL    HW211887  20.327  -1.758   2.961
 3294SOL     OW11888   5.634   2.006   6.209
 3294SOL    HW111889   5.636   1.911   6.217
 3294SOL    HW211890   5.725   2.033   6.214
 3295SOL     OW11891   6.769   2.150   7.244
 3295SOL    HW111892  28.898   2.231  18.298
 3295SOL    HW211893   6.744   2.153   7.152
 3296SOL     OW11894   7.727   6.255   5.983
 3296SOL    HW111895   7.645   6.299   5.957
 3296SOL    HW211896  18.754  17.204   5.956
 3297SOL     OW11897   7.323   7.372   8.311
 3297SOL    HW111898  -3.750   7.462   8.306
 3297SOL    HW211899  -3.724   7.348  19.442
 3298SOL     OW11900  10.751   3.732   5.258
 3298SOL    HW111901  10.673   3.683   5.234
 3298SOL    HW211902  -0.259   3.692  60.538
 3299SOL     OW11903   9.146   1.424   0.049
 3299SOL    HW111904  31.178   1.505   0.030
 3299SOL    HW211905   9.237   1.452   0.060
 3300SOL     OW11906   9.649   5.059   0.559
 3300SOL    HW111907   9.643   5.115   0.636
 3300SOL    HW211908   9.671   5.120   0.488
 3301SOL     OW11909   1.841   8.072   0.528
 3301SOL    HW111910  12.866   8.095  11.660
 3301SOL    HW211911   1.858  -3.062   0.530
 3302SOL     OW11912   2.436   5.213   5.913
 3302SOL    HW111913  -8.658   5.285   5.880
 3302SOL    HW211914   2.525   5.247   5.910
 3303SOL     OW11915   7.089   0.754   8.484
 3303SOL    HW111916   7.172   0.802   8.483
 3303SOL    HW211917   7.112   0.666  19.494
 3304SOL     OW11918   5.845   5.933  -1.266
 3304SOL    HW111919   5.790   5.932   9.695
 3304SOL    HW211920   5.832  16.887  20.852
 3305SOL     OW11921   5.825   3.404   9.414
 3305SOL    HW111922   5.856   3.313   9.416
 3305SOL    HW211923 -16.189   3.452   9.466
 3306SOL     OW11924   8.269   3.427   8.523
 3306SOL    HW111925 -13.771   3.501   8.570
 3306SOL    HW211926  -2.861 -18.623   8.505
 3307SOL     OW11927   8.802   7.479   8.695
 3307SOL    HW111928   8.744 -14.644   8.633
 3307SOL    HW211929   8.751   7.486  -2.264
 3308SOL     OW11930   4.637   2.648  11.011
 3308SOL    HW111931  37.679 -30.473  10.953
 3308SOL    HW211932  15.667  24.651  11.068
 3309SOL     OW11933   3.813   4.333  11.390
 3309SOL    HW111934   3.814  59.527  11.486
 3309SOL    HW211935   3.905   4.330   0.325
 3310SOL     OW11936   3.506   2.585   4.316
 3310SOL    HW111937   3.465   2.669  15.375
 3310SOL    HW211938   3.584  24.687   4.265
 3311SOL     OW11939   5.952   6.706  10.735
 3311SOL    HW111940   5.892   6.773  -0.272
 3311SOL    HW211941   6.039  -4.297  10.751
 3312SOL     OW11942   3.938   1.233  10.966
 3312SOL    HW111943  25.994   1.268  10.880
 3312SOL    HW211944  37.092   1.146  10.948
 3313SOL     OW11945   7.907   6.268   2.525
 3313SOL    HW111946  18.929   6.333   2.457
 3313SOL    HW211947 -25.118   6.275   2.543
 3314SOL     OW11948  11.413   8.684   3.119
 3314SOL    HW111949 -10.649   8.753   3.183
 3314SOL    HW211950  11.499   8.645   3.102
 3315SOL     OW11951  13.868   8.904   8.077
 3315SOL    HW111952 -30.319  -2.078   8.005
 3315SOL    HW211953   2.916   8.876   8.051
 3316SOL     OW11954   2.136   7.713   3.130
 3316SOL    HW111955   2.160   7.748  -7.824
 3316SOL    HW211956   2.212   7.730   3.074
 3317SOL     OW11957   1.556   0.171   2.832
 3317SOL    HW111958   1.616   0.097   2.831
 3317SOL    HW211959   1.559   0.203   2.922
 3318SOL     OW11960   5.765   4.447   6.171
 3318SOL    HW111961   5.748   4.509   6.242
 3318SOL    HW211962  27.925  15.443   6.197
 3319SOL     OW11963   7.828  11.189   0.651
 3319SOL    HW111964  18.818  11.267   0.628
 3319SOL    HW211965   7.761 -21.992   0.681
 3320SOL     OW11966   9.658   3.268  10.883
 3320SOL    HW111967   9.612   3.197  10.926
 3320SOL    HW211968 -12.344  14.267  10.844
 3321SOL     OW11969  11.317   6.468   8.889
 3321SOL    HW111970 -10.729   6.546   8.933
 3321SOL    HW211971 -10.854  -4.576 -13.166
 3322SOL     OW11972  -0.334   8.399   1.735
 3322SOL    HW111973  -0.289   8.354  12.703
 3322SOL    HW211974  32.851   8.454   1.775
 3323SOL     OW11975   4.847   8.664  11.008
 3323SOL    HW111976   4.869  19.639  11.074
 3323SOL    HW211977   4.928   8.714  10.995
 3324SOL     OW11978   3.742   4.818   9.524
 3324SOL    HW111979   3.832  15.876  20.537
 3324SOL    HW211980   3.697   4.795 -12.637
 3325SOL     OW11981   5.773   8.309   7.225
 3325SOL    HW111982  16.871   8.263   7.164
 3325SOL    HW211983  -5.277 -13.683  -3.852
 3326SOL     OW11984   5.878  12.703   2.702
 3326SOL    HW111985   5.963  -9.404   2.735
 3326SOL    HW211986   5.832   1.696   2.779
 3327SOL     OW11987   5.396   4.004   1.002
 3327SOL    HW111988  38.421  15.059  23.092
 3327SOL    HW211989  38.546   4.079   0.952
 3328SOL     OW11990  10.144   0.484   3.444
 3328SOL    HW111991  10.212   0.545 -29.707
 3328SOL    HW211992  21.118   0.484   3.375
 3329SOL     OW11993   3.590   5.858   5.083
 3329SOL    HW111994   3.581   5.950   5.058
 3329SOL    HW211995   3.570   5.809   5.003
 3330SOL     OW11996   4.506   0.960   2.066
 3330SOL    HW111997  -6.570  12.086  -8.955
 3330SOL    HW211998   4.596  23.057   2.040
 3331SOL     OW11999   4.117   6.303   5.325
 3331SOL    HW112000  15.193   6.278  16.280
 3331SOL    HW212001  26.148   6.225  -5.685
 3332SOL     OW12002   4.144   0.935   6.205
 3332SOL    HW112003   4.133   0.936   6.109
 3332SOL    HW212004   4.230 -10.065   6.220
 3333SOL     OW12005   0.212   0.034   3.047
 3333SOL    HW112006   0.267   0.004   2.975
 3333SOL    HW212007   0.274   0.064   3.113
 3334SOL     OW12008   2.762   6.180   8.512
 3334SOL    HW112009   2.848 -15.896   8.554
 3334SOL    HW212010  13.814   6.227   8.429
 3335SOL     OW12011  10.245   5.358   6.417
 3335SOL    HW112012  10.260 -16.779   6.492
 3335SOL    HW212013  10.241   5.300   6.342
 3336SOL     OW12014  11.413   3.980   7.927
 3336SOL    HW112015  11.367   3.980   7.843
 3336SOL    HW212016   0.303   3.975  19.032
 3337SOL     OW12017   1.175   9.730   4.627
 3337SOL    HW112018  23.312   9.665   4.587
 3337SOL    HW212019   1.177   9.804   4.567
 3338SOL     OW12020   2.107   2.916   2.371
 3338SOL    HW112021 -30.938  24.957   2.323
 3338SOL    HW212022   2.038   2.924   2.305
 3339SOL     OW12023   3.228   2.843   8.362
 3339SOL    HW112024  -7.797  -8.268   8.299
 3339SOL    HW212025  -7.729   2.891  19.402
 3340SOL     OW12026  -1.681   5.012   5.523
 3340SOL    HW112027  42.549   4.949   5.512
 3340SOL    HW212028  -1.665   5.078  16.496
 3341SOL     OW12029   4.072   9.709   9.249
 3341SOL    HW112030   4.051  -1.396  -1.857
 3341SOL    HW212031  15.203   9.732 -23.886
 3342SOL     OW12032   8.511  11.385   5.734
 3342SOL    HW112033 -13.663 -10.701   5.733
 3342SOL    HW212034   8.542  11.303   5.695
 3343SOL     OW12035   0.844   8.891  11.549
 3343SOL    HW112036  23.005   8.904  11.501
 3343SOL    HW212037  11.820   8.866   0.443
 3344SOL     OW12038   3.551   7.088   1.740
 3344SOL    HW112039   3.638   7.081 -20.380
 3344SOL    HW212040   3.491   7.059   1.671
 3345SOL     OW12041   0.012   3.351   2.085
 3345SOL    HW112042   0.084 -18.763   2.137
 3345SOL    HW212043  -0.036   3.407   2.146
 3346SOL     OW12044   9.082   8.111   5.751
 3346SOL    HW112045   9.000   8.062   5.755
 3346SOL    HW212046  31.166  19.182 -27.458
 3347SOL     OW12047   0.765   2.854   0.968
 3347SOL    HW112048 -10.343  13.934  34.034
 3347SOL    HW212049   0.831   2.826   0.904
 3348SOL     OW12050   7.715   4.897   8.623
 3348SOL    HW112051  29.723   4.924  -2.359
 3348SOL    HW212052   7.675   4.833 -13.516
 3349SOL     OW12053   0.359   9.193   6.497
 3349SOL    HW112054   0.322  -1.933  39.630
 3349SOL    HW212055   0.384   9.223   6.585
 3350SOL     OW12056   3.879   3.832   7.072
 3350SOL    HW112057  25.897  -7.163   7.130
 3350SOL    HW212058   3.884   3.888   6.994
 3351SOL     OW12059   4.809   8.183   4.098
 3351SOL    HW112060   4.764   8.113  15.090
 3351SOL    HW212061   4.788   8.167  15.229
 3352SOL     OW12062   5.105   7.872   3.566
 3352SOL    HW112063   5.120   7.912   3.652
 3352SOL    HW212064   5.018   7.903   3.540
 3353SOL     OW12065   6.829   5.972   0.403
 3353SOL    HW112066  -4.184   6.053  11.398
 3353SOL    HW212067  51.061 -16.167   0.390
 3354SOL     OW12068  10.694   3.745   9.284
 3354SOL    HW112069  10.763  36.862   9.350
 3354SOL    HW212070  10.649   3.661   9.295
 3355SOL     OW12071   1.440   8.129   0.628
 3355SOL    HW112072 -20.661   8.216   0.661
 3355SOL    HW212073   1.518   8.104   0.678
 3356SOL     OW12074   7.079   5.362   2.987
 3356SOL    HW112075   7.001   5.314   2.960
 3356SOL    HW212076   7.052   5.410   3.065
 3357SOL     OW12077   5.846   9.411   2.033
 3357SOL    HW112078   5.840  20.518   2.102
 3357SOL    HW212079   5.897   9.341   2.073
 3358SOL     OW12080   6.246   1.279   7.378
 3358SOL    HW112081   6.241   1.294 -14.796
 3358SOL    HW212082   6.339  -9.769  -3.644
 3359SOL     OW12083   5.969   2.865   9.970
 3359SOL    HW112084   5.976   2.880  21.104
 3359SOL    HW212085  -5.004   2.921  -1.108
 3360SOL     OW12086   9.254  10.038   7.648
 3360SOL    HW112087  -1.716  10.086   7.604
 3360SOL    HW212088  -1.864  10.057   7.597
 3361SOL     OW12089   5.327   7.515   8.141
 3361SOL    HW112090 -38.817  18.502   8.220
 3361SOL    HW212091 -16.829  29.648   8.162
 3362SOL     OW12092  10.003   3.448   6.698
 3362SOL    HW112093  10.024  14.422   6.632
 3362SOL    HW212094  10.083   3.458  17.788
 3363SOL     OW12095   2.657  11.979   4.768
 3363SOL    HW112096   2.653 -10.087  15.902
 3363SOL    HW212097   2.608  11.899   4.752
 3364SOL     OW12098   7.628   9.848   1.374
 3364SOL    HW112099   7.539   9.836   1.406
 3364SOL    HW212100  18.723   9.820   1.447
 3365SOL     OW12101   3.375   3.395   9.047
 3365SOL    HW112102   3.338   3.322   9.096
 3365SOL    HW212103   3.469  36.511  -1.972
 3366SOL     OW12104   2.750   3.702   5.703
 3366SOL    HW112105   2.771   3.726  16.652
 3366SOL    HW212106   2.686  25.711  27.774
 3367SOL     OW12107   8.887   9.049   7.124
 3367SOL    HW112108  30.999  31.118   7.213
 3367SOL    HW212109   8.874   8.959   7.093
 3368SOL     OW12110   4.406   6.872   6.199
 3368SOL    HW112111 -17.716  17.997 -15.882
 3368SOL    HW212112 -39.742  28.932   6.292
 3369SOL     OW12113   7.642   6.730  12.863
 3369SOL    HW112114   7.656   6.738  -9.121
 3369SOL    HW212115   7.569   6.789  -9.235
 3370SOL     OW12116   1.055   9.867   1.557
 3370SOL    HW112117  12.162  20.850 -20.560
 3370SOL    HW212118   1.105   9.932  34.727
 3371SOL     OW12119   1.337   5.412   5.001
 3371SOL    HW112120  -9.774   5.430   5.062
 3371SOL    HW212121  12.341 -27.773   4.941
 3372SOL     OW12122   3.929   7.711   3.803
 3372SOL    HW112123   3.983  29.713  14.862
 3372SOL    HW212124   3.947   7.773   3.873
 3373SOL     OW12125   4.533   1.584   0.431
 3373SOL    HW112126   4.502   1.531  11.398
 3373SOL    HW212127   4.476   1.561   0.504
 3374SOL     OW12128   7.093   1.848   5.301
 3374SOL    HW112129   7.156   1.786   5.337
 3374SOL    HW212130   7.078   1.911  16.412
 3375SOL     OW12131   1.367  10.732   0.992
 3375SOL    HW112132   1.279  10.753   1.023
 3375SOL    HW212133  12.432  -0.231   0.940
 3376SOL     OW12134   7.897  10.657   5.588
 3376SOL    HW112135  -3.209  10.685  27.604
 3376SOL    HW212136   7.849  10.644  16.709
 3377SOL     OW12137   7.731   1.512   6.450
 3377SOL    HW112138   7.791   1.438  28.522
 3377SOL    HW212139   7.785   1.589   6.431
 3378SOL     OW12140   7.576   5.236   3.626
 3378SOL    HW112141  18.665   5.273   3.700
 3378SOL    HW212142  29.671   5.298 -18.525
 3379SOL     OW12143   1.178   5.146   3.002
 3379SOL    HW112144  -9.897   5.162   2.914
 3379SOL    HW212145   1.185 -16.846   3.041
 3380SOL     OW12146   5.233  10.343   5.491
 3380SOL    HW112147   5.319  10.384   5.500
 3380SOL    HW212148  27.275  10.346   5.580
 3381SOL     OW12149   9.453   4.275   4.472
 3381SOL    HW112150   9.417 -17.805  26.640
 3381SOL    HW212151   9.483  -6.854   4.457
 3382SOL     OW12152   5.786  10.070   7.368
 3382SOL    HW112153 -16.386 -12.021   7.346
 3382SOL    HW212154   5.833  10.028   7.296
 3383SOL     OW12155   6.421   9.599   6.387
 3383SOL    HW112156   6.459   9.665   6.445
 3383SOL    HW212157  17.390   9.560   6.439
 3384SOL     OW12158   5.176   9.861  -0.310
 3384SOL    HW112159   5.139   9.946  -0.336
 3384SOL    HW212160  -5.775  20.901  21.733
 3385SOL     OW12161   5.214   8.023   8.308
 3385SOL    HW112162   5.200   8.086  -2.661
 3385SOL    HW212163   5.153   8.049 -13.840
 3386SOL     OW12164   6.306   1.553   4.526
 3386SOL    HW112165   6.224  23.635   4.575
 3386SOL    HW212166   6.282   1.514  15.481
 3387SOL     OW12167   6.155   1.979   4.403
 3387SOL    HW112168   6.229  -9.030   4.350
 3387SOL    HW212169  17.236   1.944  15.522
 3388SOL     OW12170   0.575   6.768   1.415
 3388SOL    HW112171   0.650   6.763   1.355
 3388SOL    HW212172   0.505   6.721 -20.709
 3389SOL     OW12173   6.110   4.645   9.401
 3389SOL    HW112174   6.172   4.664   9.472
 3389SOL    HW212175   6.042  15.631   9.442
 3390SOL     OW12176   5.160   9.636   7.505
 3390SOL    HW112177   5.083   9.603   7.458
 3390SOL    HW212178   5.203   9.558   7.539
 3391SOL     OW12179   0.667   0.748   6.420
 3391SOL    HW112180   0.762   0.744   6.421
 3391SOL    HW212181 -10.393  11.875   6.455
 3392SOL     OW12182   5.908   4.855   1.202
 3392SOL    HW112183 -16.226  26.981   1.138
 3392SOL    HW212184   5.850  -6.199   1.277
 3393SOL     OW12185   9.363  10.373   9.859
 3393SOL    HW112186 -12.766  10.311  -1.234
 3393SOL    HW212187   9.413  10.424   9.795
 3394SOL     OW12188   9.579   9.531   8.979
 3394SOL    HW112189   9.615   9.616   8.953
 3394SOL    HW212190   9.550 -12.588  -2.143
 3395SOL     OW12191  10.818   1.328   4.299
 3395SOL    HW112192  -0.258  12.417  26.304
 3395SOL    HW212193  10.848   1.395   4.361
 3396SOL     OW12194   6.460   9.882   8.945
 3396SOL    HW112195  -4.512   9.815   8.955
 3396SOL    HW212196   6.390   9.840   8.896
 3397SOL     OW12197   9.224   5.748  10.136
 3397SOL    HW112198  20.294  38.840  10.223
 3397SOL    HW212199  20.235  -5.372  10.094
 3398SOL     OW12200   0.768   8.515  -1.184
 3398SOL    HW112201 -10.232  -2.544   9.941
 3398SOL    HW212202   0.838   8.560   9.807
 3399SOL     OW12203   7.381   8.325   9.180
 3399SOL    HW112204   7.358   8.348   9.271
 3399SOL    HW212205  -3.730   8.270  42.269
 3400SOL     OW12206   5.204   9.881   7.671
 3400SOL    HW112207   5.178   9.800  29.707
 3400SOL    HW212208  16.338   9.886  18.697
 3401SOL     OW12209   5.809   7.937   3.788
 3401SOL    HW112210   5.725   7.982   3.782
 3401SOL    HW212211  -5.209   7.914  14.737
 3402SOL     OW12212   4.900  10.888   0.574
 3402SOL    HW112213   4.840  10.876   0.500
 3402SOL    HW212214   4.844  -0.119   0.645
 3403SOL     OW12215   8.772   9.032   9.174
 3403SOL    HW112216  19.820  19.998  20.152
 3403SOL    HW212217  30.760   9.059   9.166
 3404SOL     OW12218   6.698  11.650   8.666
 3404SOL    HW112219  17.740 -21.559   8.631
 3404SOL    HW212220   6.605  11.670   8.674
 3405SOL     OW12221   5.372   0.832   1.263
 3405SOL    HW112222  -5.673   0.834  12.207
 3405SOL    HW212223   5.342   0.919   1.290
 3406SOL     OW12224   1.579   7.485   5.679
 3406SOL    HW112225   1.603   7.530   5.598
 3406SOL    HW212226  12.590   7.398   5.651
 3407SOL     OW12227   1.506  13.120   1.381
 3407SOL    HW112228   1.526 -19.992   1.475
 3407SOL    HW212229   1.451  -9.037   1.373
 3408SOL     OW12230   1.225   6.495   3.719
 3408SOL    HW112231   1.134   6.475   3.740
 3408SOL    HW212232  -9.815  28.591  14.664
 3409SOL     OW12233   9.186   3.470   7.688
 3409SOL    HW112234  31.319   3.442   7.613
 3409SOL    HW212235   9.249   3.511   7.748
 3410SOL     OW12236   8.344   3.575   0.980
 3410SOL    HW112237  -2.717   3.524  34.021
 3410SOL    HW212238  -2.622   3.528   1.020
 3411SOL     OW12239   7.361   5.448  10.088
 3411SOL    HW112240   7.272   5.447  10.122
 3411SOL    HW212241   7.358   5.392  10.010
 3412SOL     OW12242   1.534   7.526   5.020
 3412SOL    HW112243   1.459   7.548  -6.075
 3412SOL    HW212244   1.582  18.648   5.030
 3413SOL     OW12245   2.550   9.050   4.675
 3413SOL    HW112246   2.631   9.023  26.797
 3413SOL    HW212247  -8.492   9.145   4.687
 3414SOL     OW12248   5.892  10.900   8.014
 3414SOL    HW112249 -16.151  21.911   8.098
 3414SOL    HW212250   5.825 -11.244   7.993
 3415SOL     OW12251   8.737  11.350   4.799
 3415SOL    HW112252  -2.334  11.435   4.832
 3415SOL    HW212253   8.831   0.312   4.814
 3416SOL     OW12254   2.738   6.393   5.508
 3416SOL    HW112255   2.664   6.379   5.567
 3416SOL    HW212256   2.722  28.558  -5.571
 3417SOL     OW12257   6.358   8.789  -0.610
 3417SOL    HW112258   6.414  -2.228  -0.684
 3417SOL    HW212259   6.371   8.695  21.481
 3418SOL     OW12260   5.169   6.885   0.241
 3418SOL    HW112261  -5.965   6.875   0.241
 3418SOL    HW212262   5.184   6.977   0.262
 3419SOL     OW12263   5.170   4.819   4.827
 3419SOL    HW112264  16.126   4.852  26.938
 3419SOL    HW212265  16.203   4.827   4.732
 3420SOL     OW12266   9.272   4.222   6.364
 3420SOL    HW112267   9.329   4.296   6.385
 3420SOL    HW212268   9.212  26.336   6.298
 3421SOL     OW12269   2.969   5.271   1.586
 3421SOL    HW112270  -8.117  16.302  34.622
 3421SOL    HW212271   2.941  -5.685  12.661
 3422SOL     OW12272   6.258   3.577  10.442
 3422SOL    HW112273   6.217  -7.387  10.401
 3422SOL    HW212274 -37.808 -18.495  10.418
 3423SOL     OW12275   7.521   4.244   9.596
 3423SOL    HW112276 -14.531   4.278  20.551
 3423SOL    HW212277   7.489  15.360   9.644
 3424SOL     OW12278  10.197   4.872   0.239
 3424SOL    HW112279  10.209 -28.162   0.281
 3424SOL    HW212280  10.267   4.867   0.174
 3425SOL     OW12281   7.117   7.980   3.950
 3425SOL    HW112282   7.134   8.074   3.952
 3425SOL    HW212283  18.182 -25.166   3.861
 3426SOL     OW12284  13.141  10.965   8.074
 3426SOL    HW112285 -19.954  -0.000   8.018
 3426SOL    HW212286   2.134  10.888 -25.092
 3427SOL     OW12287   4.557   4.765   7.087
 3427SOL    HW112288   4.592   4.677 -15.002
 3427SOL    HW212289   4.505   4.779   7.008
 3428SOL     OW12290   2.635   8.325   8.527
 3428SOL    HW112291   2.669   8.396 -13.498
 3428SOL    HW212292   2.573 -13.800  -2.457
 3429SOL     OW12293   5.638   1.965   1.776
 3429SOL    HW112294  16.697   2.016   1.698
 3429SOL    HW212295  38.696  24.099   1.826
 3430SOL     OW12296   2.677   6.588   6.621
 3430SOL    HW112297   2.649  17.718  50.794
 3430SOL    HW212298   2.773   6.591   6.627
 3431SOL     OW12299   2.123   3.957   3.637
 3431SOL    HW112300  13.245  15.021   3.680
 3431SOL    HW212301  13.175   3.982   3.546
 3432SOL     OW12302  10.374   1.623   6.828
 3432SOL    HW112303  -0.656   1.615  17.963
 3432SOL    HW212304  -0.699  -9.328   6.815
 3433SOL     OW12305   9.722   1.280   4.313
 3433SOL    HW112306  20.845  23.379 -17.723
 3433SOL    HW212307   9.686   1.365  26.367
 3434SOL     OW12308  10.362   1.971  -0.294
 3434SOL    HW112309  10.292   1.907  -0.299
 3434SOL    HW212310  21.365   2.042  10.798
 3435SOL     OW12311   5.140   8.373  10.054
 3435SOL    HW112312  -5.810  19.418  10.021
 3435SOL    HW212313   5.149   8.376  10.149
 3436SOL     OW12314   7.010   0.264   1.923
 3436SOL    HW112315  -3.980   0.227   1.850
 3436SOL    HW212316   6.928   0.215  24.002
 3437SOL     OW12317   0.657   6.501  11.202
 3437SOL    HW112318 -10.363   6.420 -10.830
 3437SOL    HW212319  11.701  17.608  11.269
 3438SOL     OW12320   0.306  11.498  11.905
 3438SOL    HW112321  11.329   0.384  11.848
 3438SOL    HW212322   0.241   0.524 -10.201
 3439SOL     OW12323   9.899  10.322   4.450
 3439SOL    HW112324   9.944 -11.748   4.366
 3439SOL    HW212325   9.834  10.254  26.514
 3440SOL     OW12326   7.492   7.540  -0.619
 3440SOL    HW112327  -3.532   7.452  10.388
 3440SOL    HW212328   7.399  -3.482  21.441
 3441SOL     OW12329  10.207   6.178   3.277
 3441SOL    HW112330  10.122  17.174   3.266
 3441SOL    HW212331  21.229   6.249   3.339
 3442SOL     OW12332   5.494   7.203   5.956
 3442SOL    HW112333  -5.561  -3.762  -5.141
 3442SOL    HW212334  16.628   7.190   5.954
 3443SOL     OW12335  -0.340  11.691   3.607
 3443SOL    HW112336  10.756 -21.447  25.611
 3443SOL    HW212337  -0.384  11.773  14.624
 3444SOL     OW12338   4.391   4.526   4.178
 3444SOL    HW112339   4.364   4.618   4.188
 3444SOL    HW212340   4.483  15.564   4.203
 3445SOL     OW12341   1.238   2.380   4.017
 3445SOL    HW112342   1.199   2.449   4.070
 3445SOL    HW212343  -9.759   2.425   3.945
 3446SOL     OW12344   9.744   0.418   4.225
 3446SOL    HW112345   9.804   0.469   4.280
 3446SOL    HW212346   9.757   0.453  15.177
 3447SOL     OW12347  12.671   4.899   7.125
 3447SOL    HW112348  12.718   4.928   7.203
 3447SOL    HW212349 -31.579   4.895   7.152
 3448SOL     OW12350   1.228   6.856  10.997
 3448SOL    HW112351  12.196  -4.121  10.989
 3448SOL    HW212352   1.200   6.796   0.026
 3449SOL     OW12353  11.603   7.105   0.281
 3449SOL    HW112354   0.643   7.056   0.299
 3449SOL    HW212355  11.602   7.174   0.347
 3450SOL     OW12356   1.366   1.753   4.464
 3450SOL    HW112357   1.394   1.819  -6.638
 3450SOL    HW212358   1.277   1.731   4.437
 3451SOL     OW12359   7.278   9.315   6.993
 3451SOL    HW112360  18.317   9.399   6.947
 3451SOL    HW212361   7.203  20.307  -4.083
 3452SOL     OW12362   8.190   1.039   7.509
 3452SOL    HW112363  -2.896   1.006  -3.454
 3452SOL    HW212364   8.280   1.010   7.521
 3453SOL     OW12365   7.690   7.598   1.575
 3453SOL    HW112366  -3.415  -3.472   1.513
 3453SOL    HW212367   7.651   7.676   1.616
 3454SOL     OW12368  10.455   6.529   7.116
 3454SOL    HW112369  10.542  28.635   7.088
 3454SOL    HW212370  10.402  17.648   7.115
 3455SOL     OW12371   2.070   4.047   7.120
 3455SOL    HW112372   2.112   4.045  -4.006
 3455SOL    HW212373   2.000  -7.058   7.114
 3456SOL     OW12374   3.249   5.000   0.722
 3456SOL    HW112375   3.290   5.078   0.760
 3456SOL    HW212376   3.158  27.105   0.706
 3457SOL     OW12377  -1.085   6.380   6.615
 3457SOL    HW112378   9.950   6.473 -15.442
 3457SOL    HW212379   9.863  -4.686   6.604
 3458SOL     OW12380   8.792   8.006  10.794
 3458SOL    HW112381   8.706 -14.030 -11.288
 3458SOL    HW212382   8.828   8.019 -11.373
 3459SOL     OW12383  11.194  -0.459   0.220
 3459SOL    HW112384  11.222  -0.372   0.193
 3459SOL    HW212385   0.074  10.595   0.270
 3460SOL     OW12386   3.533   8.616   9.351
 3460SOL    HW112387  36.618   8.663  -1.765
 3460SOL    HW212388   3.607   8.669   9.381
 3461SOL     OW12389   7.759   2.866   5.456
 3461SOL    HW112390   7.797   2.864   5.368
 3461SOL    HW212391   7.710  -8.092  -5.580
 3462SOL     OW12392   2.181   9.590   0.497
 3462SOL    HW112393   2.106   9.649   0.488
 3462SOL    HW212394  -8.874   9.522   0.431
 3463SOL     OW12395   7.956   0.293   7.925
 3463SOL    HW112396  19.060   0.336   7.869
 3463SOL    HW212397   7.951   0.203  18.932
 3464SOL     OW12398   2.239   7.585   5.485
 3464SOL    HW112399   2.225  18.575   5.565
 3464SOL    HW212400   2.304  -3.388   5.508
 3465SOL     OW12401   0.058  10.502   4.365
 3465SOL    HW112402   0.083  -0.500  -6.590
 3465SOL    HW212403  -0.037  10.513   4.360
 3466SOL     OW12404   5.428   2.594   6.661
 3466SOL    HW112405   5.344   2.597   6.615
 3466SOL    HW212406   5.475   2.671   6.629
 3467SOL     OW12407  -0.501   6.741   5.539
 3467SOL    HW112408  32.542   6.704   5.493
 3467SOL    HW212409  -0.433   6.675   5.530
 3468SOL     OW12410   3.450   1.529  -0.741
 3468SOL    HW112411   3.529   1.503  -0.789
 3468SOL    HW212412  25.468   1.556  21.270
 3469SOL     OW12413   4.946   6.918   1.195
 3469SOL    HW112414   4.882  17.915  -9.787
 3469SOL    HW212415   4.968   7.000  34.358
 3470SOL     OW12416   8.466  10.195  10.092
 3470SOL    HW112417   8.506  -0.908  10.033
 3470SOL    HW212418   8.539  -0.812  10.146
 3471SOL     OW12419   1.239   3.504   2.272
 3471SOL    HW112420   1.230 -40.587  -8.835
 3471SOL    HW212421   1.236   3.421  24.303
 3472SOL     OW12422   8.653   8.929   5.626
 3472SOL    HW112423   8.601   8.999   5.666
 3472SOL    HW212424   8.625   8.928   5.535
 3473SOL     OW12425   9.420   2.720   8.509
 3473SOL    HW112426   9.380 -19.436   8.468
 3473SOL    HW212427  20.387  -8.257   8.518
 3474SOL     OW12428   7.123   1.875  -1.061
 3474SOL    HW112429  40.198   1.809   9.925
 3474SOL    HW212430   7.187  12.955  20.960
 3475SOL     OW12431   0.383   1.201   1.534
 3475SOL    HW112432  11.375   1.209   1.451
 3475SOL    HW212433   0.400   1.292  23.639
 3476SOL     OW12434   7.299   4.218   3.473
 3476SOL    HW112435   7.215  -6.852   3.508
 3476SOL    HW212436   7.364   4.189   3.537
 3477SOL     OW12437   8.166   3.306   0.288
 3477SOL    HW112438   8.134   3.301   0.378
 3477SOL    HW212439   8.101   3.359   0.242
 3478SOL     OW12440   8.947   9.814   9.012
 3478SOL    HW112441  31.093   9.883   9.011
 3478SOL    HW212442   8.965   9.765   9.092
 3479SOL     OW12443   2.389   9.680   0.340
 3479SOL    HW112444   2.325   9.654  11.446
 3479SOL    HW212445  -8.677  -1.271   0.315
 3480SOL     OW12446   9.422  10.593  10.520
 3480SOL    HW112447   9.469  10.567 -22.678
 3480SOL    HW212448   9.437  -0.519  10.581
 3481SOL     OW12449   4.292   7.728  10.714
 3481SOL    HW112450  15.347   7.812  -0.369
 3481SOL    HW212451   4.372   7.713  -0.274
 3482SOL     OW12452   4.154   5.440   1.659
 3482SOL    HW112453   4.154  -5.650   1.740
 3482SOL    HW212454   4.224  -5.536   1.670
 3483SOL     OW12455   1.995   4.246   2.264
 3483SOL    HW112456   2.014  15.356  -8.714
 3483SOL    HW212457  24.068   4.168   2.320
 3484SOL     OW12458  10.573   5.534   1.262
 3484SOL    HW112459  10.583  27.638  12.209
 3484SOL    HW212460  10.606   5.610  12.350
 3485SOL     OW12461  -0.418   1.289  11.581
 3485SOL    HW112462  10.591  12.326   0.451
 3485SOL    HW212463  -0.448   1.373 -10.464
 3486SOL     OW12464   1.657   9.873   3.912
 3486SOL    HW112465  23.819   9.920  -7.127
 3486SOL    HW212466   1.667   9.808   3.842
 3487SOL     OW12467   5.494   5.661   4.752
 3487SOL    HW112468   5.505  -5.441   4.680
 3487SOL    HW212469 -16.513  -5.316   4.741
 3488SOL     OW12470  12.155   0.046   5.974
 3488SOL    HW112471   1.086  -0.015  39.160
 3488SOL    HW212472   1.197  11.122  28.088
 3489SOL     OW12473   0.049   3.511   0.508
 3489SOL    HW112474   0.040   3.592  11.496
 3489SOL    HW212475   0.142  47.649  33.623
 3490SOL     OW12476   8.990   3.366   6.432
 3490SOL    HW112477   9.011   3.459  39.553
 3490SOL    HW212478   9.037  14.372   6.356
 3491SOL     OW12479   6.439   6.277  -0.079
 3491SOL    HW112480   6.499   6.325  10.904
 3491SOL    HW212481   6.397   6.345  -0.026
 3492SOL     OW12482   2.440   7.243   4.778
 3492SOL    HW112483   2.497   7.317   4.794
 3492SOL    HW212484   2.415   7.213   4.866
 3493SOL     OW12485   8.620   8.041   1.876
 3493SOL    HW112486   8.686   7.978  23.927
 3493SOL    HW212487   8.638   8.056   1.968
 3494SOL     OW12488   5.663  10.202   3.192
 3494SOL    HW112489   5.666  10.161   3.278
 3494SOL    HW212490  16.696  10.296   3.211
 3495SOL     OW12491   8.417   1.874   0.535
 3495SOL    HW112492   8.395  -9.094   0.475
 3495SOL    HW212493   8.494   1.833   0.496
 3496SOL     OW12494   6.995   8.342   3.607
 3496SOL    HW112495   6.918   8.286  14.658
 3496SOL    HW212496  18.105   8.282  14.622
 3497SOL     OW12497   7.239   6.200   9.722
 3497SOL    HW112498  18.196  17.280   9.696
 3497SOL    HW212499   7.298  17.255   9.649
 3498SOL     OW12500   0.111   2.555   3.248
 3498SOL    HW112501  11.182   2.471  14.323
 3498SOL    HW212502   0.088   2.607  25.405
 3499SOL     OW12503   1.445   3.995   6.395
 3499SOL    HW112504   1.415   3.993   6.485
 3499SOL    HW212505   1.538  -7.022   6.400
 3500SOL     OW12506   9.394   3.636   5.575
 3500SOL    HW112507 -45.751   3.603   5.503
 3500SOL    HW212508   9.414   3.729   5.579
 3501SOL     OW12509  10.446  10.155   2.695
 3501SOL    HW112510  10.536  10.132  -8.367
 3501SOL    HW212511  -0.620  10.218   2.627
 3502SOL     OW12512   0.106   9.320   2.722
 3502SOL    HW112513   0.056  20.380   2.802
 3502SOL    HW212514   0.080  -1.809  13.739
 3503SOL     OW12515   6.303   3.452  10.896
 3503SOL    HW112516  -4.752   3.448  10.802
 3503SOL    HW212517   6.373   3.388  10.912
 3504SOL     OW12518   8.989   6.143   7.752
 3504SOL    HW112519  20.063   6.122   7.665
 3504SOL    HW212520 -13.014  -4.862   7.799
 3505SOL     OW12521  10.079   0.901   8.271
 3505SOL    HW112522 -11.912   0.926  19.341
 3505SOL    HW212523  10.054   0.828   8.328
 3506SOL     OW12524   8.738   9.635   5.656
 3506SOL    HW112525   8.769  20.760  27.764
 3506SOL    HW212526   8.804   9.573   5.689
 3507SOL     OW12527   4.794   5.820   3.650
 3507SOL    HW112528   4.864 -16.267  -7.324
 3507SOL    HW212529   4.730   5.879 -18.388
 3508SOL     OW12530   0.212   0.850   9.799
 3508SOL    HW112531   0.128   0.893   9.813
 3508SOL    HW212532  22.313   0.868   9.707
 3509SOL     OW12533   6.930   8.003  10.593
 3509SOL    HW112534   6.836   7.991  10.579
 3509SOL    HW212535  17.990   8.085  -0.491
 3510SOL     OW12536   4.603   2.441   9.137
 3510SOL    HW112537  -6.475   2.391   9.208
 3510SOL    HW212538   4.559   2.408   9.058
 3511SOL     OW12539   8.540   0.851   8.389
 3511SOL    HW112540   8.589   0.919   8.344
 3511SOL    HW212541 -24.518   0.777   8.393
 3512SOL     OW12542   6.743   2.769   1.391
 3512SOL    HW112543   6.658  13.768  -9.665
 3512SOL    HW212544  -4.270   2.805   1.307
 3513SOL     OW12545   3.113  -0.083   6.588
 3513SOL    HW112546   3.096  10.924   6.500
 3513SOL    HW212547   3.043  -0.020   6.605
 3514SOL     OW12548   4.461   9.715  11.029
 3514SOL    HW112549  15.487   9.807  11.005
 3514SOL    HW212550   4.524  20.758 -10.978
 3515SOL     OW12551   4.083   5.265  12.914
 3515SOL    HW112552   4.002  -5.723 -42.292
 3515SOL    HW212553  -6.986   5.174 -31.247
 3516SOL     OW12554  10.193   4.127   1.941
 3516SOL    HW112555 -11.849   4.185  23.953
 3516SOL    HW212556  10.121   4.082  12.936
 3517SOL     OW12557   6.493   2.952   6.688
 3517SOL    HW112558   6.566  14.033  -4.306
 3517SOL    HW212559   6.420  14.053   6.699
 3518SOL     OW12560   3.013   9.140   0.623
 3518SOL    HW112561   3.101 -12.920   0.654
 3518SOL    HW212562   2.963  20.160 -10.338
 3519SOL     OW12563  -1.259   0.940   3.598
 3519SOL    HW112564  31.814   0.896   3.670
 3519SOL    HW212565  -1.219   0.869  25.627
 3520SOL     OW12566   6.241   4.605   9.929
 3520SOL    HW112567   6.231  26.771   9.969
 3520SOL    HW212568  17.193   4.567   9.935
 3521SOL     OW12569   1.922   2.373   8.866
 3521SOL    HW112570  35.019  24.391   8.795
 3521SOL    HW212571   1.982   2.435   8.826
 3522SOL     OW12572   7.947   5.417   9.701
 3522SOL    HW112573   8.014  16.469  -1.271
 3522SOL    HW212574   7.993  16.412 -12.449
 3523SOL     OW12575  -0.674  10.119   8.779
 3523SOL    HW112576  21.342  10.181   8.744
 3523SOL    HW212577  -0.712  10.033  19.801
 3524SOL     OW12578   8.099   7.544   5.980
 3524SOL    HW112579   8.112   7.525   5.886
 3524SOL    HW212580   8.021   7.598  28.062
 3525SOL     OW12581  11.567  -0.231   9.130
 3525SOL    HW112582  11.542  -0.314  -1.871
 3525SOL    HW212583 -10.591  10.839   9.084
 3526SOL     OW12584   4.952   6.537   2.628
 3526SOL    HW112585  26.966   6.470   2.606
 3526SOL    HW212586  15.984   6.602   2.558
 3527SOL     OW12587   5.702   4.277   2.323
 3527SOL    HW112588   5.772  -6.719   2.275
 3527SOL    HW212589  -5.334   4.314  13.451
 3528SOL     OW12590   7.818   9.194   3.802
 3528SOL    HW112591   7.893   9.252 -29.315
 3528SOL    HW212592  -3.184 -12.973   3.795
 3529SOL     OW12593   5.773   9.385   8.564
 3529SOL    HW112594   5.853  -1.658   8.512
 3529SOL    HW212595 -27.349  42.419   8.609
 3530SOL     OW12596   2.322  10.561  10.284
 3530SOL    HW112597  -8.673  10.544  10.367
 3530SOL    HW212598   2.390  10.553  10.217
 3531SOL     OW12599   5.078   5.341   8.811
 3531SOL    HW112600  16.182   5.294   8.864
 3531SOL    HW212601   4.997   5.291   8.823
 3532SOL     OW12602  12.881   7.591   9.960
 3532SOL    HW112603  -9.164   7.580   9.871
 3532SOL    HW212604   1.872   7.513  10.006
 3533SOL     OW12605   1.332  -0.075   5.308
 3533SOL    HW112606  -9.622  -0.104   5.342
 3533SOL    HW212607   1.270  21.980   5.376
 3534SOL     OW12608   5.298   3.752   4.846
 3534SOL    HW112609  -5.812   3.726  15.944
 3534SOL    HW212610   5.317   3.673   4.795
 3535SOL     OW12611   4.400  10.170   8.848
 3535SOL    HW112612   4.386  10.096   8.789
 3535SOL    HW212613   4.340  21.277   8.816
 3536SOL     OW12614   3.722   4.841  11.537
 3536SOL    HW112615   3.671   4.817  11.459
 3536SOL    HW212616  14.715   4.915   0.535
 3537SOL     OW12617   5.876  11.164   9.448
 3537SOL    HW112618  27.962 -10.845   9.514
 3537SOL    HW212619  27.984  11.205  -1.673
 3538SOL     OW12620   9.400   0.101   0.187
 3538SOL    HW112621   9.313   0.116   0.151
 3538SOL    HW212622   9.422  22.263  11.270
 3539SOL     OW12623   7.666  10.581   7.332
 3539SOL    HW112624  18.650  10.651   7.366
 3539SOL    HW212625   7.754  10.619  -3.707
 3540SOL     OW12626   9.302   3.555  10.859
 3540SOL    HW112627   9.234  -7.550  10.845
 3540SOL    HW212628  20.293   3.634  10.886
 3541SOL     OW12629   1.804   7.773   3.814
 3541SOL    HW112630   1.821   7.867  14.844
 3541SOL    HW212631   1.848  -3.292   3.894
 3542SOL     OW12632   9.296   6.458   7.239
 3542SOL    HW112633   9.378   6.414   7.216
 3542SOL    HW212634   9.229   6.412  18.228
 3543SOL     OW12635   0.376   5.124  10.931
 3543SOL    HW112636  22.483   5.149  11.019
 3543SOL    HW212637  11.329   5.084  10.944
 3544SOL     OW12638   3.156   2.777   7.669
 3544SOL    HW112639   3.209  -8.340   7.690
 3544SOL    HW212640 -18.955 -30.359 -14.499
 3545SOL     OW12641   5.884   1.890  -0.194
 3545SOL    HW112642   5.874   1.919  10.755
 3545SOL    HW212643   5.952   1.947  -0.158
 3546SOL     OW12644   5.094   9.768   3.597
 3546SOL    HW112645   5.115  20.853   3.679
 3546SOL    HW212646   5.068   9.680   3.624
 3547SOL     OW12647   8.413  10.129  11.716
 3547SOL    HW112648  19.402  10.051 -10.390
 3547SOL    HW212649   8.504  10.105  11.698
 3548SOL     OW12650   2.121   4.663   7.237
 3548SOL    HW112651   2.195   4.615   7.200
 3548SOL    HW212652  -8.971 -28.523   7.280
 3549SOL     OW12653   7.094   2.771  12.786
 3549SOL    HW112654  18.042   2.749  12.770
 3549SOL    HW212655  18.150  -8.190 -20.385
 3550SOL     OW12656   0.342   8.521   2.534
 3550SOL    HW112657  11.291  -2.533  24.585
 3550SOL    HW212658   0.392   8.522   2.452
 3551SOL     OW12659   0.378   4.985   5.334
 3551SOL    HW112660   0.364 -17.177  16.329
 3551SOL    HW212661   0.461   4.973   5.381
 3552SOL     OW12662   4.792   2.137   0.242
 3552SOL    HW112663   4.714  -8.958   0.234
 3552SOL    HW212664  15.878 -19.955   0.159
 3553SOL     OW12665   7.416   2.711  -0.589
 3553SOL    HW112666   7.472   2.735  21.416
 3553SOL    HW212667   7.376   2.794  -0.562
 3554SOL     OW12668   9.823   0.156   9.919
 3554SOL    HW112669   9.913   0.187  -1.116
 3554SOL    HW212670  -1.246   0.155 -23.109
 3555SOL     OW12671   9.552   4.691   6.677
 3555SOL    HW112672  31.598  -6.316   6.594
 3555SOL    HW212673   9.523   4.756   6.741
 3556SOL     OW12674   0.919   6.468   2.859
 3556SOL    HW112675   0.897  -4.491  13.945
 3556SOL    HW212676  23.017   6.496 -19.309
 3557SOL     OW12677   6.279   1.503   0.249
 3557SOL    HW112678   6.320   1.477   0.166
 3557SOL    HW212679   6.194   1.540  11.263
 3558SOL     OW12680   6.494  10.387   4.503
 3558SOL    HW112681 -15.536  10.462   4.534
 3558SOL    HW212682   6.405  10.402   4.535
 3559SOL     OW12683   8.441   4.474   7.689
 3559SOL    HW112684   8.368  15.543   7.744
 3559SOL    HW212685 -13.564  26.607   7.718
 3560SOL     OW12686   1.314  11.078   7.389
 3560SOL    HW112687  -9.717  11.126  18.346
 3560SOL    HW212688   1.253 -10.948   7.440
 3561SOL     OW12689   3.937   2.726   4.129
 3561SOL    HW112690   4.027  -8.344   4.144
 3561SOL    HW212691   3.945  13.861  15.165
 3562SOL     OW12692   7.718   2.516   9.642
 3562SOL    HW112693   7.744   2.573  -1.470
 3562SOL    HW212694   7.689  -8.605   9.600
 3563SOL     OW12695   7.511   7.710   1.932
 3563SOL    HW112696   7.430   7.661  12.956
 3563SOL    HW212697  40.605   7.801   1.919
 3564SOL     OW12698   4.717  11.051   1.867
 3564SOL    HW112699   4.794  -0.026   1.825
 3564SOL    HW212700  -6.310  11.145  34.983
 3565SOL     OW12701   1.753   5.780   8.421
 3565SOL    HW112702   1.752   5.833   8.341
 3565SOL    HW212703   1.727   5.841   8.490
 3566SOL     OW12704   5.601   5.736   6.589
 3566SOL    HW112705   5.563   5.796   6.653
 3566SOL    HW212706   5.666 -16.393   6.639
 3567SOL     OW12707   1.851  11.127   7.816
 3567SOL    HW112708  12.894   0.106   7.722
 3567SOL    HW212709   1.941  11.136   7.846
 3568SOL     OW12710   3.374   5.755   7.384
 3568SOL    HW112711   3.424  49.916   7.466
 3568SOL    HW212712   3.287   5.787  -3.631
 3569SOL     OW12713   9.791   6.709   0.387
 3569SOL    HW112714   9.721   6.695   0.451
 3569SOL    HW212715   9.839  -4.413  33.504
 3570SOL     OW12716   5.274   0.982   4.337
 3570SOL    HW112717   5.220   1.061   4.336
 3570SOL    HW212718   5.276   0.954   4.245
 3571SOL     OW12719   5.045   4.226   1.362
 3571SOL    HW112720  16.107   4.244   1.453
 3571SOL    HW212721 -17.080   4.305   1.333
 3572SOL     OW12722   8.129   5.048   0.719
 3572SOL    HW112723 -24.902   5.038   0.681
 3572SOL    HW212724   8.108  27.040  11.794
 3573SOL     OW12725   0.870   0.195   4.764
 3573SOL    HW112726   0.901   0.278   4.726
 3573SOL    HW212727 -10.092   0.140  -6.273
 3574SOL     OW12728   7.016   1.790   1.795
 3574SOL    HW112729   7.070   1.712  -9.260
 3574SOL    HW212730   7.076   1.855   1.830
 3575SOL     OW12731   7.513   6.349   2.432
 3575SOL    HW112732  18.514   6.268  -8.574
 3575SOL    HW212733  -3.491   6.393  -8.531
 3576SOL     OW12734   2.471   4.216   8.809
 3576SOL    HW112735   2.517   4.253   8.734
 3576SOL    HW212736   2.415   4.148   8.773
 3577SOL     OW12737   3.303   2.127   2.570
 3577SOL    HW112738   3.276   2.055   2.513
 3577SOL    HW212739   3.315   2.086   2.656
 3578SOL     OW12740   5.036   8.170   9.710
 3578SOL    HW112741   4.996  -2.783   9.716
 3578SOL    HW212742   5.120   8.185   9.668
 3579SOL     OW12743   7.184   2.007   2.832
 3579SOL    HW112744   7.188   2.038  24.821
 3579SOL    HW212745  -3.765   2.009   2.863
 3580SOL     OW12746   4.686   9.255   8.958
 3580SOL    HW112747  15.668   9.248   9.033
 3580SOL    HW212748  15.689   9.194   8.893
 3581SOL     OW12749   0.783   6.275   0.748
 3581SOL    HW112750   0.784   6.349   0.687
 3581SOL    HW212751 -10.284   6.201  11.734
 3582SOL     OW12752   8.493   7.361  10.220
 3582SOL    HW112753   8.568 -14.668  10.189
 3582SOL    HW212754   8.507 -14.729  10.314
 3583SOL     OW12755   8.607  10.071   2.933
 3583SOL    HW112756  -2.349  -0.985   2.976
 3583SOL    HW212757   8.611  10.163   2.907
 3584SOL     OW12758   3.369   1.093   1.682
 3584SOL    HW112759   3.462  12.112   1.692
 3584SOL    HW212760   3.338   1.108   1.771
 3585SOL     OW12761   2.683   6.603  10.578
 3585SOL    HW112762   2.673   6.531 -44.558
 3585SOL    HW212763   2.623   6.671 -22.509
 3586SOL     OW12764   4.037   0.981   3.449
 3586SOL    HW112765   3.982 -10.131   3.419
 3586SOL    HW212766   4.000   1.006   3.534
 3587SOL     OW12767  10.479   5.003   8.180
 3587SOL    HW112768  10.557  -6.012  19.169
 3587SOL    HW212769  10.513   4.951  -2.787
 3588SOL     OW12770   5.880   0.346   6.140
 3588SOL    HW112771   5.884   0.296   6.221
 3588SOL    HW212772   5.970   0.343   6.106
 3589SOL     OW12773  13.819   5.685   2.276
 3589SOL    HW112774 -19.364   5.685  24.285
 3589SOL    HW212775  -8.299   5.631   2.345
 3590SOL     OW12776   2.325   0.629   2.611
 3590SOL    HW112777  -8.746   0.719  -8.423
 3590SOL    HW212778   2.383  11.659   2.686
 3591SOL     OW12779   3.040   6.417   8.880
 3591SOL    HW112780  25.206   6.455   8.893
 3591SOL    HW212781  25.063   6.464   8.942
 3592SOL     OW12782   5.055  -0.931   3.133
 3592SOL    HW112783   5.049  -0.928  -8.002
 3592SOL    HW212784   5.125  32.124   3.151
 3593SOL     OW12785   3.153   9.830   7.275
 3593SOL    HW112786   3.230   9.872 -14.842
 3593SOL    HW212787   3.103   9.798  18.239
 3594SOL     OW12788  10.097   3.273  10.195
 3594SOL    HW112789  -0.886   3.199  21.257
 3594SOL    HW212790  10.087   3.268  10.101
 3595SOL     OW12791  10.376   6.444   8.335
 3595SOL    HW112792  10.413   6.532   8.329
 3595SOL    HW212793  10.413   6.408   8.415
 3596SOL     OW12794   8.634  10.845   0.779
 3596SOL    HW112795   8.584  -0.160   0.852
 3596SOL    HW212796  -2.321  10.820  11.857
 3597SOL     OW12797   7.719   5.959   3.566
 3597SOL    HW112798 -14.449  -5.113   3.552
 3597SOL    HW212799  -3.273   5.885  14.643
 3598SOL     OW12800   7.232   5.917   4.949
 3598SOL    HW112801  29.323  -5.059   4.879
 3598SOL    HW212802  18.296   5.964  16.068
 3599SOL     OW12803   9.627   4.791   0.741
 3599SOL    HW112804   9.539   4.771  11.748
 3599SOL    HW212805  20.689 -17.205 -10.339
 3600SOL     OW12806   3.045   1.255   1.268
 3600SOL    HW112807  14.076   1.348   1.289
 3600SOL    HW212808   3.087   1.253   1.182
 3601SOL     OW12809   3.237   2.578   2.490
 3601SOL    HW112810  -7.760   2.493   2.478
 3601SOL    HW212811   3.198  -8.442  13.445
 3602SOL     OW12812   0.586   4.539  10.067
 3602SOL    HW112813   0.561   4.456  10.107
 3602SOL    HW212814   0.593   4.518   9.974
 3603SOL     OW12815   6.116  10.753   5.418
 3603SOL    HW112816   6.121 -22.278   5.456
 3603SOL    HW212817   6.024  10.744   5.392
 3604SOL     OW12818  12.223   3.859   8.124
 3604SOL    HW112819 -31.851  14.898   8.079
 3604SOL    HW212820 -20.943   3.932   8.085
 3605SOL     OW12821   0.933   0.631   1.675
 3605SOL    HW112822   0.934  22.709   1.771
 3605SOL    HW212823   0.878   0.556  12.691
 3606SOL     OW12824   6.070  10.792   2.406
 3606SOL    HW112825   6.020  10.741  -8.569
 3606SOL    HW212826  -4.970  10.737  -8.712
 3607SOL     OW12827   0.105   0.673   7.154
 3607SOL    HW112828  11.082   0.639   7.218
 3607SOL    HW212829   0.101  11.650  -3.958
 3608SOL     OW12830   3.413   5.578   7.177
 3608SOL    HW112831   3.376   5.645   7.236
 3608SOL    HW212832 -18.714   5.498   7.198
 3609SOL     OW12833   1.111   9.583   5.760
 3609SOL    HW112834   1.181   9.632  -5.236
 3609SOL    HW212835  23.148  31.614  -5.209
 3610SOL     OW12836   3.448   3.276   6.773
 3610SOL    HW112837  14.580  25.333  -4.254
 3610SOL    HW212838   3.441  14.334   6.679
 3611SOL     OW12839   6.347   4.891   2.851
 3611SOL    HW112840   6.356   4.978   2.813
 3611SOL    HW212841   6.435   4.868   2.881
 3612SOL     OW12842  11.446   8.378   9.840
 3612SOL    HW112843 -21.734   8.332  20.822
 3612SOL    HW212844   0.380   8.350   9.928
 3613SOL     OW12845   7.467   6.236   1.820
 3613SOL    HW112846   7.419   6.310   1.858
 3613SOL    HW212847 -25.599   6.203   1.893
 3614SOL     OW12848   1.663   6.526   7.665
 3614SOL    HW112849   1.626   6.438   7.679
 3614SOL    HW212850   1.747  17.549  18.660
 3615SOL     OW12851  10.596   8.334   2.206
 3615SOL    HW112852  10.510   8.312   2.169
 3615SOL    HW212853  10.618   8.260   2.261
 3616SOL     OW12854  10.950   5.615   8.878
 3616SOL    HW112855   0.003  -5.409 -13.184
 3616SOL    HW212856  21.972   5.664   8.797
 3617SOL     OW12857   1.316  11.141   5.584
 3617SOL    HW112858  12.337   0.184   5.540
 3617SOL    HW212859   1.238  11.087   5.569
 3618SOL     OW12860   4.409   0.504  11.135
 3618SOL    HW112861  26.495   0.573  11.201
 3618SOL    HW212862   4.370  22.626   0.019
 3619SOL     OW12863   9.890   6.278   2.161
 3619SOL    HW112864   9.837   6.204 -19.947
 3619SOL    HW212865  -1.139   6.332   2.082
 3620SOL     OW12866   5.675  -0.637   3.671
 3620SOL    HW112867   5.593  10.426   3.627
 3620SOL    HW212868   5.647  10.346   3.744
 3621SOL     OW12869   2.908   3.672   5.308
 3621SOL    HW112870   2.919   3.687   5.402
 3621SOL    HW212871   2.937   3.754   5.267
 3622SOL     OW12872   2.274   4.989   0.097
 3622SOL    HW112873   2.302  16.120   0.092
 3622SOL    HW212874 -19.747   4.949   0.162
 3623SOL     OW12875   7.708   2.586   5.513
 3623SOL    HW112876   7.764  -8.467   5.589
 3623SOL    HW212877  -3.336   2.681   5.503
 3624SOL     OW12878   2.442   7.955   4.632
 3624SOL    HW112879   2.466   7.972  -6.498
 3624SOL    HW212880   2.414   7.864  -6.406
 3625SOL     OW12881   4.729   6.303   1.976
 3625SOL    HW112882   4.746   6.348   2.059
 3625SOL    HW212883  -6.234   6.320   1.923
 3626SOL     OW12884   1.577   2.355   2.761
 3626SOL    HW112885   1.602  13.328  -8.343
 3626SOL    HW212886  23.714   2.428 -30.376
 3627SOL     OW12887   3.617   0.867   2.558
 3627SOL    HW112888   3.655  22.997  -8.410
 3627SOL    HW212889   3.661   0.900   2.479
 3628SOL     OW12890   6.814   3.970   8.895
 3628SOL    HW112891   6.747   4.015  19.987
 3628SOL    HW212892  -4.152   4.032  19.931
 3629SOL     OW12893  -0.910  10.319   6.759
 3629SOL    HW112894  10.103  10.407  17.828
 3629SOL    HW212895  10.183 -11.744  -4.359
 3630SOL     OW12896   2.101   6.249   0.632
 3630SOL    HW112897   2.111  50.367  11.585
 3630SOL    HW212898  -8.881   6.326   0.629
 3631SOL     OW12899   0.447   5.613  10.384
 3631SOL    HW112900   0.354  16.644  -0.634
 3631SOL    HW212901   0.460  27.632  10.311
 3632SOL     OW12902   0.163   9.971   3.873
 3632SOL    HW112903   0.166  10.019  14.829
 3632SOL    HW212904   0.083  10.003   3.916
 3633SOL     OW12905   4.928   7.638   4.004
 3633SOL    HW112906   4.874   7.560   3.995
 3633SOL    HW212907   4.875   7.708   3.967
 3634SOL     OW12908   9.434  10.014   6.621
 3634SOL    HW112909   9.395   9.937   6.580
 3634SOL    HW212910   9.367  10.046   6.681
 3635SOL     OW12911  12.591   2.930   3.583
 3635SOL    HW112912   1.484   2.917   3.516
 3635SOL    HW212913 -20.557  13.918   3.657
 3636SOL     OW12914   8.815  10.159   9.651
 3636SOL    HW112915  30.812  10.205   9.667
 3636SOL    HW212916   8.790  10.068   9.638
 3637SOL     OW12917  -0.933  10.064   7.323
 3637SOL    HW112918  21.236  10.032   7.315
 3637SOL    HW212919  -0.974  10.005   7.386
 3638SOL     OW12920   0.035   8.916   0.147
 3638SOL    HW112921   0.008   8.982   0.211
 3638SOL    HW212922  22.167   8.965   0.084
 3639SOL     OW12923   7.290   8.092   1.811
 3639SOL    HW112924  18.353   8.125   1.724
 3639SOL    HW212925   7.254   8.169   1.856
 3640SOL     OW12926   6.213   3.342   6.872
 3640SOL    HW112927  -4.877   3.417  17.881
 3640SOL    HW212928 -15.792   3.380   6.919
 3641SOL     OW12929   3.380   5.858   1.025
 3641SOL    HW112930  14.451   5.916  23.034
 3641SOL    HW212931   3.439   5.875   1.098
 3642SOL     OW12932   3.746   5.349   1.420
 3642SOL    HW112933  -7.233  16.458  12.484
 3642SOL    HW212934   3.761  27.415  -9.713
 3643SOL     OW12935   5.729   8.626   9.036
 3643SOL    HW112936   5.662   8.624 -12.975
 3643SOL    HW212937   5.691   8.577 -13.116
 3644SOL     OW12938   4.621   3.238   0.341
 3644SOL    HW112939   4.561   3.216   0.270
 3644SOL    HW212940   4.588   3.188  22.495
 3645SOL     OW12941  -2.639   3.241   1.756
 3645SOL    HW112942  41.590  14.307   1.815
 3645SOL    HW212943  19.360   3.271  12.839
 3646SOL     OW12944   1.373   2.218   5.786
 3646SOL    HW112945   1.283   2.234  16.855
 3646SOL    HW212946   1.386   2.279   5.714
 3647SOL     OW12947   4.054   7.499   3.869
 3647SOL    HW112948   4.029   7.445   3.944
 3647SOL    HW212949   4.105   7.440   3.813
 3648SOL     OW12950   9.235   6.866   1.557
 3648SOL    HW112951   9.187   6.933   1.509
 3648SOL    HW212952  -1.785   6.799  12.530
 3649SOL     OW12953   4.166   4.161   1.400
 3649SOL    HW112954  -6.894   4.218  34.592
 3649SOL    HW212955  -6.915  -6.962   1.422
 3650SOL     OW12956   4.372   3.811   2.984
 3650SOL    HW112957   4.420   3.732  -8.082
 3650SOL    HW212958   4.287   3.803   2.941
 3651SOL     OW12959   7.038   6.981  10.049
 3651SOL    HW112960  18.137   7.053  10.030
 3651SOL    HW212961  -3.971   6.945  10.132
 3652SOL     OW12962   5.640   3.302   0.055
 3652SOL    HW112963 -16.423   3.396   0.051
 3652SOL    HW212964   5.561   3.288   0.002
 3653SOL     OW12965   1.422   6.277  10.579
 3653SOL    HW112966   1.445   6.332  -0.385
 3653SOL    HW212967   1.458   6.191  -0.438
 3654SOL     OW12968   1.009   3.870   3.012
 3654SOL    HW112969 -10.105   3.884   2.953
 3654SOL    HW212970   1.078   3.926   2.977
 3655SOL     OW12971   0.814   3.841   1.535
 3655SOL    HW112972 -10.276  25.852   1.491
 3655SOL    HW212973   0.859  37.006   1.464
 3656SOL     OW12974  -3.179   3.547  -0.196
 3656SOL    HW112975  29.918  -7.584  10.862
 3656SOL    HW212976  29.970   3.547  -0.287
 3657SOL     OW12977   1.589   7.339   4.255
 3657SOL    HW112978   1.681  18.391   4.231
 3657SOL    HW212979  12.607   7.418   4.305
 3658SOL     OW12980  -0.604   8.431   6.565
 3658SOL    HW112981  21.475   8.451   6.471
 3658SOL    HW212982  -0.513 -13.637  28.671
 3659SOL     OW12983   2.615  10.961   0.508
 3659SOL    HW112984   2.646  10.903   0.438
 3659SOL    HW212985  -8.429  11.047   0.467
 3660SOL     OW12986  -0.003   3.985   6.131
 3660SOL    HW112987   0.003   3.891 -38.009
 3660SOL    HW212988   0.081   4.021 -49.038
 3661SOL     OW12989   6.526   9.171   3.882
 3661SOL    HW112990   6.501   9.145   3.971
 3661SOL    HW212991   6.618   9.146  14.915
 3662SOL     OW12992   3.559  10.078   2.636
 3662SOL    HW112993   3.470  10.091   2.667
 3662SOL    HW212994  25.629  21.102   2.542
 3663SOL     OW12995  -0.606  10.737   5.046
 3663SOL    HW112996  -0.621  10.647   5.077
 3663SOL    HW212997  10.346  10.771   5.029
 3664SOL     OW12998  -1.527   6.848   6.274
 3664SOL    HW112999   9.593  17.863   6.320
 3664SOL    HW213000  20.583   6.890   6.194
 3665SOL     OW13001   9.716  10.810   8.010
 3665SOL    HW113002   9.766  -0.246   7.931
 3665SOL    HW213003  20.818  10.797   8.082
 3666SOL     OW13004   8.604   8.795   0.670
 3666SOL    HW113005   8.590   8.890   0.677
 3666SOL    HW213006   8.684  19.818   0.721
 3667SOL     OW13007   2.811   6.369   3.974
 3667SOL    HW113008  35.948   6.349  -6.974
 3667SOL    HW213009   2.897  17.407  -7.108
 3668SOL     OW13010   6.955   9.266  10.790
 3668SOL    HW113011   6.893  31.403  10.836
 3668SOL    HW213012   7.041   9.299 -22.303
 3669SOL     OW13013   3.995   3.640   6.240
 3669SOL    HW113014   4.048  25.642   6.261
 3669SOL    HW213015   3.905   3.613 -26.861
 3670SOL     OW13016   1.609   7.248   0.927
 3670SOL    HW113017   1.543   7.289   0.871
 3670SOL    HW213018   1.651  40.439   0.973
 3671SOL     OW13019  10.831   9.403  10.686
 3671SOL    HW113020  10.782  20.363  10.704
 3671SOL    HW213021  10.771   9.456  -0.407
 3672SOL     OW13022   0.574   6.711   9.987
 3672SOL    HW113023  22.661   6.741   9.897
 3672SOL    HW213024  11.616  17.831  21.079
 3673SOL     OW13025   5.104  10.822   9.776
 3673SOL    HW113026  -5.851  10.793   9.742
 3673SOL    HW213027   5.121  10.908   9.813
 3674SOL     OW13028   7.479   1.832   7.394
 3674SOL    HW113029  18.427   1.807   7.407
 3674SOL    HW213030   7.529  -9.286   7.414
 3675SOL     OW13031   5.868   8.485   6.543
 3675SOL    HW113032   5.779   8.520  28.623
 3675SOL    HW213033   5.904  -2.530   6.628
 3676SOL     OW13034   9.542   1.276   6.060
 3676SOL    HW113035   9.571   1.330   5.986
 3676SOL    HW213036   9.565   1.327   6.137
 3677SOL     OW13037   7.825   2.837   4.507
 3677SOL    HW113038  29.886   2.895  -6.458
 3677SOL    HW213039   7.742   2.835   4.458
 3678SOL     OW13040   0.858   7.509  10.693
 3678SOL    HW113041 -10.162   7.519  -0.440
 3678SOL    HW213042   0.818   7.422  10.700
 3679SOL     OW13043   3.592   4.967   9.710
 3679SOL    HW113044   3.518   5.015 -23.445
 3679SOL    HW213045  -7.403   4.930   9.634
 3680SOL     OW13046  10.864   2.590   5.679
 3680SOL    HW113047 -11.204   2.501 -16.433
 3680SOL    HW213048 -11.221  -8.460   5.774
 3681SOL     OW13049   6.894   9.095  10.321
 3681SOL    HW113050  17.938  -1.854  10.351
 3681SOL    HW213051  29.024   9.045  10.385
 3682SOL     OW13052   8.577   5.478   6.074
 3682SOL    HW113053   8.644  16.482  28.095
 3682SOL    HW213054  19.612   5.571  28.129
 3683SOL     OW13055  12.590   7.648   9.585
 3683SOL    HW113056 -31.594  29.735   9.676
 3683SOL    HW213057  12.517   7.602  -1.497
 3684SOL     OW13058   6.172   7.015   3.023
 3684SOL    HW113059   6.224  -4.104   3.012
 3684SOL    HW213060   6.188 -26.053   2.943
 3685SOL     OW13061   1.989   7.716   4.038
 3685SOL    HW113062   1.938   7.780   4.088
 3685SOL    HW213063   2.080  18.773   4.064
 3686SOL     OW13064   1.929  10.724   5.180
 3686SOL    HW113065   1.874  10.683   5.247
 3686SOL    HW213066   1.970  10.798   5.225
 3687SOL     OW13067   9.303   1.568   9.414
 3687SOL    HW113068  -1.752   1.529  -1.711
 3687SOL    HW213069   9.367  -9.530   9.456
 3688SOL     OW13070   0.713  10.367   7.391
 3688SOL    HW113071  11.804  10.318   7.455
 3688SOL    HW213072   0.761  10.358  -3.731
 3689SOL     OW13073   3.693   8.033   4.474
 3689SOL    HW113074 -18.372  18.986   4.513
 3689SOL    HW213075   3.779   8.059  26.520
 3690SOL     OW13076  10.271   2.563   5.308
 3690SOL    HW113077  10.223  24.563  -5.707
 3690SOL    HW213078  10.271  35.681   5.212
 3691SOL     OW13079   9.564   6.164   2.297
 3691SOL    HW113080   9.586   6.144   2.206
 3691SOL    HW213081   9.468   6.172   2.297
 3692SOL     OW13082   5.074   0.733   4.668
 3692SOL    HW113083   5.099 -10.261   4.587
 3692SOL    HW213084   4.983   0.706 -17.427
 3693SOL     OW13085   8.928   7.679   9.150
 3693SOL    HW113086   8.970   7.612   9.096
 3693SOL    HW213087  20.030 -14.327  -1.888
 3694SOL     OW13088   7.622   2.190   7.434
 3694SOL    HW113089   7.577  -8.769   7.409
 3694SOL    HW213090   7.637   2.198   7.528
 3695SOL     OW13091  11.616   4.186   9.711
 3695SOL    HW113092   0.578  -6.885 -12.459
 3695SOL    HW213093  11.642   4.278 -23.414
 3696SOL     OW13094   8.836   8.564  10.412
 3696SOL    HW113095  -2.298   8.554  10.416
 3696SOL    HW213096  -2.169   8.494  10.469
 3697SOL     OW13097   2.164   3.654   6.697
 3697SOL    HW113098  24.193   3.715   6.643
 3697SOL    HW213099   2.109 -18.504   6.701
 3698SOL     OW13100   9.629  -1.537   0.222
 3698SOL    HW113101  20.723  31.619   0.291
 3698SOL    HW213102  20.707  -1.504   0.141
 3699SOL     OW13103   4.170   2.455   1.380
 3699SOL    HW113104   4.151   2.549   1.385
 3699SOL    HW213105  15.250 -19.645  12.504
 3700SOL     OW13106   1.539   1.132   4.454
 3700SOL    HW113107  12.556  12.264  15.505
 3700SOL    HW213108   1.585   1.129   4.371
 3701SOL     OW13109   8.762   1.232   9.959
 3701SOL    HW113110  -2.218  -9.759   9.901
 3701SOL    HW213111  19.738   1.191  20.939
 3702SOL     OW13112   6.724   3.867   2.282
 3702SOL    HW113113   6.663  -7.205 -19.864
 3702SOL    HW213114   6.702  37.078   2.291
 3703SOL     OW13115   6.283   1.366   1.853
 3703SOL    HW113116  -4.767   1.275   1.825
 3703SOL    HW213117   6.284   1.362   1.949
 3704SOL     OW13118   9.117   6.616  11.179
 3704SOL    HW113119   9.134 -15.547   0.182
 3704SOL    HW213120   9.152   6.605   0.051
 3705SOL     OW13121   2.361  10.026   7.184
 3705SOL    HW113122   2.420  10.009  18.150
 3705SOL    HW213123   2.401   9.980  18.297
 3706SOL     OW13124   2.168   0.458   3.716
 3706SOL    HW113125   2.151   0.397 -29.474
 3706SOL    HW213126  13.259   0.408  14.819
 3707SOL     OW13127   5.612   8.979   9.705
 3707SOL    HW113128   5.656  -2.125  20.690
 3707SOL    HW213129   5.525   8.988   9.667
 3708SOL     OW13130   3.303   6.759   1.878
 3708SOL    HW113131 -29.793   6.666   1.885
 3708SOL    HW213132   3.375   6.805   1.920
 3709SOL     OW13133   8.502   0.755   1.417
 3709SOL    HW113134   8.486   0.770   1.510
 3709SOL    HW213135  19.600   0.680   1.414
 3710SOL     OW13136   9.569   0.632   9.044
 3710SOL    HW113137  20.633   0.543 -13.008
 3710SOL    HW213138   9.513  11.703   9.115
 3711SOL     OW13139   8.050   4.065  10.561
 3711SOL    HW113140   7.977   4.014 -11.555
 3711SOL    HW213141   8.121   4.054 -11.582
 3712SOL     OW13142   1.111   6.784  10.318
 3712SOL    HW113143  23.121  17.763  10.346
 3712SOL    HW213144  12.203  17.838  10.397
 3713SOL     OW13145   9.437   0.635   4.721
 3713SOL    HW113146   9.419   0.651   4.628
 3713SOL    HW213147 -12.704   0.692  15.806
 3714SOL     OW13148   3.973  -0.488   9.070
 3714SOL    HW113149   3.977  -0.394   9.050
 3714SOL    HW213150   4.005  10.545   9.160
 3715SOL     OW13151   6.701   7.806   2.414
 3715SOL    HW113152   6.738   7.789  13.540
 3715SOL    HW213153   6.777   7.823   2.358
 3716SOL     OW13154   9.204  10.735   0.198
 3716SOL    HW113155  -1.898  10.685   0.251
 3716SOL    HW213156   9.272  10.671   0.175
 3717SOL     OW13157  -0.693  10.413   6.168
 3717SOL    HW113158  21.307  21.470   6.117
 3717SOL    HW213159  43.438  10.352   6.236
 3718SOL     OW13160   8.963  11.037   8.911
 3718SOL    HW113161   8.986  22.034   8.828
 3718SOL    HW213162   9.014   0.078   8.912
 3719SOL     OW13163   7.319   8.704   3.455
 3719SOL    HW113164   7.387   8.642  25.509
 3719SOL    HW213165  -3.750   8.744  14.413
 3720SOL     OW13166   4.206  13.232   8.632
 3720SOL    HW113167   4.157 -19.832   8.694
 3720SOL    HW213168   4.296  -8.844   8.663
 3721SOL     OW13169   2.614   7.888   3.978
 3721SOL    HW113170   2.538   7.946   3.977
 3721SOL    HW213171  24.768   7.946  26.049
 3722SOL     OW13172   5.280   8.770  10.076
 3722SOL    HW113173  -5.712   8.710  10.134
 3722SOL    HW213174   5.346  19.841  10.014
 3723SOL     OW13175  11.549   0.105   8.973
 3723SOL    HW113176   0.446   0.034  -2.066
 3723SOL    HW213177  11.545  11.181  -1.978
 3724SOL     OW13178   2.436   0.131   7.441
 3724SOL    HW113179   2.401  11.087 -25.709
 3724SOL    HW213180   2.358   0.181   7.466
 3725SOL     OW13181   3.970   7.095   2.783
 3725SOL    HW113182   3.920   7.095  -8.175
 3725SOL    HW213183   4.013   7.181   2.781
 3726SOL     OW13184   7.249   8.931  10.751
 3726SOL    HW113185   7.307  20.037  10.714
 3726SOL    HW213186  29.243   8.974  10.757
 3727SOL     OW13187   9.884   3.153   4.328
 3727SOL    HW113188   9.880 -30.061   4.329
 3727SOL    HW213189   9.932  -7.865  26.327
 3728SOL     OW13190   1.640   9.120   0.349
 3728SOL    HW113191  -9.436   9.049   0.297
 3728SOL    HW213192   1.651   9.192   0.287
 3729SOL     OW13193   9.481   4.436   8.681
 3729SOL    HW113194 -12.655   4.362 -13.377
 3729SOL    HW213195 -12.631 -17.610 -13.481
 3730SOL     OW13196   7.839   4.229  10.346
 3730SOL    HW113197  18.846 -17.940  10.337
 3730SOL    HW213198   7.922   4.230  -0.740
 3731SOL     OW13199   2.675   8.229   5.047
 3731SOL    HW113200   2.613   8.190  -5.931
 3731SOL    HW213201   2.743   8.163   5.036
 3732SOL     OW13202   6.963   7.560   2.041
 3732SOL    HW113203   6.983   7.635   1.985
 3732SOL    HW213204   6.890   7.589   2.095
 3733SOL     OW13205   5.353   2.045   6.269
 3733SOL    HW113206 -16.652   2.056   6.209
 3733SOL    HW213207   5.388   2.071   6.355
 3734SOL     OW13208   0.348   3.357   7.524
 3734SOL    HW113209   0.364  -7.588 -25.587
 3734SOL    HW213210   0.425   3.323  -3.561
 3735SOL     OW13211   2.787   9.087   2.111
 3735SOL    HW113212   2.790   9.077   2.016
 3735SOL    HW213213 -19.200  31.163   2.138
 3736SOL     OW13214   7.666   3.063   9.027
 3736SOL    HW113215  18.615   3.032  20.059
 3736SOL    HW213216   7.706  25.118  19.983
 3737SOL     OW13217  -0.452   4.280   8.348
 3737SOL    HW113218  -0.398  26.391   8.276
 3737SOL    HW213219  32.638  37.312  -2.719
 3738SOL     OW13220   0.808   5.863  10.074
 3738SOL    HW113221 -10.181  -5.209  21.039
 3738SOL    HW213222   0.719   5.834  10.057
 3739SOL     OW13223  -0.997  10.695  10.223
 3739SOL    HW113224  10.048  -0.434  21.227
 3739SOL    HW213225  32.091  21.788  10.150
 3740SOL     OW13226  -0.975   5.146   2.729
 3740SOL    HW113227  43.171  16.221   2.817
 3740SOL    HW213228  10.034   5.056 -19.344
 3741SOL     OW13229   4.606   1.883   9.895
 3741SOL    HW113230   4.679   1.849   9.946
 3741SOL    HW213231  26.607   1.855   9.943
 3742SOL     OW13232   3.255   9.256   9.310
 3742SOL    HW113233   3.293   9.168   9.307
 3742SOL    HW213234   3.193   9.253   9.383
 3743SOL     OW13235   0.275   8.031  10.554
 3743SOL    HW113236   0.255  18.987  10.512
 3743SOL    HW213237   0.233  -3.014 -22.479
 3744SOL     OW13238  10.157   9.298   6.419
 3744SOL    HW113239  -0.953  20.278   6.394
 3744SOL    HW213240  10.182   9.271  -4.533
 3745SOL     OW13241   8.457   3.990   9.123
 3745SOL    HW113242   8.431  15.013   9.214
 3745SOL    HW213243   8.376   4.020   9.081
 3746SOL     OW13244   0.703   3.925  10.063
 3746SOL    HW113245   0.744   3.940   9.978
 3746SOL    HW213246   0.609   3.937  10.047
 3747SOL     OW13247   0.880   8.659  11.090
 3747SOL    HW113248   0.826   8.599  11.038
 3747SOL    HW213249   0.895  -2.306  -0.007
 3748SOL     OW13250   7.535  11.091   2.284
 3748SOL    HW113251   7.481  -0.026   2.293
 3748SOL    HW213252   7.536  11.131   2.371
 3749SOL     OW13253  12.864   7.910   8.100
 3749SOL    HW113254  12.959  18.949   8.085
 3749SOL    HW213255 -20.293   7.924  -3.026
 3750SOL     OW13256  10.445  -0.272   8.139
 3750SOL    HW113257  -0.638  10.694  30.174
 3750SOL    HW213258  10.525  -0.310   8.175
 3751SOL     OW13259   3.932   3.045  -0.352
 3751SOL    HW113260   3.859   2.990  10.656
 3751SOL    HW213261   4.010   3.005  -0.390
 3752SOL     OW13262  -0.296   3.009   5.595
 3752SOL    HW113263  -0.341   3.012   5.680
 3752SOL    HW213264  10.680  14.009  -5.504
 3753SOL     OW13265   1.659   7.846   5.009
 3753SOL    HW113266   1.696   7.909  -6.093
 3753SOL    HW213267   1.594   7.798  27.037
 3754SOL     OW13268   3.508   2.543   1.533
 3754SOL    HW113269   3.493  -8.587   1.563
 3754SOL    HW213270   3.500   2.596   1.612
 3755SOL     OW13271   2.108   3.150   8.817
 3755SOL    HW113272   2.150 -18.881 -35.270
 3755SOL    HW213273   2.133   3.059   8.832
 3756SOL     OW13274   8.375   2.972   5.646
 3756SOL    HW113275  30.378  -8.104   5.691
 3756SOL    HW213276   8.449  -8.086   5.705
 3757SOL     OW13277   9.661   4.743   3.655
 3757SOL    HW113278   9.603   4.735   3.578
 3757SOL    HW213279   9.745   4.772  14.658
 3758SOL     OW13280   3.239   5.902   7.037
 3758SOL    HW113281   3.289   5.821   7.041
 3758SOL    HW213282   3.187   5.903  29.197
 3759SOL     OW13283   6.900   1.889   4.743
 3759SOL    HW113284   6.851  12.898   4.667
 3759SOL    HW213285  28.947  12.876   4.816
 3760SOL     OW13286   9.220   3.004   6.448
 3760SOL    HW113287   9.305  -8.041   6.490
 3760SOL    HW213288   9.168  -7.978   6.504
 3761SOL     OW13289   3.312  11.349   0.775
 3761SOL    HW113290   3.255 -10.797   0.814
 3761SOL    HW213291   3.328  11.411   0.845
 3762SOL     OW13292   2.077   5.579   0.884
 3762SOL    HW113293 -20.032 -16.440   0.816
 3762SOL    HW213294   2.139  -5.410   0.936
 3763SOL     OW13295   7.237   8.065   9.721
 3763SOL    HW113296   7.216  -2.891 -12.401
 3763SOL    HW213297  -3.873  -3.034   9.695
 3764SOL     OW13298   4.170   8.357   2.601
 3764SOL    HW113299 -28.971 -13.641   2.554
 3764SOL    HW213300   4.146   8.375  24.771
 3765SOL     OW13301   2.400   3.484   7.130
 3765SOL    HW113302   2.352   3.507  -3.830
 3765SOL    HW213303  -8.695   3.516   7.058
 3766SOL     OW13304   1.974   6.372   4.178
 3766SOL    HW113305   1.936 -15.646  -6.798
 3766SOL    HW213306  13.100   6.408 -28.960
 3767SOL     OW13307   6.032   9.510   4.861
 3767SOL    HW113308  16.994   9.509   4.916
 3767SOL    HW213309  28.090  20.609   4.789
 3768SOL     OW13310  10.838   7.351   1.914
 3768SOL    HW113311  10.925   7.390   1.908
 3768SOL    HW213312  10.813   7.336   1.823
 3769SOL     OW13313   2.678   7.056   0.798
 3769SOL    HW113314 -30.411   7.069   0.888
 3769SOL    HW213315   2.607   7.119   0.786
 3770SOL     OW13316   0.431   9.039   4.335
 3770SOL    HW113317   0.434   9.130   4.365
 3770SOL    HW213318   0.519  20.046  -6.689
 3771SOL     OW13319  11.185   7.352   6.093
 3771SOL    HW113320  11.161   7.445   6.101
 3771SOL    HW213321   0.064   7.305  -4.927
 3772SOL     OW13322  10.790   2.387   5.504
 3772SOL    HW113323 -11.375   2.344   5.501
 3772SOL    HW213324  -0.260   2.463  38.565
 3773SOL     OW13325   8.321  10.030   0.083
 3773SOL    HW113326   8.354  10.065  11.040
 3773SOL    HW213327   8.265 -23.019   0.117
 3774SOL     OW13328   3.338   0.130   9.027
 3774SOL    HW113329  25.343   0.190  20.066
 3774SOL    HW213330  14.454   0.187   9.036
 3775SOL     OW13331   5.385   8.349  10.197
 3775SOL    HW113332  38.505   8.444  10.195
 3775SOL    HW213333   5.399   8.326  10.288
 3776SOL     OW13334   6.293   9.478   3.929
 3776SOL    HW113335  17.405   9.421   3.952
 3776SOL    HW213336   6.236   9.477   4.005
 3777SOL     OW13337   1.016   5.490   2.451
 3777SOL    HW113338  12.144   5.471   2.418
 3777SOL    HW213339  12.001   5.495 -19.707
 3778SOL     OW13340   1.319   6.419   4.328
 3778SOL    HW113341  12.317   6.459   4.252
 3778SOL    HW213342   1.400  17.419   4.293
 3779SOL     OW13343   6.738   5.534   4.399
 3779SOL    HW113344  -4.372   5.512   4.337
 3779SOL    HW213345   6.727   5.472  -6.569
 3780SOL     OW13346   3.860   1.631   8.524
 3780SOL    HW113347   3.769   1.605  19.578
 3780SOL    HW213348  14.949   1.586 -13.487
 3781SOL     OW13349   6.709   5.083   8.834
 3781SOL    HW113350   6.630  38.239   8.794
 3781SOL    HW213351   6.764  27.137   8.760
 3782SOL     OW13352   1.815   6.186   4.579
 3782SOL    HW113353   1.797   6.268   4.533
 3782SOL    HW213354   1.742   6.129   4.556
 3783SOL     OW13355   5.982   2.387   9.018
 3783SOL    HW113356  27.985   2.334   9.038
 3783SOL    HW213357 -16.059   2.408  20.143
 3784SOL     OW13358   5.731   4.992  12.067
 3784SOL    HW113359   5.669  16.096  -9.976
 3784SOL    HW213360  16.782   5.019  11.976
 3785SOL     OW13361   5.411   6.228  10.143
 3785SOL    HW113362   5.454  -4.893  10.117
 3785SOL    HW213363  -5.720   6.202  10.159
 3786SOL     OW13364   4.439   9.783   9.586
 3786SOL    HW113365  15.434   9.838   9.651
 3786SOL    HW213366   4.412   9.694   9.607
 3787SOL     OW13367   3.956   4.033   0.387
 3787SOL    HW113368  15.043  -6.939   0.338
 3787SOL    HW213369  -7.174  -6.978   0.385
 3788SOL     OW13370   2.788   6.767   7.276
 3788SOL    HW113371  -8.338   6.746   7.241
 3788SOL    HW213372  13.847   6.854   7.242
 3789SOL     OW13373   6.518   8.381   6.687
 3789SOL    HW113374   6.574   8.456   6.670
 3789SOL    HW213375   6.437  19.459  -4.318
 3790SOL     OW13376  -0.245   5.325   7.430
 3790SOL    HW113377  10.853   5.340  -3.535
 3790SOL    HW213378  -0.331 -16.770  -3.570
 3791SOL     OW13379  -0.993  -0.314   7.061
 3791SOL    HW113380  10.121  -0.297   7.119
 3791SOL    HW213381   9.979  21.827   7.090
 3792SOL     OW13382   2.746   4.525   3.780
 3792SOL    HW113383   2.807  15.636 -18.277
 3792SOL    HW213384  -8.324   4.493   3.864
 3793SOL     OW13385  12.184   2.070   1.805
 3793SOL    HW113386  -9.928  13.166   1.734
 3793SOL    HW213387  -9.918   2.117   1.885
 3794SOL     OW13388  10.119  -0.648   1.061
 3794SOL    HW113389  10.158  76.602   1.144
 3794SOL    HW213390  21.091  43.445   1.043
 3795SOL     OW13391   9.049   8.125   0.784
 3795SOL    HW113392  20.015  -2.855   0.770
 3795SOL    HW213393   9.022   8.073   0.860
 3796SOL     OW13394   0.917   8.811   1.796
 3796SOL    HW113395  23.038   8.897   1.789
 3796SOL    HW213396   0.870   8.800   1.713
 3797SOL     OW13397   9.852   7.982   8.346
 3797SOL    HW113398   9.778   7.999 -13.675
 3797SOL    HW213399  -1.228   7.941   8.269
 3798SOL     OW13400   0.913   7.955   5.063
 3798SOL    HW113401   0.858   8.032   5.050
 3798SOL    HW213402   0.879   7.915  16.183
 3799SOL     OW13403   7.431   4.787   6.592
 3799SOL    HW113404  -3.589   4.878   6.614
 3799SOL    HW213405   7.460   4.777   6.502
 3800SOL     OW13406   4.370   5.220   1.714
 3800SOL    HW113407  15.338   5.158  12.748
 3800SOL    HW213408  26.450  16.302  12.668
 3801SOL     OW13409   7.700   8.789   6.513
 3801SOL    HW113410   7.710   8.771   6.606
 3801SOL    HW213411 -14.392   8.703  39.591
 3802SOL     OW13412   8.663  10.066   7.062
 3802SOL    HW113413  -2.391   9.976   7.033
 3802SOL    HW213414 -24.445  10.116   6.981
 3803SOL     OW13415   2.977   5.886   7.733
 3803SOL    HW113416   2.984   5.797   7.699
 3803SOL    HW213417  -8.032   5.880   7.823
 3804SOL     OW13418   5.462   2.189  10.647
 3804SOL    HW113419   5.394  13.237  10.714
 3804SOL    HW213420   5.416  13.244  10.564
 3805SOL     OW13421   5.488   4.306   1.192
 3805SOL    HW113422   5.566   4.251   1.201
 3805SOL    HW213423  16.559   4.395   1.208
 3806SOL     OW13424  10.488   9.566   7.120
 3806SOL    HW113425  10.405   9.589   7.080
 3806SOL    HW213426  10.483   9.472   7.134
 3807SOL     OW13427   8.487   9.487   3.146
 3807SOL    HW113428   8.480   9.569   3.195
 3807SOL    HW213429   8.398  31.532   3.145
 3808SOL     OW13430   5.763   2.900   1.584
 3808SOL    HW113431   5.836   2.929   1.638
 3808SOL    HW213432  16.810  13.844   1.582
 3809SOL     OW13433   9.184   5.234   9.146
 3809SOL    HW113434   9.271  16.313  20.195
 3809SOL    HW213435   9.126   5.289   9.199
 3810SOL     OW13436   5.596  -1.088   6.986
 3810SOL    HW113437  38.757  -1.170 -15.119
 3810SOL    HW213438   5.599  32.085  -4.132
 3811SOL     OW13439   6.387   2.117   9.592
 3811SOL    HW113440   6.425   2.205   9.600
 3811SOL    HW213441  50.620   2.058   9.603
 3812SOL     OW13442   3.069   5.822   8.286
 3812SOL    HW113443   2.984   5.860 -13.816
 3812SOL    HW213444   3.047   5.748 -13.736
 3813SOL     OW13445   8.918   8.583   4.836
 3813SOL    HW113446  -2.090  30.702  15.794
 3813SOL    HW213447  -2.189   8.521   4.808
 3814SOL     OW13448   4.773   5.084   1.924
 3814SOL    HW113449   4.778 -16.899   1.922
 3814SOL    HW213450  -6.355   5.065   1.891
 3815SOL     OW13451   8.914   3.237   8.918
 3815SOL    HW113452   8.922  -7.718   8.962
 3815SOL    HW213453   8.886   3.177   8.987
 3816SOL     OW13454   2.038   4.129   9.139
 3816SOL    HW113455  35.067   4.145   9.165
 3816SOL    HW213456   2.063   4.049  42.302
 3817SOL     OW13457   9.342   2.457   7.561
 3817SOL    HW113458  -1.610   2.446  -3.442
 3817SOL    HW213459  -1.756  24.494   7.624
 3818SOL     OW13460   9.228  10.849   4.481
 3818SOL    HW113461   9.267  10.799   4.551
 3818SOL    HW213462   9.222  -0.252   4.408
 3819SOL     OW13463   5.229   9.050   4.648
 3819SOL    HW113464   5.307 -13.019   4.703
 3819SOL    HW213465   5.217 -12.943   4.607
 3820SOL     OW13466   0.050   6.915   2.627
 3820SOL    HW113467  -0.009   6.989   2.636
 3820SOL    HW213468  11.130   6.927   2.541
 3821SOL     OW13469  -1.240   5.952   3.961
 3821SOL    HW113470  -1.147   5.947   3.985
 3821SOL    HW213471  31.872  50.190   3.908
 3822SOL     OW13472   7.283  10.779   4.561
 3822SOL    HW113473   7.341  -0.326   4.523
 3822SOL    HW213474   7.201  10.770  26.591
 3823SOL     OW13475   4.071   4.933   2.474
 3823SOL    HW113476  -6.903  16.039  24.532
 3823SOL    HW213477 -18.085  -6.058   2.500
 3824SOL     OW13478   8.157   5.661  11.071
 3824SOL    HW113479  19.282 -16.385  11.096
 3824SOL    HW213480   8.165 -16.439  -0.062
 3825SOL     OW13481   9.695   9.543   3.386
 3825SOL    HW113482   9.686   9.448   3.388
 3825SOL    HW213483  31.696   9.574   3.339
 3826SOL     OW13484   7.131   4.369   7.481
 3826SOL    HW113485  -3.987   4.424  29.550
 3826SOL    HW213486   7.182  15.453   7.549
 3827SOL     OW13487   8.618   9.111   3.768
 3827SOL    HW113488   8.539   9.142   3.724
 3827SOL    HW213489   8.690   9.157   3.725
 3828SOL     OW13490   6.446   0.136   7.219
 3828SOL    HW113491   6.470   0.192   7.145
 3828SOL    HW213492   6.440   0.197   7.293
 3829SOL     OW13493   1.413  10.229   3.390
 3829SOL    HW113494   1.438  -0.898   3.419
 3829SOL    HW213495   1.393  10.276  -7.569
 3830SOL     OW13496   9.955   8.668  10.257
 3830SOL    HW113497  21.024   8.590  10.303
 3830SOL    HW213498   9.990   8.741  10.309
 3831SOL     OW13499   4.453   2.618   0.583
 3831SOL    HW113500   4.453   2.642   0.490
 3831SOL    HW213501 -17.606   2.700  11.668
 3832SOL     OW13502   9.936   8.430  13.147
 3832SOL    HW113503  10.032   8.433 -31.016
 3832SOL    HW213504  -1.127   8.354   2.053
 3833SOL     OW13505   9.117   0.076   7.818
 3833SOL    HW113506   9.098   0.040   7.732
 3833SOL    HW213507  -1.999   0.054   7.871
 3834SOL     OW13508   1.280   9.541   0.898
 3834SOL    HW113509   1.292   9.612   0.834
 3834SOL    HW213510   1.225   9.579  12.006
 3835SOL     OW13511   7.811   8.872   7.497
 3835SOL    HW113512   7.782  -2.244   7.547
 3835SOL    HW213513   7.766  -2.093 -14.542
 3836SOL     OW13514   4.163   8.167   4.303
 3836SOL    HW113515   4.084   8.135  -6.693
 3836SOL    HW213516   4.148  19.189   4.210
 3837SOL     OW13517   9.162   9.393   3.256
 3837SOL    HW113518   9.217   9.356 -18.753
 3837SOL    HW213519   9.097  20.364   3.240
 3838SOL     OW13520   5.266  10.705   7.073
 3838SOL    HW113521   5.199  10.726   7.008
 3838SOL    HW213522   5.268  -0.430 -15.003
 3839SOL     OW13523   4.084   6.061   3.840
 3839SOL    HW113524   4.163   6.048  37.011
 3839SOL    HW213525   4.096  17.043   3.764
 3840SOL     OW13526  10.209   4.777   9.779
 3840SOL    HW113527  -0.870   4.833   9.711
 3840SOL    HW213528  -0.869   4.691  31.842
 3841SOL     OW13529   8.144   5.645   5.648
 3841SOL    HW113530  19.156   5.558   5.618
 3841SOL    HW213531   8.216   5.628  16.748
 3842SOL     OW13532   0.854   8.344   1.628
 3842SOL    HW113533  34.010   8.256  -9.407
 3842SOL    HW213534  11.952  19.431   1.568
 3843SOL     OW13535   1.320  10.250   6.028
 3843SOL    HW113536   1.261  10.274  -5.083
 3843SOL    HW213537   1.280  10.288  -4.933
 3844SOL     OW13538   6.667   8.413   7.879
 3844SOL    HW113539   6.635   8.491   7.925
 3844SOL    HW213540   6.704   8.447   7.797
 3845SOL     OW13541   7.489  10.227   0.261
 3845SOL    HW113542 -25.537  10.204   0.248
 3845SOL    HW213543   7.452  10.151  33.423
 3846SOL     OW13544   9.551   5.790  10.300
 3846SOL    HW113545   9.565   5.815  10.209
 3846SOL    HW213546  -1.577  -5.221  10.320
 3847SOL     OW13547   3.269   7.623   7.940
 3847SOL    HW113548   3.224   7.559   7.886
 3847SOL    HW213549  -7.779   7.705   7.891
 3848SOL     OW13550   2.470   7.782   3.162
 3848SOL    HW113551  24.581   7.872   3.166
 3848SOL    HW213552   2.498  -3.290  -7.963
 3849SOL     OW13553   7.954   9.531   8.825
 3849SOL    HW113554  18.990   9.586   8.903
 3849SOL    HW213555   7.986   9.446   8.856
 3850SOL     OW13556   7.226  11.909   2.290
 3850SOL    HW113557  18.200  11.839  -8.740
 3850SOL    HW213558  18.325 -10.182   2.363
 3851SOL     OW13559  10.761   8.153   3.705
 3851SOL    HW113560  10.685   8.159   3.647
 3851SOL    HW213561  10.830  -2.840   3.658
 3852SOL     OW13562   1.159  10.224   7.936
 3852SOL    HW113563   1.155  10.194   8.027
 3852SOL    HW213564   1.089  10.176   7.892
 3853SOL     OW13565   3.758   8.576   4.570
 3853SOL    HW113566  14.762   8.643   4.511
 3853SOL    HW213567   3.681   8.532  15.644
 3854SOL     OW13568   3.682  10.389   0.465
 3854SOL    HW113569   3.655 -22.802   0.521
 3854SOL    HW213570   3.601  21.470   0.437
 3855SOL     OW13571   3.117  10.331   4.294
 3855SOL    HW113572  -7.968  10.299   4.216
 3855SOL    HW213573   3.154  10.415   4.267
 3856SOL     OW13574   7.456   0.880   2.817
 3856SOL    HW113575   7.535   0.829   2.798
 3856SOL    HW213576   7.401  11.861   2.868
 3857SOL     OW13577   0.940  -0.142   3.158
 3857SOL    HW113578   0.918  -0.164   3.068
 3857SOL    HW213579   1.033  21.961   3.155
 3858SOL     OW13580   4.731  10.895  10.398
 3858SOL    HW113581   4.727  10.901  10.493
 3858SOL    HW213582   4.659  10.836  10.374
 3859SOL     OW13583   8.405   7.556   3.421
 3859SOL    HW113584   8.340   7.515   3.478
 3859SOL    HW213585 -13.715   7.636  -7.648
 3860SOL     OW13586   4.455   6.579   5.200
 3860SOL    HW113587   4.498   6.599  -5.756
 3860SOL    HW213588  15.401   6.591  16.258
 3861SOL     OW13589   0.822   7.569   0.546
 3861SOL    HW113590  11.849  -3.566   0.550
 3861SOL    HW213591   0.818  -3.442   0.637
 3862SOL     OW13592   8.385   1.040   2.443
 3862SOL    HW113593  19.377   1.119   2.416
 3862SOL    HW213594 -35.689   1.046   2.399
 3863SOL     OW13595   0.710   0.538   4.310
 3863SOL    HW113596   0.773   0.558  26.458
 3863SOL    HW213597   0.625   0.537  37.473
 3864SOL     OW13598   2.425   0.023   6.133
 3864SOL    HW113599   2.517   0.032   6.107
 3864SOL    HW213600   2.376   0.071   6.067
 3865SOL     OW13601   2.217   6.944   5.220
 3865SOL    HW113602   2.234   6.908   5.306
 3865SOL    HW213603   2.122   6.959   5.218
 3866SOL     OW13604  -1.566   5.887   5.886
 3866SOL    HW113605  31.566  -5.184   5.797
 3866SOL    HW213606  -1.656   5.917  -5.151
 3867SOL     OW13607   5.912   3.574   2.265
 3867SOL    HW113608  -5.111   3.664   2.291
 3867SOL    HW213609  -5.144  -7.511  13.387
 3868SOL     OW13610   7.583   6.587   7.339
 3868SOL    HW113611   7.669   6.561   7.307
 3868SOL    HW213612  18.593  17.694   7.278
 3869SOL     OW13613   0.862   5.736   3.502
 3869SOL    HW113614  22.907   5.718   3.590
 3869SOL    HW213615   0.866  -5.390   3.461
 3870SOL     OW13616   1.868   8.454  -0.360
 3870SOL    HW113617   1.804   8.440  10.610
 3870SOL    HW213618   1.885   8.548  -0.361
 3871SOL     OW13619   1.687   8.332   9.785
 3871SOL    HW113620  -9.290  19.431   9.742
 3871SOL    HW213621   1.605   8.346   9.739
 3872SOL     OW13622   1.859   7.271   4.559
 3872SOL    HW113623   1.911   7.284   4.480
 3872SOL    HW213624  12.927   7.187  48.752
 3873SOL     OW13625   6.029   3.556   9.528
 3873SOL    HW113626   6.077   3.488   9.575
 3873SOL    HW213627   6.027  14.670  20.627
 3874SOL     OW13628   6.334   1.632   5.044
 3874SOL    HW113629   6.311   1.700   4.981
 3874SOL    HW213630   6.405   1.583   5.001
 3875SOL     OW13631   5.765   2.767   7.864
 3875SOL    HW113632  16.750   2.712  -3.232
 3875SOL    HW213633   5.752  13.896   7.831
 3876SOL     OW13634  11.512   4.269   4.717
 3876SOL    HW113635  11.549  15.396  26.791
 3876SOL    HW213636   0.428   4.266   4.802
 3877SOL     OW13637  10.861   5.036   2.248
 3877SOL    HW113638  -0.200   5.122   2.284
 3877SOL    HW213639  21.953   4.994   2.315
 3878SOL     OW13640  10.187   0.185   8.609
 3878SOL    HW113641  -0.927  11.265   8.565
 3878SOL    HW213642  10.200   0.238   8.688
 3879SOL     OW13643  10.664  -0.258   6.623
 3879SOL    HW113644  -0.404  21.890   6.683
 3879SOL    HW213645  21.799  21.821   6.629
 3880SOL     OW13646   5.988   5.846   5.312
 3880SOL    HW113647  -5.047   5.940   5.332
 3880SOL    HW213648   5.999  16.843  16.437
 3881SOL     OW13649   9.811   1.702   8.018
 3881SOL    HW113650   9.738   1.694   7.957
 3881SOL    HW213651  -1.269   1.719   8.103
 3882SOL     OW13652   2.035   0.327   4.577
 3882SOL    HW113653   2.129   0.333   4.598
 3882SOL    HW213654 -20.087   0.325   4.662
 3883SOL     OW13655   2.432  10.967   3.894
 3883SOL    HW113656   2.357  11.026   3.903
 3883SOL    HW213657   2.434  10.919  15.016
 3884SOL     OW13658   9.431   9.785   1.179
 3884SOL    HW113659   9.341   9.810   1.197
 3884SOL    HW213660  20.467   9.692   1.158
 3885SOL     OW13661   1.421   3.665   6.086
 3885SOL    HW113662   1.363  14.638   6.122
 3885SOL    HW213663 -20.605   3.619   6.021
 3886SOL     OW13664   4.035   2.954   2.970
 3886SOL    HW113665   4.027   2.890  13.939
 3886SOL    HW213666   3.969  13.967   3.034
 3887SOL     OW13667   4.398   5.822  10.269
 3887SOL    HW113668   4.335  16.798  10.302
 3887SOL    HW213669   4.469   5.821  10.334
 3888SOL     OW13670   8.198   3.425   1.832
 3888SOL    HW113671   8.250   3.505   1.836
 3888SOL    HW213672  -2.892   3.434   1.752
 3889SOL     OW13673   2.795   3.694   9.870
 3889SOL    HW113674   2.829   3.766   9.817
 3889SOL    HW213675   2.720   3.731   9.917
 3890SOL     OW13676   8.557   4.869   5.672
 3890SOL    HW113677   8.562 -17.270   5.597
 3890SOL    HW213678  -2.392   4.893   5.689
 3891SOL     OW13679  -1.045   1.006   7.370
 3891SOL    HW113680  -1.027  11.954   7.391
 3891SOL    HW213681  20.938   1.013 -14.704
 3892SOL     OW13682   4.273   4.693   3.469
 3892SOL    HW113683   4.199   4.666   3.413
 3892SOL    HW213684   4.233   4.713   3.554
 3893SOL     OW13685   9.755   7.707   2.426
 3893SOL    HW113686   9.809  18.823  -8.596
 3893SOL    HW213687   9.679   7.742   2.378
 3894SOL     OW13688   4.717   1.936   8.966
 3894SOL    HW113689   4.715   1.842  20.026
 3894SOL    HW213690  15.798   1.976   9.042
 3895SOL     OW13691   0.778   8.644   2.236
 3895SOL    HW113692   0.790  19.605   2.183
 3895SOL    HW213693 -10.180   8.655   2.284
 3896SOL     OW13694   1.404   6.115   3.772
 3896SOL    HW113695  12.493  -4.878  36.824
 3896SOL    HW213696  -9.584   6.124   3.852
 3897SOL     OW13697   5.742   7.683   5.525
 3897SOL    HW113698   5.799   7.679   5.448
 3897SOL    HW213699  16.788   7.596  16.604
 3898SOL     OW13700   9.158   2.349   1.127
 3898SOL    HW113701   9.180   2.366   1.036
 3898SOL    HW213702   9.240   2.364   1.175
 3899SOL     OW13703   5.170   7.901  10.289
 3899SOL    HW113704  -5.821   7.924  10.210
 3899SOL    HW213705   5.218  -3.213  10.326
 3900SOL     OW13706   7.627   1.277   0.383
 3900SOL    HW113707  18.628 -20.864  22.400
 3900SOL    HW213708   7.622   1.232  11.507
 3901SOL     OW13709   7.729  12.655   3.887
 3901SOL    HW113710  -3.218   1.594  14.928
 3901SOL    HW213711  -3.314  -9.333  25.997
 3902SOL     OW13712   0.816   3.038   1.445
 3902SOL    HW113713  45.043   3.065   1.384
 3902SOL    HW213714  11.884   2.952  12.515
 3903SOL     OW13715   5.776  10.596   7.321
 3903SOL    HW113716  -5.229  10.575   7.234
 3903SOL    HW213717   5.779  10.513  62.566
 3904SOL     OW13718   8.755  -0.375   5.750
 3904SOL    HW113719   8.761  10.732  -5.222
 3904SOL    HW213720   8.736  21.624  16.837
 3905SOL     OW13721   5.021   2.482   8.069
 3905SOL    HW113722  -6.096  -8.604  -2.937
 3905SOL    HW213723   4.989   2.532   7.995
 3906SOL     OW13724   1.955   0.673   2.132
 3906SOL    HW113725  35.168   0.675  -8.890
 3906SOL    HW213726  12.965  11.631   2.172
 3907SOL     OW13727   9.365  10.853   8.300
 3907SOL    HW113728  31.506 -11.278   8.249
 3907SOL    HW213729   9.397  10.848   8.390
 3908SOL     OW13730  10.290   1.325   7.116
 3908SOL    HW113731  10.251   1.368   7.193
 3908SOL    HW213732  10.250  12.278 -14.964
 3909SOL     OW13733   1.220   7.674   1.799
 3909SOL    HW113734  -9.761 -14.450  -9.179
 3909SOL    HW213735   1.242  29.716  -9.326
 3910SOL     OW13736   2.350   5.332   8.899
 3910SOL    HW113737   2.394  16.447  19.899
 3910SOL    HW213738  -8.734   5.290   8.826
 3911SOL     OW13739   1.414   9.288   0.986
 3911SOL    HW113740   1.495   9.332  23.090
 3911SOL    HW213741   1.354   9.359   0.964
 3912SOL     OW13742   4.660   1.699  10.873
 3912SOL    HW113743 -28.409   1.730  10.798
 3912SOL    HW213744   4.713  23.801 -11.130
 3913SOL     OW13745   2.356   5.355   2.958
 3913SOL    HW113746   2.305   5.358  -8.162
 3913SOL    HW213747   2.428   5.295   2.938
 3914SOL     OW13748   0.584   9.651   1.546
 3914SOL    HW113749  33.791   9.614   1.541
 3914SOL    HW213750   0.563   9.678  -9.583
 3915SOL     OW13751   2.238   9.143   4.547
 3915SOL    HW113752   2.317   9.175   4.591
 3915SOL    HW213753   2.247   9.174   4.456
 3916SOL     OW13754   2.436  10.434   3.979
 3916SOL    HW113755   2.455  -0.567   3.893
 3916SOL    HW213756   2.458  -0.698  -7.071
 3917SOL     OW13757   6.158   7.212   4.653
 3917SOL    HW113758   6.217   7.139   4.634
 3917SOL    HW213759  28.164   7.200  -6.448
 3918SOL     OW13760   5.565   9.966   4.033
 3918SOL    HW113761   5.610   9.952  -7.090
 3918SOL    HW213762  16.512   9.973   4.009
 3919SOL     OW13763   4.542   6.434   2.211
 3919SOL    HW113764  26.544   6.441   2.267
 3919SOL    HW213765  15.609   6.524  24.276
 3920SOL     OW13766   6.922   3.699   2.424
 3920SOL    HW113767   6.995   3.701   2.361
 3920SOL    HW213768  -4.191  25.818   2.378
 3921SOL     OW13769   2.603   5.198   8.094
 3921SOL    HW113770  13.711   5.157  19.082
 3921SOL    HW213771   2.565   5.265   8.037
 3922SOL     OW13772   2.823   8.143   8.350
 3922SOL    HW113773   2.767   8.211   8.388
 3922SOL    HW213774  -8.143   8.137  41.530
 3923SOL     OW13775   6.143   2.972   8.500
 3923SOL    HW113776   6.223   3.024   8.508
 3923SOL    HW213777 -16.005   3.036   8.480
 3924SOL     OW13778   0.865   3.279   2.998
 3924SOL    HW113779   0.878   3.360   2.948
 3924SOL    HW213780   0.934   3.281   3.065
 3925SOL     OW13781   6.828   0.062   2.435
 3925SOL    HW113782   6.901   0.122   2.448
 3925SOL    HW213783  17.790   0.116   2.446
 3926SOL     OW13784   4.672   7.054   4.803
 3926SOL    HW113785  37.727   7.121   4.829
 3926SOL    HW213786   4.750   7.073 -17.223
 3927SOL     OW13787   7.409   6.864   7.165
 3927SOL    HW113788  29.446  17.882  -3.957
 3927SOL    HW213789   7.343   6.843   7.232
 3928SOL     OW13790   3.687   7.766   7.363
 3928SOL    HW113791  14.726  18.769  -3.588
 3928SOL    HW213792   3.600  18.844   7.353
 3929SOL     OW13793   5.137  10.301   2.769
 3929SOL    HW113794  -5.960  10.239   2.725
 3929SOL    HW213795   5.166  10.255   2.848
 3930SOL     OW13796   4.640   5.297   4.312
 3930SOL    HW113797 -17.462 -27.774   4.392
 3930SOL    HW213798   4.645 -16.874  26.418
 3931SOL     OW13799   1.346   5.877   6.746
 3931SOL    HW113800   1.361   5.888   6.840
 3931SOL    HW213801   1.345 -16.296   6.732
 3932SOL     OW13802   2.696   5.966   7.367
 3932SOL    HW113803   2.603  28.061   7.383
 3932SOL    HW213804   2.727   5.927   7.448
 3933SOL     OW13805   2.166  10.645  10.752
 3933SOL    HW113806  13.254 -22.399  10.718
 3933SOL    HW213807   2.075  10.662  10.726
 3934SOL     OW13808   5.564   0.205   7.615
 3934SOL    HW113809  27.680   0.123   7.647
 3934SOL    HW213810  27.661   0.268   7.684
 3935SOL     OW13811   2.720   7.401   3.545
 3935SOL    HW113812   2.716   7.454   3.624
 3935SOL    HW213813   2.769   7.323  25.650
 3936SOL     OW13814   3.491   2.667   4.902
 3936SOL    HW113815   3.433   2.669   4.978
 3936SOL    HW213816  14.496   2.735  26.923
 3937SOL     OW13817   6.014   8.880   5.326
 3937SOL    HW113818 -38.162  30.930   5.416
 3937SOL    HW213819  -4.957  19.986   5.336
 3938SOL     OW13820   5.428  10.470   3.584
 3938SOL    HW113821  16.448 -11.523  14.587
 3938SOL    HW213822  16.399  10.455  -7.390
 3939SOL     OW13823   9.143   7.207  10.278
 3939SOL    HW113824 -12.947  18.189  10.202
 3939SOL    HW213825  -1.974   7.191  10.332
 3940SOL     OW13826   0.828   8.017   3.451
 3940SOL    HW113827   0.841 -14.016  -7.672
 3940SOL    HW213828   0.912   8.023 -18.584
 3941SOL     OW13829  11.640   6.934  10.147
 3941SOL    HW113830   0.622   6.940  10.240
 3941SOL    HW213831   0.673  18.019  10.103
 3942SOL     OW13832   0.285   6.172   4.531
 3942SOL    HW113833   0.361   6.132   4.489
 3942SOL    HW213834   0.316  17.298  -6.481
 3943SOL     OW13835   4.904   8.732   8.091
 3943SOL    HW113836   4.920   8.823   8.065
 3943SOL    HW213837  16.026   8.687  19.108
 3944SOL     OW13838   3.843  10.680   9.730
 3944SOL    HW113839  -7.252  10.758 -12.354
 3944SOL    HW213840  -7.255  10.608   9.707
 3945SOL     OW13841   8.635   7.441   8.914
 3945SOL    HW113842  -2.444   7.494   8.984
 3945SOL    HW213843   8.563   7.386   8.883
 3946SOL     OW13844   3.206  -0.021   8.143
 3946SOL    HW113845   3.203   0.074   8.155
 3946SOL    HW213846 -18.953  22.027  -2.853
 3947SOL     OW13847   9.744   2.721   4.989
 3947SOL    HW113848   9.729   2.699   4.897
 3947SOL    HW213849 -12.397   2.666   5.038
 3948SOL     OW13850   8.369   8.948   6.451
 3948SOL    HW113851  -2.702   8.875   6.504
 3948SOL    HW213852   8.364   8.917   6.361
 3949SOL     OW13853   9.617   2.862   8.375
 3949SOL    HW113854   9.563   2.826   8.445
 3949SOL    HW213855   9.699   2.886  -2.622
 3950SOL     OW13856   9.283   0.901   4.246
 3950SOL    HW113857   9.357   0.849   4.218
 3950SOL    HW213858   9.249  11.896  -6.716
 3951SOL     OW13859   3.492   6.183   7.397
 3951SOL    HW113860  -7.594  17.163   7.458
 3951SOL    HW213861  14.465   6.206   7.332
 3952SOL     OW13862   6.558   3.550   4.304
 3952SOL    HW113863  28.588   3.617   4.256
 3952SOL    HW213864   6.490   3.497  15.386
 3953SOL     OW13865   5.741   3.363   1.047
 3953SOL    HW113866   5.652   3.327   1.046
 3953SOL    HW213867   5.798  36.406   1.033
 3954SOL     OW13868   0.811   4.511   3.545
 3954SOL    HW113869   0.800   4.520   3.450
 3954SOL    HW213870 -10.267   4.426   3.565
 3955SOL     OW13871   1.757   2.544   2.647
 3955SOL    HW113872   1.806   2.621   2.674
 3955SOL    HW213873   1.817 -19.609  13.703
 3956SOL     OW13874  -1.062   0.919   7.919
 3956SOL    HW113875  20.940   0.915   7.863
 3956SOL    HW213876  -1.018  11.875   7.905
 3957SOL     OW13877   9.895  10.093   5.220
 3957SOL    HW113878  20.857  21.187   5.229
 3957SOL    HW213879   9.960  -0.905   5.276
 3958SOL     OW13880   0.774   1.290   3.762
 3958SOL    HW113881  11.830  12.355   3.853
 3958SOL    HW213882   0.837   1.220   3.745
 3959SOL     OW13883   4.349  11.319   2.572
 3959SOL    HW113884   4.262  11.353   2.595
 3959SOL    HW213885 -17.686   0.268   2.656
 3960SOL     OW13886   9.377   5.793   9.680
 3960SOL    HW113887   9.285   5.766  20.726
 3960SOL    HW213888   9.395   5.837   9.763
 3961SOL     OW13889   5.965   4.143   7.443
 3961SOL    HW113890  17.094   4.175   7.428
 3961SOL    HW213891  39.041   4.152   7.358
 3962SOL     OW13892   8.520   4.031   7.215
 3962SOL    HW113893   8.585   4.003   7.280
 3962SOL    HW213894   8.505   4.124  -3.805
 3963SOL     OW13895   7.837   0.741   0.510
 3963SOL    HW113896   7.753   0.760   0.552
 3963SOL    HW213897  -3.152   0.695   0.577
 3964SOL     OW13898   9.190   5.082   4.539
 3964SOL    HW113899   9.144   5.007  -6.538
 3964SOL    HW213900   9.243  -5.994   4.609
 3965SOL     OW13901   0.209   2.944   2.444
 3965SOL    HW113902   0.297   2.906   2.451
 3965SOL    HW213903   0.211   2.993   2.361
 3966SOL     OW13904   3.386   1.413   2.922
 3966SOL    HW113905  -7.583   1.438   2.981
 3966SOL    HW213906   3.331  34.473   2.974
 3967SOL     OW13907   4.728   2.028   2.635
 3967SOL    HW113908   4.681   1.946   2.619
 3967SOL    HW213909  48.945   2.037   2.560
 3968SOL     OW13910   0.265   0.157   2.336
 3968SOL    HW113911   0.239   0.067  13.356
 3968SOL    HW213912   0.233   0.208  46.420
 3969SOL     OW13913   7.765  11.175   4.936
 3969SOL    HW113914   7.674  11.201   4.949
 3969SOL    HW213915   7.804 -10.899   5.023
 3970SOL     OW13916   5.176   9.924  12.727
 3970SOL    HW113917   5.220  10.008   1.696
 3970SOL    HW213918  16.122   9.946  -9.356
 3971SOL     OW13919   6.398   9.613   9.150
 3971SOL    HW113920   6.367   9.700  -1.864
 3971SOL    HW213921   6.399   9.563 -23.888
 3972SOL     OW13922   6.260   5.521   4.464
 3972SOL    HW113923   6.171   5.485   4.461
 3972SOL    HW213924  17.310   5.551  15.594
 3973SOL     OW13925   2.756  11.240   2.043
 3973SOL    HW113926  -8.269   0.289 -20.069
 3973SOL    HW213927   2.794 -21.878   2.131
 3974SOL     OW13928   4.510   7.732   5.142
 3974SOL    HW113929   4.461  29.830   5.223
 3974SOL    HW213930  26.549   7.790   5.077
 3975SOL     OW13931   6.187   0.593  10.704
 3975SOL    HW113932   6.249  33.641  21.763
 3975SOL    HW213933   6.242  11.708  -0.354
 3976SOL     OW13934  10.728   1.341  10.237
 3976SOL    HW113935  -0.273   1.402  10.299
 3976SOL    HW213936  -0.237  12.335  21.238
 3977SOL     OW13937   2.028   9.375   2.908
 3977SOL    HW113938   1.993  -1.628   2.827
 3977SOL    HW213939   2.068   9.292   2.882
 3978SOL     OW13940   3.288   9.235   5.592
 3978SOL    HW113941   3.283  -1.741   5.663
 3978SOL    HW213942   3.272   9.150 -16.445
 3979SOL     OW13943   2.944   1.546   9.727
 3979SOL    HW113944   2.857  23.635   9.689
 3979SOL    HW213945  47.101  12.500   9.770
 3980SOL     OW13946   2.975   4.750   2.722
 3980SOL    HW113947   3.067   4.736   2.701
 3980SOL    HW213948   2.967   4.722  -8.226
 3981SOL     OW13949   6.260   0.153   8.360
 3981SOL    HW113950  17.238  11.204   8.432
 3981SOL    HW213951   6.213  33.219   8.295
 3982SOL     OW13952   2.284   9.303  -0.503
 3982SOL    HW113953   2.377  31.397  -0.516
 3982SOL    HW213954   2.254   9.262  21.495
 3983SOL     OW13955   7.666   8.013   3.158
 3983SOL    HW113956   7.633  -3.070   3.080
 3983SOL    HW213957   7.657 -25.013   3.140
 3984SOL     OW13958   1.487   1.389   5.235
 3984SOL    HW113959   1.433   1.314   5.263
 3984SOL    HW213960   1.536   1.356   5.159
 3985SOL     OW13961   1.294   6.859   0.576
 3985SOL    HW113962   1.230   6.825   0.512
 3985SOL    HW213963   1.370   6.883   0.523
 3986SOL     OW13964   3.761   9.072   4.326
 3986SOL    HW113965   3.769   9.165   4.347
 3986SOL    HW213966  -7.329   9.071   4.245
 3987SOL     OW13967   6.503   3.724   0.441
 3987SOL    HW113968   6.594   3.698   0.428
 3987SOL    HW213969   6.485   3.786   0.369
 3988SOL     OW13970   0.179   1.866   4.254
 3988SOL    HW113971  33.340   1.895   4.335
 3988SOL    HW213972  11.233   1.938   4.193
 3989SOL     OW13973   7.954   5.492   3.783
 3989SOL    HW113974   7.934   5.487  25.956
 3989SOL    HW213975  -3.010   5.434  36.891
 3990SOL     OW13976   9.178   1.636   4.841
 3990SOL    HW113977   9.102   1.645   4.783
 3990SOL    HW213978  20.220  12.583  60.062
 3991SOL     OW13979   2.466   9.943   7.419
 3991SOL    HW113980  -8.555  -1.188   7.401
 3991SOL    HW213981 -19.527   9.983   7.433
 3992SOL     OW13982   9.337   8.862   9.148
 3992SOL    HW113983   9.425   8.838   9.178
 3992SOL    HW213984   9.347   8.952   9.115
 3993SOL     OW13985   2.380   1.364  10.409
 3993SOL    HW113986 -19.788   1.388  10.436
 3993SOL    HW213987  -8.635  -9.607  10.346
 3994SOL     OW13988   0.428   9.665   3.607
 3994SOL    HW113989   0.476   9.613   3.543
 3994SOL    HW213990   0.427   9.610   3.686
 3995SOL     OW13991   5.445   8.293   6.509
 3995SOL    HW113992   5.369   8.251   6.549
 3995SOL    HW213993   5.491  -2.707   6.583
 3996SOL     OW13994   6.732   7.305  -1.372
 3996SOL    HW113995  17.716   7.262   9.602
 3996SOL    HW213996   6.821  29.374  31.713
 3997SOL     OW13997   3.963   9.997   4.473
 3997SOL    HW113998  -7.026  -1.028   4.393
 3997SOL    HW213999  -7.112   9.909  -6.576
 3998SOL     OW14000   8.453   3.853   5.345
 3998SOL    HW114001   8.436  14.963   5.283
 3998SOL    HW214002  -2.554  36.900   5.291
 3999SOL     OW14003   9.776   3.992   1.947
 3999SOL    HW114004   9.828  -7.123  23.997
 3999SOL    HW214005   9.830   4.034  13.054
 4000SOL     OW14006   7.315   4.367   1.034
 4000SOL    HW114007   7.285   4.453   1.064
 4000SOL    HW214008   7.250   4.340   0.970
 4001SOL     OW14009   4.964   0.171   0.313
 4001SOL    HW114010   4.874   0.150   0.336
 4001SOL    HW214011   4.993   0.230  11.421
 4002SOL     OW14012   3.068  11.629   4.411
 4002SOL    HW114013   2.999 -21.509   4.474
 4002SOL    HW214014   3.148  11.632   4.465
 4003SOL     OW14015   9.311   5.673   7.440
 4003SOL    HW114016   9.368   5.597   7.426
 4003SOL    HW214017 -34.900   5.649   7.516
 4004SOL     OW14018   8.361   1.424   3.355
 4004SOL    HW114019   8.369   1.343  36.523
 4004SOL    HW214020   8.350   1.493  -7.619
 4005SOL     OW14021   1.576  11.439   7.909
 4005SOL    HW114022  -9.416  22.492   7.992
 4005SOL    HW214023  -9.542 -10.688   7.935
 4006SOL     OW14024   0.757   6.717   9.429
 4006SOL    HW114025   0.826  17.799  -1.660
 4006SOL    HW214026   0.795  17.741   9.516
 4007SOL     OW14027   1.456   9.277   7.098
 4007SOL    HW114028   1.362   9.263   7.089
 4007SOL    HW214029   1.497   9.198   7.062
 4008SOL     OW14030   5.452   6.252   1.128
 4008SOL    HW114031   5.433  39.396   1.219
 4008SOL    HW214032   5.415   6.323   1.075
 4009SOL     OW14033   7.058   4.425   2.820
 4009SOL    HW114034   7.124 -17.720  -8.198
 4009SOL    HW214035 -37.182 -17.703   2.809
 4010SOL     OW14036   5.225   7.518   1.261
 4010SOL    HW114037   5.158  18.492   1.246
 4010SOL    HW214038   5.292   7.472   1.312
 4011SOL     OW14039   2.710  10.005   3.601
 4011SOL    HW114040   2.754   9.921   3.591
 4011SOL    HW214041  13.763  10.029   3.692
 4012SOL     OW14042   1.825  12.526   7.959
 4012SOL    HW114043  12.890   1.478   7.867
 4012SOL    HW214044  23.866 -20.505 -14.114
 4013SOL     OW14045   8.493   1.704   4.367
 4013SOL    HW114046 -24.549   1.651   4.388
 4013SOL    HW214047  19.459   1.656   4.405
 4014SOL     OW14048   8.930   5.402   4.165
 4014SOL    HW114049  19.907  -5.682   4.222
 4014SOL    HW214050   8.988   5.332  15.175
 4015SOL     OW14051  10.907   2.896   6.065
 4015SOL    HW114052  10.902   2.859   5.977
 4015SOL    HW214053  10.837   2.960   6.069
 4016SOL     OW14054   6.429   2.958   8.198
 4016SOL    HW114055   6.356   2.914   8.155
 4016SOL    HW214056   6.495   2.891   8.209
 4017SOL     OW14057   0.354   8.380   0.981
 4017SOL    HW114058   0.444   8.401   0.956
 4017SOL    HW214059   0.360  19.388   1.071
 4018SOL     OW14060   5.653   3.768   7.236
 4018SOL    HW114061   5.706   3.742  18.350
 4018SOL    HW214062  16.755 -18.291   7.167
 4019SOL     OW14063   2.082   5.929   7.639
 4019SOL    HW114064  13.054  -5.044   7.626
 4019SOL    HW214065   2.038   5.846   7.619
 4020SOL     OW14066   4.895   1.448   2.100
 4020SOL    HW114067   4.987   1.436   2.121
 4020SOL    HW214068 -39.265   1.471   2.008
 4021SOL     OW14069  10.774   8.382   7.904
 4021SOL    HW114070  10.841   8.314  -3.135
 4021SOL    HW214071  10.784   8.426  -3.051
 4022SOL     OW14072   5.285  10.650   8.186
 4022SOL    HW114073  16.306  10.558   8.201
 4022SOL    HW214074  27.329  -0.372   8.098
 4023SOL     OW14075   2.762   9.373   9.629
 4023SOL    HW114076  -8.205  -1.651   9.689
 4023SOL    HW214077   2.720  -1.745   9.664
 4024SOL     OW14078   4.373   7.961  10.597
 4024SOL    HW114079   4.410   7.961  -0.530
 4024SOL    HW214080   4.387  30.129  -0.410
 4025SOL     OW14081  10.195   3.080   4.548
 4025SOL    HW114082  10.286  14.129   4.579
 4025SOL    HW214083 -11.896 -18.926  -6.552
 4026SOL     OW14084   8.238   8.378   6.968
 4026SOL    HW114085   8.233  19.462  40.172
 4026SOL    HW214086  -2.865  19.346   6.975
 4027SOL     OW14087   8.022   6.939   8.417
 4027SOL    HW114088   7.987   6.850   8.425
 4027SOL    HW214089   8.020   6.958  30.403
 4028SOL     OW14090  11.308   9.948   3.282
 4028SOL    HW114091  11.345  -1.004   3.273
 4028SOL    HW214092   0.298   9.918   3.367
 4029SOL     OW14093  10.383   4.320  10.471
 4029SOL    HW114094  10.352   4.233  10.446
 4029SOL    HW214095  10.361   4.329  -0.476
 4030SOL     OW14096   9.597   9.263   8.388
 4030SOL    HW114097  -1.469   9.338   8.441
 4030SOL    HW214098   9.644   9.205   8.448
 4031SOL     OW14099   6.272   8.477   1.030
 4031SOL    HW114100  17.282   8.422   1.103
 4031SOL    HW214101   6.297   8.415   0.962
 4032SOL     OW14102   1.467  10.225   7.048
 4032SOL    HW114103  -9.620  -0.819  18.170
 4032SOL    HW214104  12.475  10.149   6.998
 4033SOL     OW14105   5.492   8.454  10.830
 4033SOL    HW114106  27.624  30.589 -11.192
 4033SOL    HW214107   5.498   8.367  10.869
 4034SOL     OW14108   3.705   9.635   9.654
 4034SOL    HW114109   3.733   9.718   9.693
 4034SOL    HW214110   3.656  20.631  20.763
 4035SOL     OW14111   9.878   9.486   7.399
 4035SOL    HW114112  -1.085   9.458  -3.590
 4035SOL    HW214113   9.863  -1.624   7.336
 4036SOL     OW14114   9.631   9.070  11.015
 4036SOL    HW114115   9.671   9.139  10.963
 4036SOL    HW214116   9.579  -1.924  11.081
 4037SOL     OW14117   0.747   1.321   1.627
 4037SOL    HW114118   0.757  -9.737   1.534
 4037SOL    HW214119   0.829   1.291  23.745
 4038SOL     OW14120   7.459   6.826   8.560
 4038SOL    HW114121  51.562   6.899  -2.449
 4038SOL    HW214122  18.458   6.799  -2.563
 4039SOL     OW14123   8.252   7.332   1.487
 4039SOL    HW114124   8.272  18.333   1.401
 4039SOL    HW214125   8.193   7.405   1.468
 4040SOL     OW14126   0.545   4.160   6.335
 4040SOL    HW114127   0.586   4.246   6.330
 4040SOL    HW214128  11.519 -51.029   6.404
 4041SOL     OW14129   3.194   1.179   8.574
 4041SOL    HW114130  36.297   1.086   8.558
 4041SOL    HW214131  14.184  23.303   8.506
 4042SOL     OW14132   3.994   9.765   5.836
 4042SOL    HW114133   4.089   9.756   5.840
 4042SOL    HW214134   3.962   9.679   5.808
 4043SOL     OW14135   1.000   0.318   7.827
 4043SOL    HW114136 -32.042   0.271  -3.245
 4043SOL    HW214137  23.055   0.272  18.947
 4044SOL     OW14138   6.378   4.968   9.450
 4044SOL    HW114139   6.309   5.008   9.503
 4044SOL    HW214140   6.435   4.924   9.513
 4045SOL     OW14141   0.569   0.474   6.450
 4045SOL    HW114142   0.574  22.550   6.545
 4045SOL    HW214143   0.575   0.568  17.469
 4046SOL     OW14144   1.942   3.704  -1.214
 4046SOL    HW114145   1.968  25.864  -1.169
 4046SOL    HW214146   1.988  25.714  31.951
 4047SOL     OW14147   5.566   2.527  10.943
 4047SOL    HW114148  27.549   2.532  10.945
 4047SOL    HW214149  27.673  24.657  11.019
 4048SOL     OW14150   3.146  10.272   2.462
 4048SOL    HW114151   3.225  -0.717   2.445
 4048SOL    HW214152   3.134  10.276   2.556
 4049SOL     OW14153   7.982   1.903  10.166
 4049SOL    HW114154   8.043   1.900  21.132
 4049SOL    HW214155   8.021   1.845  10.232
 4050SOL     OW14156   5.567   8.305   9.952
 4050SOL    HW114157   5.625   8.363  10.001
 4050SOL    HW214158   5.484   8.307  -1.039
 4051SOL     OW14159   3.523   3.065  12.779
 4051SOL    HW114160   3.534   3.076 -20.434
 4051SOL    HW214161   3.583  -8.046   1.763
 4052SOL     OW14162   5.662   0.308   0.836
 4052SOL    HW114163   5.648  33.332   0.839
 4052SOL    HW214164   5.595   0.341   0.776
 4053SOL     OW14165   4.224   7.062   8.643
 4053SOL    HW114166   4.236   7.137   8.585
 4053SOL    HW214167  -6.772   6.990   8.598
 4054SOL     OW14168   8.614   4.097   2.829
 4054SOL    HW114169   8.684   4.148   2.870
 4054SOL    HW214170   8.555   4.075   2.901
 4055SOL     OW14171   4.082   6.237   8.384
 4055SOL    HW114172  -6.877   6.224   8.434
 4055SOL    HW214173   4.110   6.274 -24.818
 4056SOL     OW14174   6.555   3.151   4.437
 4056SOL    HW114175  28.590 -18.850 -17.609
 4056SOL    HW214176  28.628  14.199   4.341
 4057SOL     OW14177   5.440   7.344   1.000
 4057SOL    HW114178   5.459  18.295   0.970
 4057SOL    HW214179   5.430   7.336   1.095
 4058SOL     OW14180   4.414   9.259   7.218
 4058SOL    HW114181  15.381  -1.718  18.250
 4058SOL    HW214182  37.490  -1.865  29.314
 4059SOL     OW14183   1.688   5.583   9.052
 4059SOL    HW114184   1.671   5.515   8.987
 4059SOL    HW214185   1.769   5.555  20.134
 4060SOL     OW14186   0.701   2.931   1.945
 4060SOL    HW114187  11.825   2.971  -9.115
 4060SOL    HW214188   0.706   2.844  -9.132
 4061SOL     OW14189   5.638   9.823   6.113
 4061SOL    HW114190 -16.528   9.863   6.115
 4061SOL    HW214191  -5.400   9.774  28.110
 4062SOL     OW14192   5.127  10.509   9.465
 4062SOL    HW114193  16.137  10.515   9.375
 4062SOL    HW214194   5.068  10.565   9.515
 4063SOL     OW14195   5.544   7.920   8.509
 4063SOL    HW114196  -5.531  -3.158  -2.450
 4063SOL    HW214197   5.504   7.869  19.478
 4064SOL     OW14198   1.847   4.284   7.496
 4064SOL    HW114199   1.772   4.245  18.582
 4064SOL    HW214200   1.810   4.318   7.415
 4065SOL     OW14201   0.042   5.937   8.399
 4065SOL    HW114202   0.054   6.006 -13.615
 4065SOL    HW214203  -0.031   5.968   8.345
 4066SOL     OW14204   3.129   2.064   2.232
 4066SOL    HW114205  14.196   2.155   2.244
 4066SOL    HW214206   3.178  -9.024   2.298
 4067SOL     OW14207   8.486  -0.458   0.831
 4067SOL    HW114208   8.533  -0.471   0.913
 4067SOL    HW214209 -13.561  10.666   0.799
 4068SOL     OW14210   0.603   6.534  10.372
 4068SOL    HW114211   0.668   6.572  10.313
 4068SOL    HW214212   0.557   6.610  10.409
 4069SOL     OW14213   9.964   4.621   2.138
 4069SOL    HW114214  -1.074   4.574   2.221
 4069SOL    HW214215   9.951   4.713   2.162
 4070SOL     OW14216   6.260   2.003   3.903
 4070SOL    HW114217   6.279   2.096   3.907
 4070SOL    HW214218   6.325   1.967   3.843
 4071SOL     OW14219   3.097   1.219   2.152
 4071SOL    HW114220   3.130   1.192 -19.841
 4071SOL    HW214221   3.032   1.287  -8.868
 4072SOL     OW14222   1.567   8.619  10.404
 4072SOL    HW114223   1.522   8.639  10.322
 4072SOL    HW214224   1.639   8.682  10.408
 4073SOL     OW14225   4.939   4.808  10.581
 4073SOL    HW114226  15.932  37.905  10.501
 4073SOL    HW214227  27.022   4.904  10.581
 4074SOL     OW14228   5.698   2.876  10.176
 4074SOL    HW114229  -5.298  -8.234  21.263
 4074SOL    HW214230  -5.409   2.907  10.237
 4075SOL     OW14231   5.218  11.424   0.871
 4075SOL    HW114232  16.185  11.425   0.933
 4075SOL    HW214233   5.192   0.445 -10.238
 4076SOL     OW14234   5.202  10.865   4.615
 4076SOL    HW114235   5.154  10.947  15.645
 4076SOL    HW214236   5.218  10.856   4.709
 4077SOL     OW14237  11.005   5.031   1.055
 4077SOL    HW114238  -0.074   5.012   1.141
 4077SOL    HW214239  11.099  -6.015  -9.970
 4078SOL     OW14240  -1.321   2.981   3.612
 4078SOL    HW114241  20.851  25.042   3.621
 4078SOL    HW214242  20.747  14.109  -7.394
 4079SOL     OW14243   9.759   1.502   2.268
 4079SOL    HW114244   9.729   1.412  -8.761
 4079SOL    HW214245   9.824   1.515   2.337
 4080SOL     OW14246   3.048   4.398  11.249
 4080SOL    HW114247   3.075  -6.678  11.165
 4080SOL    HW214248   3.126  15.481   0.244
 4081SOL     OW14249   2.040   7.917   5.862
 4081SOL    HW114250   1.997   7.870   5.934
 4081SOL    HW214251   2.024  18.903   5.785
 4082SOL     OW14252   9.542   1.385   9.821
 4082SOL    HW114253   9.546 -20.708   9.916
 4082SOL    HW214254   9.619   1.339   9.787
 4083SOL     OW14255  10.125   5.220   3.721
 4083SOL    HW114256  10.036   5.196   3.698
 4083SOL    HW214257  10.151   5.284  -7.385
 4084SOL     OW14258   0.270   8.358  10.089
 4084SOL    HW114259   0.303  -2.596  10.116
 4084SOL    HW214260  11.276   8.319  10.170
 4085SOL     OW14261   0.670   4.412   8.416
 4085SOL    HW114262   0.747   4.416   8.473
 4085SOL    HW214263   0.701   4.371  41.454
 4086SOL     OW14264   9.287  -1.066   7.907
 4086SOL    HW114265   9.275  10.011   7.820
 4086SOL    HW214266   9.282  21.088   7.966
 4087SOL     OW14267   7.435   8.806   7.390
 4087SOL    HW114268  -3.521   8.848  -3.668
 4087SOL    HW214269   7.394   8.796   7.304
 4088SOL     OW14270   5.493   9.677   4.237
 4088SOL    HW114271   5.443   9.694  -6.722
 4088SOL    HW214272   5.548   9.755  48.386
 4089SOL     OW14273   7.364   6.151   1.107
 4089SOL    HW114274 -14.685   6.149  -9.841
 4089SOL    HW214275   7.377   6.242   1.080
 4090SOL     OW14276   6.600  -0.262   3.546
 4090SOL    HW114277   6.592  -0.170   3.571
 4090SOL    HW214278   6.619  10.779   3.452
 4091SOL     OW14279   7.206   5.555   8.815
 4091SOL    HW114280   7.255  27.703   8.769
 4091SOL    HW214281   7.255   5.542  -2.144
 4092SOL     OW14282   5.800   3.668   3.802
 4092SOL    HW114283  27.808   3.704   3.855
 4092SOL    HW214284  16.797  14.678   3.721
 4093SOL     OW14285  -1.555   2.660   2.725
 4093SOL    HW114286  -1.472   2.613  13.758
 4093SOL    HW214287  31.513   2.612   2.790
 4094SOL     OW14288   2.254   7.002  10.098
 4094SOL    HW114289   2.195  29.021 -11.936
 4094SOL    HW214290   2.225   7.089  10.126
 4095SOL     OW14291   1.817   6.527   5.393
 4095SOL    HW114292   1.880   6.518  -5.718
 4095SOL    HW214293  -9.203  39.573   5.452
 4096SOL     OW14294   5.843  10.886   5.013
 4096SOL    HW114295  27.918  10.976   4.980
 4096SOL    HW214296   5.918  10.848   4.968
 4097SOL     OW14297   7.593   9.980   2.578
 4097SOL    HW114298   7.629   9.992   2.666
 4097SOL    HW214299   7.562  21.106   2.553
 4098SOL     OW14300   1.932   0.665   2.501
 4098SOL    HW114301  12.990   0.730   2.434
 4098SOL    HW214302  23.915   0.665   2.509
 4099SOL     OW14303   6.479   8.293  10.810
 4099SOL    HW114304   6.562   8.305  10.765
 4099SOL    HW214305   6.424   8.366  10.781
 4100SOL     OW14306   4.953  -0.474   8.149
 4100SOL    HW114307   5.024  32.692   8.105
 4100SOL    HW214308  15.912  -0.435   8.114
 4101SOL     OW14309   8.400   4.472   9.733
 4101SOL    HW114310   8.332  15.564  31.770
 4101SOL    HW214311  19.399   4.387   9.748
 4102SOL     OW14312   4.155   3.214   6.178
 4102SOL    HW114313  -6.971   3.234  17.182
 4102SOL    HW214314   4.205   3.181   6.104
 4103SOL     OW14315   4.136   1.549   4.150
 4103SOL    HW114316  -6.890  12.651   4.222
 4103SOL    HW214317   4.112   1.467  -6.846
 4104SOL     OW14318   6.921   4.066   5.839
 4104SOL    HW114319  18.010   4.030  16.805
 4104SOL    HW214320   6.841  26.092   5.843
 4105SOL     OW14321   6.603   6.846  10.382
 4105SOL    HW114322  -4.417   6.939  -0.645
 4105SOL    HW214323  -4.401   6.804  10.460
 4106SOL     OW14324   5.440   9.649   6.703
 4106SOL    HW114325   5.381   9.717 -15.344
 4106SOL    HW214326  -5.623   9.639  -4.429
 4107SOL     OW14327  -0.385   6.967   4.853
 4107SOL    HW114328  10.675  18.095   4.883
 4107SOL    HW214329  -0.308   6.941   4.802
 4108SOL     OW14330   7.746   0.637  -1.514
 4108SOL    HW114331   7.828   0.620  -1.467
 4108SOL    HW214332  29.794   0.550  31.578
 4109SOL     OW14333  10.171   4.549   4.300
 4109SOL    HW114334  10.114   4.500   4.240
 4109SOL    HW214335  10.193 -28.490  -6.788
 4110SOL     OW14336   1.009   0.126   2.013
 4110SOL    HW114337 -10.113  11.126  -9.053
 4110SOL    HW214338   1.057   0.055   2.055
 4111SOL     OW14339   8.730   2.233   2.348
 4111SOL    HW114340  30.788   2.178  -8.617
 4111SOL    HW214341   8.794   2.296   2.381
 4112SOL     OW14342   8.781   0.538   3.126
 4112SOL    HW114343   8.729   0.618 -41.032
 4112SOL    HW214344   8.728   0.475  25.158
 4113SOL     OW14345   4.841   4.644   0.120
 4113SOL    HW114346  27.001   4.682   0.087
 4113SOL    HW214347  15.811   4.701   0.087
 4114SOL     OW14348   4.330   9.560   3.565
 4114SOL    HW114349  15.306   9.594  25.707
 4114SOL    HW214350   4.281   9.498   3.512
 4115SOL     OW14351  11.788   9.684   6.608
 4115SOL    HW114352  11.770   9.703   6.516
 4115SOL    HW214353 -10.215  -1.414   6.606
 4116SOL     OW14354   5.476   4.034   8.906
 4116SOL    HW114355   5.500   3.950  -2.094
 4116SOL    HW214356   5.464   4.015   8.813
 4117SOL     OW14357  13.250   0.847  11.340
 4117SOL    HW114358 -41.945 -10.285   0.273
 4117SOL    HW214359  13.220   0.893  11.261
 4118SOL     OW14360   3.734   6.439   8.075
 4118SOL    HW114361   3.750   6.345   8.084
 4118SOL    HW214362   3.713   6.451   7.982
 4119SOL     OW14363   2.879   9.977  10.012
 4119SOL    HW114364   2.791  10.011   9.995
 4119SOL    HW214365   2.888   9.981  -0.932
 4120SOL     OW14366  10.425   4.743   7.288
 4120SOL    HW114367  10.429  -6.224  -3.814
 4120SOL    HW214368  10.352 -17.314   7.346
 4121SOL     OW14369   0.592  10.036   6.279
 4121SOL    HW114370   0.680  10.057   6.249
 4121SOL    HW214371  11.643  10.007   6.370
 4122SOL     OW14372   2.021   1.487   1.386
 4122SOL    HW114373   1.950   1.441  23.421
 4122SOL    HW214374   2.059   1.543   1.318
 4123SOL     OW14375   1.398   0.623   7.792
 4123SOL    HW114376   1.400   0.560   7.864
 4123SOL    HW214377   1.310   0.660   7.795
 4124SOL     OW14378   0.451   2.570   8.414
 4124SOL    HW114379   0.523  13.659  19.493
 4124SOL    HW214380   0.485   2.543  30.408
 4125SOL     OW14381   5.124   1.406   3.631
 4125SOL    HW114382   5.130   1.315   3.658
 4125SOL    HW214383   5.057   1.406   3.562
 4126SOL     OW14384  13.198   3.781   4.815
 4126SOL    HW114385  13.145   3.848   4.857
 4126SOL    HW214386 -30.998   3.698   4.845
 4127SOL     OW14387  -1.124   7.259   3.635
 4127SOL    HW114388  21.012 -14.866  -7.466
 4127SOL    HW214389  -1.107  -3.688   3.617
 4128SOL     OW14390   7.530   4.601  11.448
 4128SOL    HW114391   7.615   4.557 -10.628
 4128SOL    HW214392   7.509   4.607   0.315
 4129SOL     OW14393   2.421   5.901   2.158
 4129SOL    HW114394  -8.706   5.865   2.144
 4129SOL    HW214395   2.410 -27.123  13.188
 4130SOL     OW14396  10.678   4.772  10.981
 4130SOL    HW114397  21.665   4.843  -0.097
 4130SOL    HW214398 -33.427   4.740  10.908
 4131SOL     OW14399   0.916  12.524   7.048
 4131SOL    HW114400   0.889 -20.507   7.075
 4131SOL    HW214401   0.883  12.516   6.958
 4132SOL     OW14402   2.399   5.296   5.093
 4132SOL    HW114403  13.376  16.330   5.165
 4132SOL    HW214404   2.404  16.247  -5.982
 4133SOL     OW14405   8.476   0.419   3.594
 4133SOL    HW114406  -2.569   0.338   3.544
 4133SOL    HW214407   8.545   0.469   3.551
 4134SOL     OW14408   8.971   9.505   7.972
 4134SOL    HW114409  20.038  31.596   7.882
 4134SOL    HW214410   8.962   9.594   8.007
 4135SOL     OW14411  -0.147   7.032   9.463
 4135SOL    HW114412  21.981  18.073   9.381
 4135SOL    HW214413  -0.201   7.111  20.499
 4136SOL     OW14414   6.018   8.915   8.528
 4136SOL    HW114415  17.075   8.836   8.579
 4136SOL    HW214416   6.027   8.987  19.630
 4137SOL     OW14417   6.282   2.384   7.448
 4137SOL    HW114418 -15.789   2.301   7.400
 4137SOL    HW214419   6.191  13.426   7.477
 4138SOL     OW14420   0.381   2.270  10.891
 4138SOL    HW114421  11.462   2.354  10.912
 4138SOL    HW214422   0.408   2.211  10.962
 4139SOL     OW14423   5.194   4.509   9.196
 4139SOL    HW114424  27.326   4.587   9.180
 4139SOL    HW214425  27.336  37.560   9.220
 4140SOL     OW14426   5.688   2.287   0.192
 4140SOL    HW114427   5.750  -8.699  11.183
 4140SOL    HW214428   5.743 -19.854 -10.799
 4141SOL     OW14429   5.613   4.224   1.555
 4141SOL    HW114430  -5.499   4.190   1.503
 4141SOL    HW214431   5.571  15.314  12.665
 4142SOL     OW14432   4.572   4.699   0.943
 4142SOL    HW114433   4.609   4.756   1.011
 4142SOL    HW214434   4.481  -6.353   0.970
 4143SOL     OW14435   6.550   1.515   0.353
 4143SOL    HW114436   6.454 -20.573  11.393
 4143SOL    HW214437   6.573   1.530 -10.595
 4144SOL     OW14438   0.299   7.723   9.971
 4144SOL    HW114439   0.362  18.729  -1.005
 4144SOL    HW214440   0.229   7.760  10.024
 4145SOL     OW14441   2.981   4.816  10.738
 4145SOL    HW114442   3.055   4.845  10.791
 4145SOL    HW214443   2.962  37.846  10.770
 4146SOL     OW14444   9.589   0.010   8.066
 4146SOL    HW114445 -23.506  -0.082   8.056
 4146SOL    HW214446   9.493  22.090  19.094
 4147SOL     OW14447  10.175   3.242   3.814
 4147SOL    HW114448  10.225   3.170   3.776
 4147SOL    HW214449  10.200   3.318   3.762
 4148SOL     OW14450  10.301   8.675   9.655
 4148SOL    HW114451  10.272   8.731   9.727
 4148SOL    HW214452  10.388  -2.395   9.682
 4149SOL     OW14453   4.742   0.899   0.605
 4149SOL    HW114454  -6.390   0.885  11.623
 4149SOL    HW214455  -6.295   0.987   0.644
 4150SOL     OW14456   5.618  -0.279   7.466
 4150SOL    HW114457   5.655  10.687   7.417
 4150SOL    HW214458   5.566  -0.321  18.574
 4151SOL     OW14459   2.232   5.532   6.290
 4151SOL    HW114460   2.195  16.484  -4.751
 4151SOL    HW214461   2.301  27.607  -4.684
 4152SOL     OW14462   2.641   6.410   9.976
 4152SOL    HW114463  13.715   6.488  10.020
 4152SOL    HW214464   2.550   6.431   9.955
 4153SOL     OW14465   7.058   6.762   8.688
 4153SOL    HW114466  -3.981   6.817  19.650
 4153SOL    HW214467  -3.987   6.824  19.801
 4154SOL     OW14468   6.407   3.278   3.326
 4154SOL    HW114469   6.496  14.351  14.371
 4154SOL    HW214470 -15.676   3.233   3.241
 4155SOL     OW14471   8.433   5.894   2.488
 4155SOL    HW114472  30.606   5.875  -8.547
 4155SOL    HW214473   8.392   5.812 -19.616
 4156SOL     OW14474   8.372   5.118   1.598
 4156SOL    HW114475   8.412   5.205  12.630
 4156SOL    HW214476   8.402   5.071   1.520
 4157SOL     OW14477  10.313  -0.271   5.809
 4157SOL    HW114478  10.260  -0.348   5.788
 4157SOL    HW214479  10.340  21.843 -38.434
 4158SOL     OW14480   7.251   4.610   0.443
 4158SOL    HW114481   7.335   4.584   0.479
 4158SOL    HW214482   7.209  37.647   0.416
 4159SOL     OW14483   8.117   5.092   7.779
 4159SOL    HW114484  -2.989  27.128   7.833
 4159SOL    HW214485  -2.841   5.076  -3.213
 4160SOL     OW14486  13.894   3.947   6.366
 4160SOL    HW114487 -19.260   3.925   6.452
 4160SOL    HW214488 -19.194   3.864   6.330
 4161SOL     OW14489   2.037   4.507  10.361
 4161SOL    HW114490   2.003   4.526  10.449
 4161SOL    HW214491   2.121  26.544  10.377
 4162SOL     OW14492   5.139   5.357   7.107
 4162SOL    HW114493  -5.844   5.337   7.181
 4162SOL    HW214494   5.144   5.280   7.051
 4163SOL     OW14495   2.699  10.520   6.528
 4163SOL    HW114496   2.741 -11.536   6.611
 4163SOL    HW214497   2.722 -11.487  -4.570
 4164SOL     OW14498  -1.371   3.432   9.480
 4164SOL    HW114499  31.730   3.423   9.387
 4164SOL    HW214500  -1.369  14.566   9.495
 4165SOL     OW14501   2.264   7.136   4.597
 4165SOL    HW114502 -19.895   7.121   4.649
 4165SOL    HW214503   2.332   7.154   4.662
 4166SOL     OW14504   2.409   1.495   6.686
 4166SOL    HW114505 -30.620   1.486   6.720
 4166SOL    HW214506   2.388   1.408   6.651
 4167SOL     OW14507   8.564   5.784   9.988
 4167SOL    HW114508  30.582   5.712  10.004
 4167SOL    HW214509  19.647   5.760   9.906
 4168SOL     OW14510   5.464  -0.751   8.615
 4168SOL    HW114511   5.487  10.261   8.703
 4168SOL    HW214512   5.536  32.426 -13.490
 4169SOL     OW14513   2.995   6.340   9.843
 4169SOL    HW114514   3.003   6.389   9.925
 4169SOL    HW214515   3.061  17.310   9.850
 4170SOL     OW14516   8.516   5.222   8.486
 4170SOL    HW114517  -2.448   5.258   8.533
 4170SOL    HW214518   8.535   5.240   8.394
 4171SOL     OW14519   5.279   0.250  11.283
 4171SOL    HW114520  27.370   0.192   0.319
 4171SOL    HW214521  -5.791   0.332 -10.759
 4172SOL     OW14522   3.299   5.697   0.620
 4172SOL    HW114523   3.357  16.789   0.564
 4172SOL    HW214524 -18.858   5.751   0.631
 4173SOL     OW14525   9.812   6.627  10.057
 4173SOL    HW114526  -1.259   6.715  10.076
 4173SOL    HW214527  -1.184  28.678  10.138
 4174SOL     OW14528   2.052   9.484   6.883
 4174SOL    HW114529   2.028  20.444   6.930
 4174SOL    HW214530  13.044   9.554  17.968
 4175SOL     OW14531   0.114   5.162   6.687
 4175SOL    HW114532   0.154   5.246   6.710
 4175SOL    HW214533  11.165   5.156   6.592
 4176SOL     OW14534  10.905   5.123   1.563
 4176SOL    HW114535  10.850   5.201   1.558
 4176SOL    HW214536  10.962   5.138   1.638
 4177SOL     OW14537   5.032   0.012   0.126
 4177SOL    HW114538  16.004  10.984   0.138
 4177SOL    HW214539  27.080   0.086   0.178
 4178SOL     OW14540   5.521   1.747   3.890
 4178SOL    HW114541 -16.644   1.746   3.849
 4178SOL    HW214542   5.555   1.658   3.877
 4179SOL     OW14543   2.567   9.306  10.201
 4179SOL    HW114544  13.642   9.394  -0.826
 4179SOL    HW214545   2.529   9.283  21.325
 4180SOL     OW14546   1.417   8.457   7.478
 4180SOL    HW114547  23.588  -2.563  -3.547
 4180SOL    HW214548  -9.648  30.483  -3.486
 4181SOL     OW14549   4.349   3.834   8.584
 4181SOL    HW114550  26.418  -7.121   8.628
 4181SOL    HW214551   4.379   3.774  19.692
 4182SOL     OW14552   7.906   7.882   3.269
 4182SOL    HW114553  29.948   7.794   3.277
 4182SOL    HW214554   7.829   7.938   3.256
 4183SOL     OW14555   5.547  -0.387   8.739
 4183SOL    HW114556   5.576  10.566  -2.272
 4183SOL    HW214557   5.519  -0.400   8.649
 4184SOL     OW14558   5.329   0.847   0.350
 4184SOL    HW114559  -5.697 -10.161   0.440
 4184SOL    HW214560  16.366   0.751   0.359
 4185SOL     OW14561   5.802   2.839   6.231
 4185SOL    HW114562   5.833   2.929   6.216
 4185SOL    HW214563  16.893   2.808   6.305
 4186SOL     OW14564   4.989   5.855   0.413
 4186SOL    HW114565  16.085   5.927  11.425
 4186SOL    HW214566   4.932   5.893 -10.560
 4187SOL     OW14567   1.366   8.394   6.660
 4187SOL    HW114568   1.314   8.315  -4.364
 4187SOL    HW214569   1.409   8.378   6.575
 4188SOL     OW14570   5.463   5.987   8.746
 4188SOL    HW114571  -5.498 -16.067   8.698
 4188SOL    HW214572   5.427   5.913   8.697
 4189SOL     OW14573   7.239   6.942   6.592
 4189SOL    HW114574  29.383   6.873   6.599
 4189SOL    HW214575  51.337   6.912   6.524
 4190SOL     OW14576   4.466   4.122   3.679
 4190SOL    HW114577  15.523   4.149  -7.451
 4190SOL    HW214578   4.517   4.043   3.691
 4191SOL     OW14579   0.977   9.332  11.214
 4191SOL    HW114580   1.050  20.311   0.186
 4191SOL    HW214581   1.018   9.418   0.166
 4192SOL     OW14582   5.842  -2.068   2.405
 4192SOL    HW114583 -16.192  20.057   2.476
 4192SOL    HW214584  16.948  20.000   2.337
 4193SOL     OW14585   0.764   3.200   6.180
 4193SOL    HW114586   0.819   3.122  17.213
 4193SOL    HW214587   0.738   3.204  -4.767
 4194SOL     OW14588  13.051   4.725   6.135
 4194SOL    HW114589 -31.035   4.692   6.081
 4194SOL    HW214590  13.072  15.856   6.152
 4195SOL     OW14591  10.576   9.093   7.320
 4195SOL    HW114592  10.519   9.120   7.392
 4195SOL    HW214593  10.664   9.120   7.347
 4196SOL     OW14594   6.080   0.374   9.249
 4196SOL    HW114595   6.011   0.391   9.185
 4196SOL    HW214596   6.083  11.319   9.257
 4197SOL     OW14597   6.800  -0.115   7.361
 4197SOL    HW114598   6.753  -0.129 -14.800
 4197SOL    HW214599  39.913  11.019   7.377
 4198SOL     OW14600   4.643  10.909   4.363
 4198SOL    HW114601   4.558  -0.131   4.407
 4198SOL    HW214602  15.683 -11.090  26.390
 4199SOL     OW14603   3.545   6.151   1.091
 4199SOL    HW114604   3.589   6.214   1.148
 4199SOL    HW214605   3.469   6.198  12.097
 4200SOL     OW14606   7.196   2.624   4.093
 4200SOL    HW114607  18.197   2.614   4.006
 4200SOL    HW214608  18.167   2.667   4.145
 4201SOL     OW14609   9.631  10.171   8.426
 4201SOL    HW114610  20.599  10.209   8.375
 4201SOL    HW214611   9.639  -0.958   8.392
 4202SOL     OW14612  10.142   3.633   2.109
 4202SOL    HW114613  10.172   3.669   2.026
 4202SOL    HW214614  10.114   3.709   2.160
 4203SOL     OW14615   5.361   6.021   8.145
 4203SOL    HW114616   5.395   5.960  30.290
 4203SOL    HW214617   5.402  -5.047  19.103
 4204SOL     OW14618   0.243  11.912   6.003
 4204SOL    HW114619   0.279  11.831  17.077
 4204SOL    HW214620   0.148 -21.214   6.017
 4205SOL     OW14621   1.450   6.393   9.257
 4205SOL    HW114622   1.503  17.483  31.275
 4205SOL    HW214623  -9.565   6.426   9.343
 4206SOL     OW14624   8.666   1.652   5.716
 4206SOL    HW114625   8.653   1.565   5.753
 4206SOL    HW214626   8.662  12.751   5.792
 4207SOL     OW14627   8.712   2.063   2.638
 4207SOL    HW114628   8.697   1.974   2.670
 4207SOL    HW214629 -13.443  13.152   2.669
 4208SOL     OW14630   8.690   6.720   1.672
 4208SOL    HW114631   8.761   6.717   1.607
 4208SOL    HW214632   8.610   6.717  -9.420
 4209SOL     OW14633  -0.450   6.547  10.875
 4209SOL    HW114634  10.584   6.516  -0.256
 4209SOL    HW214635  10.673   6.594  -0.160
 4210SOL     OW14636   3.091   1.041   0.886
 4210SOL    HW114637   3.186   1.034   0.896
 4210SOL    HW214638   3.058   1.048  12.015
 4211SOL     OW14639   8.507   5.291   5.383
 4211SOL    HW114640   8.426  49.411   5.349
 4211SOL    HW214641   8.485  16.422   5.400
 4212SOL     OW14642   9.494   9.960   4.327
 4212SOL    HW114643   9.420   9.947  -6.772
 4212SOL    HW214644  20.556  10.052  26.397
 4213SOL     OW14645   9.005   9.889  10.542
 4213SOL    HW114646 -24.060  -1.073  10.530
 4213SOL    HW214647   9.041  -1.193  10.620
 4214SOL     OW14648   8.655   1.384   3.482
 4214SOL    HW114649   8.683  -9.605  14.598
 4214SOL    HW214650   8.638   1.450   3.415
 4215SOL     OW14651  11.323   5.445   3.577
 4215SOL    HW114652  11.237  38.600   3.557
 4215SOL    HW214653 -21.760  16.457   3.492
 4216SOL     OW14654   6.717   6.516   8.492
 4216SOL    HW114655  -4.337   6.449  -2.615
 4216SOL    HW214656 -15.317  17.510  -2.477
 4217SOL     OW14657   5.789   2.927   0.577
 4217SOL    HW114658   5.787   3.005  11.562
 4217SOL    HW214659   5.809   2.958  11.705
 4218SOL     OW14660  10.931   2.038   6.844
 4218SOL    HW114661  10.992   1.965  -4.190
 4218SOL    HW214662  10.980   2.106 -15.282
 4219SOL     OW14663   9.956   8.429  10.000
 4219SOL    HW114664  10.025  19.427  10.051
 4219SOL    HW214665   9.953  30.458   9.919
 4220SOL     OW14666   1.299  10.705   4.886
 4220SOL    HW114667   1.312  -0.301 -17.105
 4220SOL    HW214668   1.216  10.657   4.891
 4221SOL     OW14669   1.554   2.506   9.738
 4221SOL    HW114670   1.573   2.452   9.815
 4221SOL    HW214671   1.463   2.533   9.749
 4222SOL     OW14672   6.786   7.774   2.081
 4222SOL    HW114673  -4.308   7.846   2.050
 4222SOL    HW214674   6.837   7.812  -8.887
 4223SOL     OW14675   5.425   6.361   5.537
 4223SOL    HW114676  49.676   6.368   5.517
 4223SOL    HW214677  38.511   6.451   5.534
 4224SOL     OW14678   5.010   2.785   2.143
 4224SOL    HW114679   4.945   2.728   2.186
 4224SOL    HW214680   5.092   2.764 -30.932
 4225SOL     OW14681   8.733  10.686   6.963
 4225SOL    HW114682   8.732  10.693   6.868
 4225SOL    HW214683   8.692  10.767  18.033
 4226SOL     OW14684   5.469   0.751   3.598
 4226SOL    HW114685   5.429   0.835  14.660
 4226SOL    HW214686 -38.708  11.735   3.674
 4227SOL     OW14687   2.320   1.814   5.486
 4227SOL    HW114688   2.289   1.787   5.399
 4227SOL    HW214689  24.494  12.844   5.481
 4228SOL     OW14690   9.556   3.034   2.356
 4228SOL    HW114691   9.498  14.104  -8.753
 4228SOL    HW214692   9.539   2.940   2.361
 4229SOL     OW14693   0.648   6.295   6.090
 4229SOL    HW114694 -10.430   6.351   6.023
 4229SOL    HW214695   0.602   6.318   6.171
 4230SOL     OW14696   6.799   8.026   3.788
 4230SOL    HW114697   6.714   8.019   3.832
 4230SOL    HW214698  17.893   8.075 -29.270
 4231SOL     OW14699  10.628   7.609   5.007
 4231SOL    HW114700  10.594   7.603   4.918
 4231SOL    HW214701 -11.516  29.643   5.061
 4232SOL     OW14702   3.867   1.926   0.868
 4232SOL    HW114703  14.859   1.965  11.981
 4232SOL    HW214704   3.955   1.964  45.032
 4233SOL     OW14705   6.270   3.908   8.508
 4233SOL    HW114706   6.306  -7.219   8.495
 4233SOL    HW214707   6.176  14.936  -2.545
 4234SOL     OW14708   8.553   2.273   3.258
 4234SOL    HW114709   8.570  13.399   3.296
 4234SOL    HW214710   8.604  24.291   3.311
 4235SOL     OW14711  11.428  10.936   5.489
 4235SOL    HW114712 -21.596  10.918  16.528
 4235SOL    HW214713  11.393  10.883   5.418
 4236SOL     OW14714   0.870  10.111   6.172
 4236SOL    HW114715   0.899  -0.949  28.163
 4236SOL    HW214716   0.835  10.200   6.166
 4237SOL     OW14717   7.398   1.265   3.468
 4237SOL    HW114718   7.393   1.254  14.412
 4237SOL    HW214719   7.489   1.244 -18.589
 4238SOL     OW14720   2.411   4.201   3.394
 4238SOL    HW114721   2.451   4.284  14.461
 4238SOL    HW214722   2.401   4.151   3.475
 4239SOL     OW14723   6.866   1.538   4.519
 4239SOL    HW114724   6.870   1.523   4.425
 4239SOL    HW214725   6.954   1.570   4.542
 4240SOL     OW14726   7.044   2.546   4.859
 4240SOL    HW114727   7.099   2.481   4.816
 4240SOL    HW214728  18.064   2.610   4.790
 4241SOL     OW14729   9.119   3.557   7.966
 4241SOL    HW114730   9.163   3.477   7.939
 4241SOL    HW214731   9.187   3.624 -14.116
 4242SOL     OW14732   2.235   9.923   7.584
 4242SOL    HW114733   2.316   9.919   7.533
 4242SOL    HW214734   2.183   9.990  18.579
 4243SOL     OW14735   1.560   6.915   8.691
 4243SOL    HW114736   1.591  29.073  19.687
 4243SOL    HW214737   1.634   6.854  -2.353
 4244SOL     OW14738  -1.455   2.010   6.163
 4244SOL    HW114739  31.742   2.041   6.117
 4244SOL    HW214740  -1.527   2.058 -26.997
 4245SOL     OW14741   4.600   5.955   2.205
 4245SOL    HW114742   4.611   5.973  13.338
 4245SOL    HW214743   4.508   5.973   2.188
 4246SOL     OW14744   5.536   5.343   4.283
 4246SOL    HW114745  16.637  16.321   4.242
 4246SOL    HW214746   5.454   5.329  15.275
 4247SOL     OW14747   8.586   5.680   9.374
 4247SOL    HW114748   8.569   5.684   9.468
 4247SOL    HW214749   8.574   5.588   9.351
 4248SOL     OW14750   2.931   6.452   3.589
 4248SOL    HW114751  14.013 -15.683  14.694
 4248SOL    HW214752  25.022   6.541   3.621
 4249SOL     OW14753   4.625   8.776   0.497
 4249SOL    HW114754  15.651   8.682  33.607
 4249SOL    HW214755   4.622   8.810   0.407
 4250SOL     OW14756   1.046   7.506   3.973
 4250SOL    HW114757   0.955   7.488   3.996
 4250SOL    HW214758   1.041   7.584   3.917
 4251SOL     OW14759   5.643   2.718   2.531
 4251SOL    HW114760  -5.445   2.780   2.477
 4251SOL    HW214761   5.667   2.768   2.609
 4252SOL     OW14762   4.148   6.093   4.332
 4252SOL    HW114763   4.229  17.083   4.320
 4252SOL    HW214764   4.082  39.162   4.284
 4253SOL     OW14765   8.640   9.317   9.359
 4253SOL    HW114766   8.579   9.346   9.291
 4253SOL    HW214767   8.709   9.270  20.351
 4254SOL     OW14768   7.302   7.321   8.583
 4254SOL    HW114769   7.214   7.283   8.587
 4254SOL    HW214770   7.303  18.425   8.653
 4255SOL     OW14771   8.986   5.338   0.909
 4255SOL    HW114772   8.892  16.393   0.906
 4255SOL    HW214773   9.014  27.453   0.993
 4256SOL     OW14774   3.819   7.126  -0.216
 4256SOL    HW114775   3.844  18.120  32.823
 4256SOL    HW214776   3.826   7.219  -0.238
 4257SOL     OW14777   6.201   7.323   6.451
 4257SOL    HW114778  17.298  -3.786   6.484
 4257SOL    HW214779  17.280   7.403   6.485
 4258SOL     OW14780   7.289   0.834   1.767
 4258SOL    HW114781 -25.778 -10.227 -20.390
 4258SOL    HW214782   7.218  34.008   1.734
 4259SOL     OW14783   3.547   7.306   3.468
 4259SOL    HW114784  -7.421  18.409   3.464
 4259SOL    HW214785   3.472   7.351  14.470
 4260SOL     OW14786   6.341   0.397   1.644
 4260SOL    HW114787  17.451   0.343   1.607
 4260SOL    HW214788  17.314  22.479  12.615
 4261SOL     OW14789   6.339   7.807   1.132
 4261SOL    HW114790   6.403  18.814   1.068
 4261SOL    HW214791  17.313   7.738   1.138
 4262SOL     OW14792   2.209   9.390   7.502
 4262SOL    HW114793   2.281   9.363   7.558
 4262SOL    HW214794   2.202   9.485   7.517
 4263SOL     OW14795   7.734   4.676   3.089
 4263SOL    HW114796   7.807   4.617   3.069
 4263SOL    HW214797   7.776   4.758   3.117
 4264SOL     OW14798   8.456   1.623  10.572
 4264SOL    HW114799 -13.691   1.577  10.621
 4264SOL    HW214800 -13.582  12.721  10.636
 4265SOL     OW14801   9.121   4.335   0.568
 4265SOL    HW114802   9.175   4.358   0.644
 4265SOL    HW214803   9.093  15.284   0.585
 4266SOL     OW14804   9.716   6.835   2.856
 4266SOL    HW114805  20.684   6.815   2.915
 4266SOL    HW214806   9.749   6.920  -8.154
 4267SOL     OW14807   6.789   8.244   3.186
 4267SOL    HW114808   6.749   8.174  14.278
 4267SOL    HW214809   6.880   8.248   3.217
 4268SOL     OW14810  12.810  -0.834   8.822
 4268SOL    HW114811  -9.233  21.169   8.777
 4268SOL    HW214812   1.754  32.348  -2.287
 4269SOL     OW14813  10.270   5.348  10.596
 4269SOL    HW114814  21.385   5.290  10.586
 4269SOL    HW214815  10.227   5.346  10.511
 4270SOL     OW14816  -0.240   2.231   8.375
 4270SOL    HW114817  10.717  -8.772   8.409
 4270SOL    HW214818  -0.177   2.244   8.445
 4271SOL     OW14819   7.449   9.650  10.389
 4271SOL    HW114820   7.519   9.618  -0.707
 4271SOL    HW214821 -14.597   9.733  10.424
 4272SOL     OW14822   8.138   2.529   7.218
 4272SOL    HW114823   8.211   2.586   7.195
 4272SOL    HW214824  19.152   2.556   7.306
 4273SOL     OW14825   2.942   5.415   3.286
 4273SOL    HW114826   2.986  49.531  14.252
 4273SOL    HW214827 -19.225  -5.605  14.294
 4274SOL     OW14828   9.256   3.690   3.862
 4274SOL    HW114829  20.270   3.616   3.809
 4274SOL    HW214830   9.240   3.662   3.952
 4275SOL     OW14831   5.078   4.037   2.411
 4275SOL    HW114832  27.093   4.089   2.363
 4275SOL    HW214833   5.028  15.001   2.443
 4276SOL     OW14834   6.872   4.256   8.157
 4276SOL    HW114835   6.842   4.248  30.146
 4276SOL    HW214836   6.794  15.325  19.245
 4277SOL     OW14837   3.222   5.655   2.761
 4277SOL    HW114838  -7.772   5.705   2.828
 4277SOL    HW214839   3.131   5.684   2.768
 4278SOL     OW14840   3.085  11.033   2.237
 4278SOL    HW114841   3.098 -22.178  24.339
 4278SOL    HW214842  25.226  11.049   2.166
 4279SOL     OW14843   8.940   6.672   7.615
 4279SOL    HW114844   8.906   6.583   7.613
 4279SOL    HW214845 -13.179   6.715   7.541
 4280SOL     OW14846  11.245   9.779   2.754
 4280SOL    HW114847  11.267   9.686   2.767
 4280SOL    HW214848 -10.828   9.791   2.660
 4281SOL     OW14849   9.215   2.785   8.096
 4281SOL    HW114850  20.189   2.834   8.145
 4281SOL    HW214851  -1.837   2.812   8.005
 4282SOL     OW14852   2.908   1.406   2.219
 4282SOL    HW114853  -8.176   1.460   2.284
 4282SOL    HW214854  13.948   1.460   2.140
 4283SOL     OW14855   6.045   9.820   9.493
 4283SOL    HW114856   6.039   9.724   9.489
 4283SOL    HW214857   5.957   9.850  31.551
 4284SOL     OW14858   3.698   1.339   4.252
 4284SOL    HW114859   3.692   1.431  15.317
 4284SOL    HW214860  36.842   1.341  26.238
 4285SOL     OW14861  11.783   0.306   4.141
 4285SOL    HW114862 -21.295   0.342   4.219
 4285SOL    HW214863 -21.417   0.266   4.172
 4286SOL     OW14864   9.968   4.087   1.105
 4286SOL    HW114865   9.993   4.173   1.071
 4286SOL    HW214866   9.947  15.142   1.197
 4287SOL     OW14867   6.359   9.801  10.175
 4287SOL    HW114868  17.418  -1.190  -0.945
 4287SOL    HW214869   6.320   9.719  10.144
 4288SOL     OW14870   7.632   0.657   0.144
 4288SOL    HW114871 -14.363   0.677   0.103
 4288SOL    HW214872   7.570   0.715   0.101
 4289SOL     OW14873   7.309   8.202  10.594
 4289SOL    HW114874   7.310   8.296  10.610
 4289SOL    HW214875  -3.666 -13.891  10.525
 4290SOL     OW14876   9.489   7.260   9.293
 4290SOL    HW114877   9.507   7.299   9.208
 4290SOL    HW214878  20.613   7.262 -12.740
 4291SOL     OW14879   6.288   6.628   2.128
 4291SOL    HW114880  17.271   6.683   2.074
 4291SOL    HW214881  17.416   6.642  -8.948
 4292SOL     OW14882   0.672   4.125  11.040
 4292SOL    HW114883   0.689   4.057  10.975
 4292SOL    HW214884 -10.438   4.177  11.002
 4293SOL     OW14885   7.855   6.118   3.900
 4293SOL    HW114886  -3.129   6.173   3.845
 4293SOL    HW214887   7.912  28.168   3.971
 4294SOL     OW14888  -0.563   0.942   1.085
 4294SOL    HW114889  21.456   1.006   1.045
 4294SOL    HW214890  10.459   0.950   1.179
 4295SOL     OW14891   5.363   9.483  10.001
 4295SOL    HW114892   5.320   9.403   9.972
 4295SOL    HW214893   5.432   9.498   9.936
 4296SOL     OW14894   6.749   7.773   7.502
 4296SOL    HW114895   6.704   7.856 -14.559
 4296SOL    HW214896  17.821  40.864  -3.452
 4297SOL     OW14897   6.480   1.794   6.162
 4297SOL    HW114898   6.475   1.884   6.194
 4297SOL    HW214899   6.574   1.775   6.159
 4298SOL     OW14900   7.289   4.485   3.593
 4298SOL    HW114901   7.222   4.545   3.626
 4298SOL    HW214902   7.245   4.436  14.563
 4299SOL     OW14903   0.879   1.187   8.569
 4299SOL    HW114904  11.883  -9.898   8.493
 4299SOL    HW214905   0.972   1.164  -2.470
 4300SOL     OW14906   1.779   4.762   1.366
 4300SOL    HW114907  -9.270   4.715   1.448
 4300SOL    HW214908  12.789   4.851   1.385
 4301SOL     OW14909   5.378   1.843  10.008
 4301SOL    HW114910   5.358   1.863  10.100
 4301SOL    HW214911   5.461   1.795  10.012
 4302SOL     OW14912   2.704   6.660   4.300
 4302SOL    HW114913   2.649   6.660   4.222
 4302SOL    HW214914 -19.431   6.694 -17.709
 4303SOL     OW14915  -0.573   3.809   9.510
 4303SOL    HW114916  -0.586   3.750   9.436
 4303SOL    HW214917  10.505  -7.286   9.578
 4304SOL     OW14918   0.539   0.953   2.590
 4304SOL    HW114919   0.521   0.864  -8.479
 4304SOL    HW214920   0.560   0.944   2.683
 4305SOL     OW14921   4.790   7.406   3.433
 4305SOL    HW114922  -6.207  18.365  -7.577
 4305SOL    HW214923  -6.259  -3.646   3.338
 4306SOL     OW14924   9.776   9.270   5.799
 4306SOL    HW114925   9.789   9.191   5.747
 4306SOL    HW214926   9.817   9.339  16.787
 4307SOL     OW14927   8.745   9.074   8.084
 4307SOL    HW114928   8.753   9.169   8.085
 4307SOL    HW214929 -13.252  -1.998   8.121
 4308SOL     OW14930   4.146   1.625   1.973
 4308SOL    HW114931 -28.936   1.553  12.960
 4308SOL    HW214932   4.171   1.704  57.123
 4309SOL     OW14933   4.370   0.716   8.396
 4309SOL    HW114934   4.381   0.747 -13.773
 4309SOL    HW214935   4.440  22.837   8.445
 4310SOL     OW14936   5.650   3.802  10.387
 4310SOL    HW114937 -27.506  14.755 -11.676
 4310SOL    HW214938   5.669  36.921  10.293
 4311SOL     OW14939   3.601  10.472   9.809
 4311SOL    HW114940   3.542  10.539  -1.267
 4311SOL    HW214941  -7.407  10.424   9.732
 4312SOL     OW14942   3.500   3.319   1.087
 4312SOL    HW114943   3.498  -7.657   1.159
 4312SOL    HW214944   3.549   3.364   1.018
 4313SOL     OW14945   8.345   2.461  10.069
 4313SOL    HW114946   8.343   2.556  10.067
 4313SOL    HW214947   8.332  35.557  10.162
 4314SOL     OW14948   8.086   7.757   9.399
 4314SOL    HW114949   8.134  -3.205   9.370
 4314SOL    HW214950  30.181  -3.286   9.494
 4315SOL     OW14951   4.403   1.533  10.805
 4315SOL    HW114952   4.438  12.484  10.793
 4315SOL    HW214953   4.476   1.581  10.845
 4316SOL     OW14954   3.849   3.170   4.755
 4316SOL    HW114955  37.021   3.234 -17.278
 4316SOL    HW214956   3.905  25.218   4.683
 4317SOL     OW14957   4.237   8.105   0.081
 4317SOL    HW114958   4.205  -2.992   0.012
 4317SOL    HW214959  15.287  30.127   0.157
 4318SOL     OW14960   7.693   2.695   0.803
 4318SOL    HW114961   7.713  -8.301  11.759
 4318SOL    HW214962   7.749   2.740   0.867
 4319SOL     OW14963  10.894   5.398   9.392
 4319SOL    HW114964 -11.255  27.542   9.400
 4319SOL    HW214965  10.938   5.421   9.310
 4320SOL     OW14966   8.079   1.062   3.192
 4320SOL    HW114967 -13.994   1.101  14.144
 4320SOL    HW214968   8.015   0.991   3.182
 4321SOL     OW14969   6.579  10.120   4.149
 4321SOL    HW114970   6.666  10.154   4.165
 4321SOL    HW214971   6.550  10.163  15.108
 4322SOL     OW14972   5.379   9.152   0.328
 4322SOL    HW114973  16.334   9.196   0.334
 4322SOL    HW214974   5.376 -12.994   0.396
 4323SOL     OW14975  10.369   9.648   6.244
 4323SOL    HW114976  10.404   9.562  28.344
 4323SOL    HW214977  10.347  -1.397  17.190
 4324SOL     OW14978  10.263   4.253   7.341
 4324SOL    HW114979  10.332   4.319   7.333
 4324SOL    HW214980  21.238 -17.801   7.275
 4325SOL     OW14981   3.737  10.397  10.873
 4325SOL    HW114982   3.781 -22.801  10.842
 4325SOL    HW214983  25.879 -11.642  10.933
 4326SOL     OW14984   8.011   8.412  10.661
 4326SOL    HW114985   8.015   8.348  10.732
 4326SOL    HW214986  -3.012  19.401  10.582
 4327SOL     OW14987  -0.404   3.765   4.870
 4327SOL    HW114988  21.705  -7.184  37.992
 4327SOL    HW214989 -11.363   3.713  15.922
 4328SOL     OW14990  11.570  -1.322   2.430
 4328SOL    HW114991   0.561  20.726   2.516
 4328SOL    HW214992   0.608  20.797  13.430
 4329SOL     OW14993  -0.145  10.837   9.200
 4329SOL    HW114994  -0.134  10.764   9.261
 4329SOL    HW214995  10.920  10.914 -12.828
 4330SOL     OW14996   0.207   1.800   2.182
 4330SOL    HW114997   0.206  12.909   2.247
 4330SOL    HW214998   0.297  23.847 -19.898
 4331SOL     OW14999   2.060  10.980  10.737
 4331SOL    HW115000  24.111  10.908  10.680
 4331SOL    HW215001  13.163  11.028  10.684
 4332SOL     OW15002   2.163   4.015   9.727
 4332SOL    HW115003  24.202   4.100  -1.334
 4332SOL    HW215004   2.114  15.024  31.882
 4333SOL     OW15005   1.288   6.265   0.622
 4333SOL    HW115006   1.291   6.283   0.716
 4333SOL    HW215007  12.415   6.232   0.601
 4334SOL     OW15008   6.346   2.673  10.354
 4334SOL    HW115009  17.325  13.670  21.333
 4334SOL    HW215010   6.290   2.717  10.417
 4335SOL     OW15011   2.738   2.617   6.270
 4335SOL    HW115012   2.652   2.575   6.262
 4335SOL    HW215013   2.782   2.568   6.339
 4336SOL     OW15014   4.427   3.463   3.660
 4336SOL    HW115015   4.421   3.394   3.726
 4336SOL    HW215016   4.438   3.544   3.710
 4337SOL     OW15017  10.517   9.443   7.874
 4337SOL    HW115018  -0.544   9.531   7.843
 4337SOL    HW215019 -11.467   9.436   7.864
 4338SOL     OW15020   6.673   7.722   6.791
 4338SOL    HW115021   6.599   7.715   6.731
 4338SOL    HW215022 -15.432   7.787   6.855
 4339SOL     OW15023   8.129   6.773   9.987
 4339SOL    HW115024  19.124   6.854  10.012
 4339SOL    HW215025   8.107   6.762   9.894
 4340SOL     OW15026  -1.634   7.470   3.189
 4340SOL    HW115027  31.530   7.397  14.185
 4340SOL    HW215028  -1.594   7.548  25.231
 4341SOL     OW15029   6.572   1.201   3.830
 4341SOL    HW115030   6.562   1.284  14.822
 4341SOL    HW215031   6.621   1.145   3.770
 4342SOL     OW15032   9.263   4.676   8.488
 4342SOL    HW115033 -12.769  -6.440 -13.626
 4342SOL    HW215034   9.218   4.643 -13.514
 4343SOL     OW15035  10.213   2.983   3.488
 4343SOL    HW115036  10.304   2.977   3.461
 4343SOL    HW215037  21.233   3.077  14.528
 4344SOL     OW15038   3.815   8.518  10.927
 4344SOL    HW115039  25.887   8.545  10.835
 4344SOL    HW215040   3.856   8.592  10.971
 4345SOL     OW15041   7.830   9.033   6.059
 4345SOL    HW115042   7.772  -2.083   6.067
 4345SOL    HW215043   7.800 -13.002   5.979
 4346SOL     OW15044  -0.950   7.249   8.104
 4346SOL    HW115045  21.163  40.456  30.165
 4346SOL    HW215046  -1.033  29.343   8.149
 4347SOL     OW15047   0.095   8.789   3.179
 4347SOL    HW115048   0.149  19.832 -29.860
 4347SOL    HW215049   0.150   8.746   3.114
 4348SOL     OW15050   3.565   4.767  11.309
 4348SOL    HW115051   3.543  37.796   0.243
 4348SOL    HW215052   3.504   4.822   0.221
 4349SOL     OW15053   4.557   8.416   2.783
 4349SOL    HW115054  -6.421   8.417   2.857
 4349SOL    HW215055 -28.605  30.580   2.787
 4350SOL     OW15056   2.899  10.436   8.686
 4350SOL    HW115057   2.876  -0.595  -2.446
 4350SOL    HW215058   2.815  10.440 -13.347
 4351SOL     OW15059   4.637   6.834  -0.399
 4351SOL    HW115060  15.741   6.774  -0.361
 4351SOL    HW215061  15.632   6.782  21.612
 4352SOL     OW15062   0.513  10.833   8.324
 4352SOL    HW115063   0.424  10.852  -2.686
 4352SOL    HW215064   0.567  10.899  -2.672
 4353SOL     OW15065   8.214   5.649   2.232
 4353SOL    HW115066   8.170   5.706  -8.745
 4353SOL    HW215067   8.259  -5.331   2.172
 4354SOL     OW15068   5.592   6.919  11.195
 4354SOL    HW115069   5.598   6.865  11.274
 4354SOL    HW215070 -27.436  -4.096   0.137
 4355SOL     OW15071   7.116   4.937   2.598
 4355SOL    HW115072   7.078   4.856   2.632
 4355SOL    HW215073   7.181   4.908  24.613
 4356SOL     OW15074   3.675  10.505   1.038
 4356SOL    HW115075   3.733  10.494   1.113
 4356SOL    HW215076   3.615  10.430   1.042
 4357SOL     OW15077   4.066   8.378   1.081
 4357SOL    HW115078  26.230   8.342   1.056
 4357SOL    HW215079   4.079  -2.567  -9.958
 4358SOL     OW15080   0.338   5.613   4.479
 4358SOL    HW115081  11.318   5.597 -39.753
 4358SOL    HW215082   0.286  16.633   4.557
 4359SOL     OW15083   8.761   3.245   3.247
 4359SOL    HW115084  -2.311   3.187   3.315
 4359SOL    HW215085   8.682  25.363 -29.910
 4360SOL     OW15086   5.730   7.495   3.200
 4360SOL    HW115087  27.786   7.405   3.177
 4360SOL    HW215088  -5.370   7.518   3.271
 4361SOL     OW15089   5.549   5.681   9.383
 4361SOL    HW115090   5.643   5.680  -1.638
 4361SOL    HW215091  27.608  -5.265  20.410
 4362SOL     OW15092   1.377   6.249  10.161
 4362SOL    HW115093  23.475 -15.858  10.071
 4362SOL    HW215094   1.391   6.171  21.254
 4363SOL     OW15095   3.093   6.479   8.452
 4363SOL    HW115096   3.023   6.414  -2.591
 4363SOL    HW215097   3.107  17.543   8.360
 4364SOL     OW15098   5.501   9.152   4.291
 4364SOL    HW115099   5.430  20.197   4.227
 4364SOL    HW215100 -16.569   9.241   4.324
 4365SOL     OW15101   5.019   2.777   3.906
 4365SOL    HW115102   5.035  13.909   3.890
 4365SOL    HW215103   4.928   2.763   3.880
 4366SOL     OW15104   0.360   0.347   6.095
 4366SOL    HW115105   0.452   0.359   6.118
 4366SOL    HW215106   0.330  11.313   6.149
 4367SOL     OW15107   3.377  10.283  11.138
 4367SOL    HW115108   3.403  10.208   0.046
 4367SOL    HW215109   3.422 -11.722  11.098
 4368SOL     OW15110   0.974   3.422   8.125
 4368SOL    HW115111  12.072  14.525   8.084
 4368SOL    HW215112   1.032  25.432   8.157
 4369SOL     OW15113   4.495   0.457   6.804
 4369SOL    HW115114   4.517   0.382   6.749
 4369SOL    HW215115  -6.498  11.481   6.886
 4370SOL     OW15116   1.587   1.521   8.199
 4370SOL    HW115117   1.627  23.551   8.128
 4370SOL    HW215118   1.493  12.557  -2.859
 4371SOL     OW15119   3.981   5.442   2.361
 4371SOL    HW115120   3.915  16.511   2.424
 4371SOL    HW215121   3.954   5.480   2.278
 4372SOL     OW15122  10.919   7.703   1.427
 4372SOL    HW115123  10.863   7.739   1.358
 4372SOL    HW215124  10.929   7.775   1.490
 4373SOL     OW15125   5.846   1.544   4.410
 4373SOL    HW115126   5.832  -9.413   4.455
 4373SOL    HW215127   5.876  12.523   4.478
 4374SOL     OW15128   8.625   7.301   9.840
 4374SOL    HW115129   8.636   7.383  20.928
 4374SOL    HW215130   8.646   7.323  -1.290
 4375SOL     OW15131   5.438   8.209   8.051
 4375SOL    HW115132  16.455   8.223   7.959
 4375SOL    HW215133  16.485   8.298  -2.952
 4376SOL     OW15134   5.393   8.048   5.874
 4376SOL    HW115135  16.445 -13.947   5.831
 4376SOL    HW215136  -5.621   7.984   5.808
 4377SOL     OW15137   0.625   7.201   1.572
 4377SOL    HW115138   0.702   7.257   1.564
 4377SOL    HW215139   0.553  18.295   1.543
 4378SOL     OW15140  10.715   7.842   7.488
 4378SOL    HW115141  -0.415  -3.181  29.539
 4378SOL    HW215142  -0.293   7.774  40.547
 4379SOL     OW15143  10.758   7.821   8.858
 4379SOL    HW115144  10.831   7.782  -2.230
 4379SOL    HW215145  10.717   7.746   8.902
 4380SOL     OW15146  10.927   3.653   8.283
 4380SOL    HW115147  10.956  -7.338   8.361
 4380SOL    HW215148  10.867 -18.366   8.239
 4381SOL     OW15149   3.604   0.059   9.542
 4381SOL    HW115150   3.696   0.083  20.591
 4381SOL    HW215151  14.620   0.088   9.454
 4382SOL     OW15152   9.026   4.617   6.265
 4382SOL    HW115153   8.951  15.668   6.324
 4382SOL    HW215154   9.099  15.634 -15.757
 4383SOL     OW15155   2.971  10.896   2.749
 4383SOL    HW115156   2.985  10.833   2.819
 4383SOL    HW215157   3.001  10.851   2.670
 4384SOL     OW15158   9.145   9.084   0.557
 4384SOL    HW115159   9.196 -13.075   0.551
 4384SOL    HW215160  20.200   9.129   0.474
 4385SOL     OW15161   0.499   4.936   5.744
 4385SOL    HW115162   0.540   4.896   5.821
 4385SOL    HW215163   0.423   4.881   5.726
 4386SOL     OW15164  10.279   0.469   6.922
 4386SOL    HW115165  21.374   0.519   6.862
 4386SOL    HW215166  10.283   0.379   6.888
 4387SOL     OW15167   0.964   7.377   0.906
 4387SOL    HW115168   1.049   7.357   0.868
 4387SOL    HW215169   0.949   7.308   0.971
 4388SOL     OW15170   5.703   3.441   4.191
 4388SOL    HW115171   5.690   3.536  -6.844
 4388SOL    HW215172  -5.253   3.431   4.145
 4389SOL     OW15173  13.511   7.585   8.112
 4389SOL    HW115174 -41.710   7.497   8.141
 4389SOL    HW215175  13.536   7.631   8.193
 4390SOL     OW15176   4.695   4.499   8.830
 4390SOL    HW115177  -6.417   4.492   8.768
 4390SOL    HW215178   4.688   4.587   8.866
 4391SOL     OW15179   8.730  10.336   4.267
 4391SOL    HW115180  -2.283  10.359  -6.683
 4391SOL    HW215181  19.738  10.246   4.275
 4392SOL     OW15182   5.775   6.392   6.896
 4392SOL    HW115183   5.737   6.305   6.880
 4392SOL    HW215184   5.742   6.416   6.983
 4393SOL     OW15185   6.660   0.636  11.046
 4393SOL    HW115186 -15.354   0.661  11.112
 4393SOL    HW215187   6.579   0.680 -11.005
 4394SOL     OW15188  10.869  -1.673   8.318
 4394SOL    HW115189  -0.209  31.390 -13.829
 4394SOL    HW215190  10.865  -1.726 -13.682
 4395SOL     OW15191   7.223   9.595   2.084
 4395SOL    HW115192  -3.755   9.649  24.213
 4395SOL    HW215193   7.278   9.538   2.031
 4396SOL     OW15194  -0.282   4.394   3.437
 4396SOL    HW115195  10.798   4.314   3.405
 4396SOL    HW215196  -0.373  15.409   3.455
 4397SOL     OW15197   6.422   8.284   3.542
 4397SOL    HW115198   6.343   8.322  14.619
 4397SOL    HW215199   6.482  19.316  25.695
 4398SOL     OW15200   9.566   9.914   7.936
 4398SOL    HW115201   9.485  -1.110   7.984
 4398SOL    HW215202   9.620 -12.218  19.034
 4399SOL     OW15203   6.370   6.134  10.191
 4399SOL    HW115204  17.318 -15.967  10.173
 4399SOL    HW215205  17.445   6.161  10.106
 4400SOL     OW15206   1.371   7.343   9.790
 4400SOL    HW115207   1.315  18.460   9.793
 4400SOL    HW215208   1.355   7.299   9.874
 4401SOL     OW15209   7.865   9.111   4.394
 4401SOL    HW115210   7.775   9.145   4.391
 4401SOL    HW215211 -25.231   9.097   4.302
 4402SOL     OW15212   2.905   2.393  10.087
 4402SOL    HW115213 -19.196  -8.706  10.159
 4402SOL    HW215214   2.999   2.406  10.094
 4403SOL     OW15215   2.712   4.117   9.899
 4403SOL    HW115216  13.829   4.159   9.862
 4403SOL    HW215217   2.706   4.151   9.988
 4404SOL     OW15218   7.530   8.077   7.176
 4404SOL    HW115219   7.596   8.013  -3.891
 4404SOL    HW215220   7.467   8.026   7.227
 4405SOL     OW15221   5.573   2.984   6.358
 4405SOL    HW115222   5.548   3.076  28.427
 4405SOL    HW215223   5.627   2.965  50.440
 4406SOL     OW15224   7.337   4.447   7.948
 4406SOL    HW115225   7.248   4.438  19.021
 4406SOL    HW215226   7.386   4.376   7.990
 4407SOL     OW15227   1.119   6.136   8.723
 4407SOL    HW115228   1.080  -4.851   8.793
 4407SOL    HW215229   1.172   6.071  19.809
 4408SOL     OW15230   7.328   2.457   3.294
 4408SOL    HW115231  29.463   2.430   3.221
 4408SOL    HW215232   7.388  13.508   3.367
 4409SOL     OW15233   8.570   9.370   0.647
 4409SOL    HW115234 -13.599   9.391   0.621
 4409SOL    HW215235   8.622   9.443  11.651
 4410SOL     OW15236  10.798   7.573   0.911
 4410SOL    HW115237  -0.170  -3.406   0.929
 4410SOL    HW215238  10.766   7.546   0.997
 4411SOL     OW15239   3.582  -0.174  11.573
 4411SOL    HW115240   3.580  -0.092 -21.594
 4411SOL    HW215241 -18.422  32.897  11.538
 4412SOL     OW15242   8.475   0.085   9.149
 4412SOL    HW115243   8.554   0.133   9.122
 4412SOL    HW215244   8.508   0.003   9.185
 4413SOL     OW15245   3.103   3.474   1.444
 4413SOL    HW115246   3.021   3.523   1.447
 4413SOL    HW215247   3.140   3.494  -9.681
 4414SOL     OW15248   1.154  10.514   2.880
 4414SOL    HW115249   1.226  10.456   2.856
 4414SOL    HW215250  12.232 -22.545   2.945
 4415SOL     OW15251   6.505  -0.780   3.944
 4415SOL    HW115252  -4.628  10.250   3.964
 4415SOL    HW215253   6.507  10.284   3.852
 4416SOL     OW15254   4.847   8.028   9.363
 4416SOL    HW115255   4.776   8.091  -1.670
 4416SOL    HW215256   4.805  -3.097   9.374
 4417SOL     OW15257   1.505   2.096   6.396
 4417SOL    HW115258   1.511  -8.866   6.453
 4417SOL    HW215259   1.593   2.059  17.435
 4418SOL     OW15260   6.358   7.038   4.598
 4418SOL    HW115261   6.418  -4.024   4.669
 4418SOL    HW215262   6.296   6.964   4.594
 4419SOL     OW15263   4.869  11.325   2.148
 4419SOL    HW115264   4.816   0.268   2.071
 4419SOL    HW215265   4.958   0.293   2.115
 4420SOL     OW15266   5.012   3.336   5.592
 4420SOL    HW115267  -5.999   3.270   5.655
 4420SOL    HW215268   5.045   3.419  16.669
 4421SOL     OW15269   1.909   3.686   9.546
 4421SOL    HW115270   1.863  14.645   9.567
 4421SOL    HW215271  12.991 -18.367   9.628
 4422SOL     OW15272   0.912   6.351  12.119
 4422SOL    HW115273   0.898   6.271  12.170
 4422SOL    HW215274  22.904  17.427 -21.012
 4423SOL     OW15275   5.727   9.830   2.758
 4423SOL    HW115276   5.757 -12.312   2.824
 4423SOL    HW215277   5.634  -1.228   2.747
 4424SOL     OW15278   0.590   6.645   7.304
 4424SOL    HW115279   0.498 -26.487   7.282
 4424SOL    HW215280   0.588 -37.463   7.386
 4425SOL     OW15281   4.355   1.946   6.966
 4425SOL    HW115282   4.303  -9.040   7.026
 4425SOL    HW215283   4.292   1.912   6.903
 4426SOL     OW15284   3.288   6.758   5.358
 4426SOL    HW115285   3.290   6.688   5.293
 4426SOL    HW215286   3.271  28.793  27.520
 4427SOL     OW15287   9.863   1.549   2.540
 4427SOL    HW115288   9.858   1.643   2.558
 4427SOL    HW215289  -1.244   1.511 -30.522
 4428SOL     OW15290   0.396  10.216   3.262
 4428SOL    HW115291  11.487  21.311   3.203
 4428SOL    HW215292 -10.581  10.187  -7.711
 4429SOL     OW15293   8.640   2.288   5.352
 4429SOL    HW115294   8.621  13.289   5.437
 4429SOL    HW215295   8.575   2.249   5.293
 4430SOL     OW15296   5.768   3.481  10.344
 4430SOL    HW115297   5.746   3.421  10.273
 4430SOL    HW215298   5.860   3.504  10.330
 4431SOL     OW15299   5.542   9.927  -2.107
 4431SOL    HW115300   5.579  10.008  30.977
 4431SOL    HW215301   5.470   9.955  31.069
 4432SOL     OW15302   0.699  10.721   2.391
 4432SOL    HW115303  44.934  10.733  13.375
 4432SOL    HW215304   0.661  10.809   2.398
 4433SOL     OW15305   7.227   3.831   6.270
 4433SOL    HW115306  -3.858   3.899  -4.819
 4433SOL    HW215307   7.221 -18.326   6.215
 4434SOL     OW15308   8.965   1.986   3.884
 4434SOL    HW115309  20.025  -8.963   3.860
 4434SOL    HW215310  19.930   1.994   3.944
 4435SOL     OW15311   6.489   4.032   6.913
 4435SOL    HW115312 -15.547   4.108   6.873
 4435SOL    HW215313   6.513   3.958   6.857
 4436SOL     OW15314   0.555   2.981   0.227
 4436SOL    HW115315   0.538   2.965   0.320
 4436SOL    HW215316   0.597   3.067   0.226
 4437SOL     OW15317   6.356   1.886   8.064
 4437SOL    HW115318  17.358   1.853  19.021
 4437SOL    HW215319   6.330   1.821  19.169
 4438SOL     OW15320   7.107   8.297   6.106
 4438SOL    HW115321 -14.978   8.209 -16.012
 4438SOL    HW215322   7.018   8.331   6.099
 4439SOL     OW15323   5.248   4.281   2.939
 4439SOL    HW115324  16.265  -6.813   2.863
 4439SOL    HW215325   5.190 -17.828   3.009
 4440SOL     OW15326   1.648   7.524   3.967
 4440SOL    HW115327   1.579  18.510   4.006
 4440SOL    HW215328   1.625   7.614   3.992
 4441SOL     OW15329   9.292   5.667   6.392
 4441SOL    HW115330   9.382   5.695   6.374
 4441SOL    HW215331   9.260   5.635   6.307
 4442SOL     OW15332   7.297   6.300  12.437
 4442SOL    HW115333  18.419  17.361  -9.598
 4442SOL    HW215334   7.295  17.397   1.321
 4443SOL     OW15335   6.484   7.974   2.130
 4443SOL    HW115336  28.530   8.032   2.199
 4443SOL    HW215337  -4.525   8.033   2.061
 4444SOL     OW15338   8.736   7.466   3.953
 4444SOL    HW115339  19.720   7.534 -18.165
 4444SOL    HW215340  30.756  18.431  -7.075
 4445SOL     OW15341   8.556   5.372   4.027
 4445SOL    HW115342   8.534   5.397  37.236
 4445SOL    HW215343   8.530   5.447  15.014
 4446SOL     OW15344   5.491   0.955   6.904
 4446SOL    HW115345   5.534   0.869  28.985
 4446SOL    HW215346   5.500   0.989   6.993
 4447SOL     OW15347   1.100   0.865   7.085
 4447SOL    HW115348  23.098   0.821   7.062
 4447SOL    HW215349   1.164  22.874   7.094
 4448SOL     OW15350   1.691   5.070   3.266
 4448SOL    HW115351   1.701   5.151   3.217
 4448SOL    HW215352   1.632  16.056   3.213
 4449SOL     OW15353  10.139   3.334   3.161
 4449SOL    HW115354  -0.911   3.427   3.181
 4449SOL    HW215355  10.233   3.320  36.277
 4450SOL     OW15356  11.265   7.889   4.553
 4450SOL    HW115357 -10.796   7.795   4.557
 4450SOL    HW215358 -10.754   7.927   4.617
 4451SOL     OW15359   6.426   8.017   6.576
 4451SOL    HW115360   6.508  -2.975   6.562
 4451SOL    HW215361  -4.676  -2.955   6.601
 4452SOL     OW15362   6.418   0.597   0.526
 4452SOL    HW115363   6.479   0.658   0.568
 4452SOL    HW215364  -4.643   0.534   0.595
 4453SOL     OW15365   7.597   6.628   5.897
 4453SOL    HW115366   7.558  -4.453   5.975
 4453SOL    HW215367   7.524  -4.366   5.856
 4454SOL     OW15368  10.173   4.003   6.611
 4454SOL    HW115369  10.228   3.992   6.534
 4454SOL    HW215370  10.122   3.923   6.617
 4455SOL     OW15371   5.368   1.797   4.127
 4455SOL    HW115372   5.417   1.799  -6.995
 4455SOL    HW215373 -16.753  12.922   4.132
 4456SOL     OW15374   9.610   5.698  -0.101
 4456SOL    HW115375  20.570 -16.356  22.024
 4456SOL    HW215376   9.675 -16.393  11.007
 4457SOL     OW15377  10.902   2.922   4.190
 4457SOL    HW115378 -11.229   3.000   4.168
 4457SOL    HW215379  -0.055   2.957  -6.816
 4458SOL     OW15380   5.436   8.655   0.537
 4458SOL    HW115381  16.536   8.613  11.516
 4458SOL    HW215382 -16.726   8.608  11.565
 4459SOL     OW15383   9.925   5.290   9.344
 4459SOL    HW115384  10.007 -16.742   9.333
 4459SOL    HW215385   9.875   5.309   9.265
 4460SOL     OW15386  10.550  11.207   6.085
 4460SOL    HW115387  10.463  11.170   6.070
 4460SOL    HW215388  10.597   0.099   6.132
 4461SOL     OW15389   7.204  10.123  11.106
 4461SOL    HW115390   7.278  10.062   0.061
 4461SOL    HW215391 -25.880  10.200  11.150
 4462SOL     OW15392   8.547   1.528   0.012
 4462SOL    HW115393   8.559   1.434   0.025
 4462SOL    HW215394   8.631  12.597  -0.022
 4463SOL     OW15395   3.143   1.603   0.116
 4463SOL    HW115396  -7.973   1.609   0.059
 4463SOL    HW215397   3.123   1.530   0.176
 4464SOL     OW15398   8.655   0.165   3.209
 4464SOL    HW115399  19.722   0.190   3.121
 4464SOL    HW215400   8.706   0.223   3.267
 4465SOL     OW15401   8.195   7.882   2.494
 4465SOL    HW115402   8.266   7.824  13.507
 4465SOL    HW215403   8.117   7.827   2.494
 4466SOL     OW15404  -1.064   6.714   9.459
 4466SOL    HW115405  20.939   6.663   9.433
 4466SOL    HW215406  10.049 -15.425   9.449
 4467SOL     OW15407   8.365  -0.043   5.362
 4467SOL    HW115408  19.461  22.114   5.359
 4467SOL    HW215409   8.418  -0.110   5.404
 4468SOL     OW15410  -0.609   5.129   6.138
 4468SOL    HW115411  -0.561   5.096  -4.826
 4468SOL    HW215412  10.498   5.165 -15.999
 4469SOL     OW15413   9.149   0.746   9.181
 4469SOL    HW115414   9.101   0.811   9.130
 4469SOL    HW215415   9.143   0.665   9.131
 4470SOL     OW15416   0.105   4.826   8.168
 4470SOL    HW115417   0.136  15.851  -2.961
 4470SOL    HW215418   0.168  15.819   8.223
 4471SOL     OW15419   6.776   9.924   6.863
 4471SOL    HW115420   6.762  10.013   6.829
 4471SOL    HW215421  -4.351  -1.149 -15.199
 4472SOL     OW15422   3.677   2.806   4.245
 4472SOL    HW115423   3.760   2.843   4.216
 4472SOL    HW215424  -7.423   2.824   4.172
 4473SOL     OW15425  -1.059   2.191   9.707
 4473SOL    HW115426  -1.107  13.302   9.668
 4473SOL    HW215427  32.121  24.312   9.768
 4474SOL     OW15428   3.316  10.557   6.663
 4474SOL    HW115429   3.391  10.540   6.719
 4474SOL    HW215430   3.251  -0.443  -4.319
 4475SOL     OW15431   5.657   1.695   1.939
 4475SOL    HW115432   5.742   1.709   1.980
 4475SOL    HW215433  27.712  -9.258   1.904
 4476SOL     OW15434   3.702  10.453   5.116
 4476SOL    HW115435   3.693  10.484 -17.053
 4476SOL    HW215436   3.784  10.405   5.117
 4477SOL     OW15437   7.329   7.248   5.968
 4477SOL    HW115438   7.266   7.178 -16.130
 4477SOL    HW215439   7.332   7.300   5.887
 4478SOL     OW15440   5.960   0.695   1.160
 4478SOL    HW115441   5.935   0.765   1.219
 4478SOL    HW215442  -5.097  55.927   1.072
 4479SOL     OW15443   2.627   2.115  10.939
 4479SOL    HW115444  35.769 -19.873  10.922
 4479SOL    HW215445   2.540  24.198  10.978
 4480SOL     OW15446  10.922   4.049   6.399
 4480SOL    HW115447  10.949   4.121   6.454
 4480SOL    HW215448  10.949   4.074 -15.769
 4481SOL     OW15449   1.997   4.907   7.988
 4481SOL    HW115450  -9.122  15.924   8.037
 4481SOL    HW215451  13.106   4.854   8.029
 4482SOL     OW15452   5.284   3.896   6.210
 4482SOL    HW115453   5.258   3.961  17.315
 4482SOL    HW215454   5.233  25.998   6.132
 4483SOL     OW15455  -0.766   2.681   5.553
 4483SOL    HW115456  21.227   2.646   5.577
 4483SOL    HW215457  -0.744   2.637   5.471
 4484SOL     OW15458   5.039   1.080   2.029
 4484SOL    HW115459  -5.981   1.023   2.104
 4484SOL    HW215460   5.121   1.084 -20.098
 4485SOL     OW15461   1.377   1.764   4.130
 4485SOL    HW115462   1.468  12.778   4.147
 4485SOL    HW215463   1.370   1.852   4.167
 4486SOL     OW15464   0.207   7.517   3.523
 4486SOL    HW115465   0.251  29.646   3.592
 4486SOL    HW215466   0.249   7.544   3.442
 4487SOL     OW15467   0.206   0.548   1.757
 4487SOL    HW115468   0.200   0.643   1.765
 4487SOL    HW215469   0.204   0.531   1.663
 4488SOL     OW15470  12.541   3.936   2.051
 4488SOL    HW115471 -31.552   3.938   1.981
 4488SOL    HW215472  12.460   3.967   2.010
 4489SOL     OW15473   5.282   8.879   8.078
 4489SOL    HW115474  16.277  30.978   8.160
 4489SOL    HW215475   5.310  20.003   8.044
 4490SOL     OW15476   7.495   1.249   2.836
 4490SOL    HW115477  -3.539  -9.865  -8.143
 4490SOL    HW215478   7.467   1.210   2.754
 4491SOL     OW15479   9.890   6.157   5.483
 4491SOL    HW115480   9.895  28.223   5.578
 4491SOL    HW215481  20.836   6.167  16.505
 4492SOL     OW15482   3.511   4.082   5.540
 4492SOL    HW115483  14.634  37.219  -5.542
 4492SOL    HW215484   3.471   4.169 -16.527
 4493SOL     OW15485   1.922   3.972   2.356
 4493SOL    HW115486   1.847   3.998   2.304
 4493SOL    HW215487  24.038  14.936   2.309
 4494SOL     OW15488   9.307   3.491   3.398
 4494SOL    HW115489   9.219  -7.515  -7.660
 4494SOL    HW215490 -23.792   3.433  -7.715
 4495SOL     OW15491   3.446   6.426   9.236
 4495SOL    HW115492  -7.626  -4.678  -1.867
 4495SOL    HW215493   3.541  17.461   9.228
 4496SOL     OW15494   6.656   8.860   5.703
 4496SOL    HW115495   6.611   8.930   5.657
 4496SOL    HW215496   6.721   8.904   5.758
 4497SOL     OW15497   3.801   5.055   4.081
 4497SOL    HW115498   3.875   4.996  -6.977
 4497SOL    HW215499 -29.300  -5.907  -7.012
 4498SOL     OW15500   0.550   0.357   1.318
 4498SOL    HW115501   0.574   0.386   1.230
 4498SOL    HW215502   0.633  22.417  -9.679
 4499SOL     OW15503   1.314  -0.207   8.364
 4499SOL    HW115504  -9.646  10.817   8.313
 4499SOL    HW215505  -9.699  -0.144   8.431
 4500SOL     OW15506   3.441   0.152   7.008
 4500SOL    HW115507   3.521   0.099   7.005
 4500SOL    HW215508   3.404   0.135   7.095
 4501SOL     OW15509   2.790   0.742  10.846
 4501SOL    HW115510  13.888   0.705  10.912
 4501SOL    HW215511   2.825 -10.209  10.831
 4502SOL     OW15512   3.248   6.654   8.620
 4502SOL    HW115513  14.259   6.590  -2.484
 4502SOL    HW215514   3.169   6.675   8.670
 4503SOL     OW15515   7.064   9.000   5.258
 4503SOL    HW115516   7.005 -35.088   5.230
 4503SOL    HW215517   7.010 -13.134  -5.725
 4504SOL     OW15518   0.912   8.646   7.694
 4504SOL    HW115519 -10.125   8.734   7.732
 4504SOL    HW215520   0.819   8.622   7.697
 4505SOL     OW15521   2.509   9.423   8.081
 4505SOL    HW115522  -8.438   9.442   8.067
 4505SOL    HW215523   2.509   9.354 -24.970
 4506SOL     OW15524  10.687   4.199   1.882
 4506SOL    HW115525  10.614   4.225  12.865
 4506SOL    HW215526  -0.394   4.180  13.006
 4507SOL     OW15527   7.473   8.311   2.007
 4507SOL    HW115528 -14.541   8.243   1.995
 4507SOL    HW215529   7.520  -2.656   2.048
 4508SOL     OW15530   6.773   4.093   1.931
 4508SOL    HW115531   6.849  15.087   1.964
 4508SOL    HW215532   6.731   4.030   1.872
 4509SOL     OW15533   4.743   1.425   6.995
 4509SOL    HW115534  26.787 -31.782  18.038
 4509SOL    HW215535  -6.216  34.536   6.944
 4510SOL     OW15536   3.511   8.214   1.096
 4510SOL    HW115537  14.560  19.300   1.013
 4510SOL    HW215538  14.576  -2.761   1.162
 4511SOL     OW15539   1.373   5.363   0.323
 4511SOL    HW115540  -9.680   5.384   0.230
 4511SOL    HW215541   1.319   5.427   0.370
 4512SOL     OW15542   5.193   1.263   5.569
 4512SOL    HW115543   5.190   1.271   5.473
 4512SOL    HW215544   5.262   1.198   5.585
 4513SOL     OW15545   7.245   4.151  10.542
 4513SOL    HW115546  18.288  -6.807  10.591
 4513SOL    HW215547  29.238   4.153  10.499
 4514SOL     OW15548   1.392   6.461  10.773
 4514SOL    HW115549  23.558  17.535  10.796
 4514SOL    HW215550 -20.725  28.514  10.857
 4515SOL     OW15551   5.736   0.612  11.014
 4515SOL    HW115552  27.788   0.696  11.050
 4515SOL    HW215553  16.870   0.622  -0.041
 4516SOL     OW15554   1.716   4.799   2.084
 4516SOL    HW115555   1.781   4.858  24.126
 4516SOL    HW215556  -9.338   4.831   2.173
 4517SOL     OW15557  11.144   0.678   1.232
 4517SOL    HW115558  11.159  22.851   1.216
 4517SOL    HW215559   0.054  11.688   1.157
 4518SOL     OW15560   3.121   6.877   4.472
 4518SOL    HW115561  -7.893   6.793  -6.529
 4518SOL    HW215562   3.203   6.913   4.436
 4519SOL     OW15563   5.856   5.164   1.359
 4519SOL    HW115564   5.874   5.096   1.424
 4519SOL    HW215565  -5.276  16.224   1.372
 4520SOL     OW15566   1.960   9.598   1.998
 4520SOL    HW115567   1.958   9.503   1.985
 4520SOL    HW215568   1.868 -12.456   2.000
 4521SOL     OW15569  -0.129   2.526   0.443
 4521SOL    HW115570  10.977   2.563  11.540
 4521SOL    HW215571  10.874  13.641   0.397
 4522SOL     OW15572   8.959   6.270  11.132
 4522SOL    HW115573   9.021 -26.799  11.078
 4522SOL    HW215574   8.874 -15.771 -22.007
 4523SOL     OW15575  11.068   7.117   7.065
 4523SOL    HW115576  11.003   7.070  18.157
 4523SOL    HW215577   0.072   7.048  18.054
 4524SOL     OW15578   2.262   4.511   3.026
 4524SOL    HW115579   2.297  -6.459   2.970
 4524SOL    HW215580   2.338   4.458   3.049
 4525SOL     OW15581  -0.602   7.411   1.877
 4525SOL    HW115582  10.370   7.478   1.884
 4525SOL    HW215583  -0.598   7.372   1.965
 4526SOL     OW15584   8.399   1.753   5.162
 4526SOL    HW115585   8.386   1.792   5.075
 4526SOL    HW215586   8.422   1.826  -5.821
 4527SOL     OW15587   3.114   0.341  10.063
 4527SOL    HW115588  25.274  22.393  10.020
 4527SOL    HW215589  -7.992   0.337  21.034
 4528SOL     OW15590   5.034  10.704  10.955
 4528SOL    HW115591  15.982  10.674  10.952
 4528SOL    HW215592   5.042  -0.294  11.041
 4529SOL     OW15593   5.074  10.984  10.097
 4529SOL    HW115594   5.079  10.977  21.232
 4529SOL    HW215595   5.075 -11.000  10.080
 4530SOL     OW15596   9.433   8.956   1.153
 4530SOL    HW115597   9.455   8.866   1.130
 4530SOL    HW215598   9.398   8.950  -9.797
 4531SOL     OW15599   0.045   5.836  10.141
 4531SOL    HW115600  11.141  -5.258  10.086
 4531SOL    HW215601  11.017  16.908  10.082
 4532SOL     OW15602   6.751   6.952   7.087
 4532SOL    HW115603  17.852  18.059   7.114
 4532SOL    HW215604  -4.261   6.928   6.999
 4533SOL     OW15605  10.410   1.686   3.909
 4533SOL    HW115606  -0.611  12.671   3.832
 4533SOL    HW215607  10.316  12.740 -18.173
 4534SOL     OW15608   8.508   3.761   4.466
 4534SOL    HW115609 -13.585 -18.378 -17.539
 4534SOL    HW215610   8.559   3.710  -6.636
 4535SOL     OW15611   5.850   0.649   4.691
 4535SOL    HW115612   5.777 -10.445   4.659
 4535SOL    HW215613   5.812   0.701   4.761
 4536SOL     OW15614   5.434   3.402   7.985
 4536SOL    HW115615   5.394   3.340  -3.115
 4536SOL    HW215616   5.441  14.394  19.107
 4537SOL     OW15617   2.050  10.663   7.595
 4537SOL    HW115618   2.067  10.735   7.656
 4537SOL    HW215619   1.978  10.614   7.635
 4538SOL     OW15620   4.148   2.917   4.386
 4538SOL    HW115621   4.065   2.950  26.501
 4538SOL    HW215622  -6.891 -30.170   4.295
 4539SOL     OW15623   6.115   0.289   8.917
 4539SOL    HW115624   6.071   0.374   8.922
 4539SOL    HW215625   6.205   0.310   8.891
 4540SOL     OW15626   1.285   9.481   2.917
 4540SOL    HW115627   1.260  -1.487  -8.064
 4540SOL    HW215628   1.374   9.501  -8.149
 4541SOL     OW15629   1.755   8.388   8.227
 4541SOL    HW115630   1.755   8.481   8.249
 4541SOL    HW215631   1.663  -2.677   8.231
 4542SOL     OW15632   6.054   4.622   4.010
 4542SOL    HW115633  -4.957   4.586   4.094
 4542SOL    HW215634   6.116   4.692  -7.049
 4543SOL     OW15635   3.963  11.966   4.095
 4543SOL    HW115636  15.009 -21.170  48.347
 4543SOL    HW215637  14.909   0.939   4.079
 4544SOL     OW15638   1.956   6.431   2.290
 4544SOL    HW115639   1.956   6.453   2.197
 4544SOL    HW215640   2.011  39.616   2.331
 4545SOL     OW15641   5.328   7.493   4.637
 4545SOL    HW115642  16.431   7.423   4.622
 4545SOL    HW215643   5.310   7.489   4.731
 4546SOL     OW15644  -0.943   5.413   9.972
 4546SOL    HW115645  10.081  16.545   9.990
 4546SOL    HW215646  10.166   5.388  10.033
 4547SOL     OW15647   9.739   1.449   3.580
 4547SOL    HW115648  20.865  -9.628   3.568
 4547SOL    HW215649   9.682   1.374  14.634
 4548SOL     OW15650   6.462   1.494   9.107
 4548SOL    HW115651   6.434   1.432  31.119
 4548SOL    HW215652   6.448   1.448  20.229
 4549SOL     OW15653   2.204   9.797   0.720
 4549SOL    HW115654   2.279   9.842   0.756
 4549SOL    HW215655   2.203   9.712   0.764
 4550SOL     OW15656  10.603   1.128   4.690
 4550SOL    HW115657  10.642 -20.868   4.663
 4550SOL    HW215658  10.568  12.130   4.609
 4551SOL     OW15659  11.681   8.348   8.397
 4551SOL    HW115660 -10.387   8.259   8.432
 4551SOL    HW215661 -10.390  41.524   8.473
 4552SOL     OW15662   8.138  11.192  10.598
 4552SOL    HW115663  -2.853  11.273  10.583
 4552SOL    HW215664  -2.983 -21.915  10.549
 4553SOL     OW15665   0.795  10.090   0.762
 4553SOL    HW115666  11.852  10.114   0.671
 4553SOL    HW215667   0.737  10.159   0.794
 4554SOL     OW15668   0.883   6.628   4.057
 4554SOL    HW115669   0.847   6.557  -6.930
 4554SOL    HW215670   0.872  28.677   3.966
 4555SOL     OW15671   6.704   9.771   9.908
 4555SOL    HW115672   6.708   9.838  -1.063
 4555SOL    HW215673  28.690   9.753  20.937
 4556SOL     OW15674   4.204  10.548  11.234
 4556SOL    HW115675   4.131  10.536 -10.785
 4556SOL    HW215676   4.271  10.486  11.264
 4557SOL     OW15677   0.996   8.503  11.941
 4557SOL    HW115678   0.991   8.596 -10.158
 4557SOL    HW215679  23.088   8.461  11.856
 4558SOL     OW15680   0.039  10.958  -0.110
 4558SOL    HW115681   0.007  10.871  -0.086
 4558SOL    HW215682   0.134  10.954  44.063
 4559SOL     OW15683   3.643   7.137   5.832
 4559SOL    HW115684   3.609   7.066 -16.193
 4559SOL    HW215685   3.669  29.284  -5.145
 4560SOL     OW15686   1.002   2.962   6.954
 4560SOL    HW115687 -10.003  14.055   7.026
 4560SOL    HW215688   0.924  36.039  -4.050
 4561SOL     OW15689   3.203   3.650   8.240
 4561SOL    HW115690   3.117   3.677   8.272
 4561SOL    HW215691   3.264   3.683 -24.813
 4562SOL     OW15692   3.038   9.982   7.547
 4562SOL    HW115693 -30.095  10.058   7.490
 4562SOL    HW215694  -8.034  -1.131   7.496
 4563SOL     OW15695   3.151   2.386   1.155
 4563SOL    HW115696   3.101  13.379   1.222
 4563SOL    HW215697  25.238 -19.756   1.084
 4564SOL     OW15698  -1.828   6.462   4.817
 4564SOL    HW115699  31.219   6.519   4.791
 4564SOL    HW215700  -1.782   6.512   4.886
 4565SOL     OW15701   4.264   0.960   3.617
 4565SOL    HW115702  37.332   0.956   3.536
 4565SOL    HW215703  15.282   0.880 -18.416
 4566SOL     OW15704   8.971   8.841   8.492
 4566SOL    HW115705  -2.165   8.843 -13.591
 4566SOL    HW215706  -2.041 -13.228   8.402
 4567SOL     OW15707  12.711   0.946   0.184
 4567SOL    HW115708   1.735  11.920   0.212
 4567SOL    HW215709  -9.411   0.975   0.265
 4568SOL     OW15710   6.513   6.335   0.293
 4568SOL    HW115711   6.601   6.342   0.330
 4568SOL    HW215712   6.509   6.247   0.256
 4569SOL     OW15713   8.327   4.046   7.015
 4569SOL    HW115714  -2.651 -18.059   7.084
 4569SOL    HW215715   8.261   3.977  -4.024
 4570SOL     OW15716   3.663   0.608   5.417
 4570SOL    HW115717  47.902   0.613   5.468
 4570SOL    HW215718  14.632   0.616   5.481
 4571SOL     OW15719  10.806  10.081  -0.223
 4571SOL    HW115720  -0.182  10.158  10.840
 4571SOL    HW215721 -22.360 -12.022  -0.143
 4572SOL     OW15722   0.441   0.199   3.764
 4572SOL    HW115723  11.491   0.123   3.822
 4572SOL    HW215724  33.553   0.162   3.676
 4573SOL     OW15725   1.109   3.549   4.602
 4573SOL    HW115726  12.132   3.633  -6.481
 4573SOL    HW215727  12.126   3.564   4.693
 4574SOL     OW15728   6.933   8.827   9.465
 4574SOL    HW115729   7.000   8.871   9.413
 4574SOL    HW215730   6.859  41.936   9.405
 4575SOL     OW15731   1.595  10.180   0.140
 4575SOL    HW115732   1.641  10.185   0.223
 4575SOL    HW215733  12.630  10.087   0.120
 4576SOL     OW15734  10.389   8.543   9.085
 4576SOL    HW115735  -0.720   8.554   9.021
 4576SOL    HW215736  21.495   8.490   9.040
 4577SOL     OW15737   3.259   4.185   2.470
 4577SOL    HW115738  -7.802  15.266   2.554
 4577SOL    HW215739 -18.837   4.253   2.405
 4578SOL     OW15740   3.655   4.093  10.048
 4578SOL    HW115741   3.620  15.150  10.136
 4578SOL    HW215742  14.789  -6.944  10.059
 4579SOL     OW15743   3.798   5.239   1.145
 4579SOL    HW115744   3.848  -5.880  12.205
 4579SOL    HW215745   3.865   5.303 -20.959
 4580SOL     OW15746   7.461   1.481   7.205
 4580SOL    HW115747   7.404   1.537   7.257
 4580SOL    HW215748   7.426  12.528   7.116
 4581SOL     OW15749   2.356   8.368   7.698
 4581SOL    HW115750   2.297   8.444  -3.342
 4581SOL    HW215751   2.299  -2.746   7.718
 4582SOL     OW15752   7.698   7.767   5.243
 4582SOL    HW115753  -3.281  -3.265   5.169
 4582SOL    HW215754   7.753   7.743   5.317
 4583SOL     OW15755   4.133   3.796   2.842
 4583SOL    HW115756   4.094  14.750   2.824
 4583SOL    HW215757   4.161  14.867   2.756
 4584SOL     OW15758  10.482  10.510   2.294
 4584SOL    HW115759  10.520  10.507   2.382
 4584SOL    HW215760  10.535  10.448   2.243
 4585SOL     OW15761   8.202   4.898  10.692
 4585SOL    HW115762  19.239   4.885  10.598
 4585SOL    HW215763  -2.785   4.825  10.725
 4586SOL     OW15764   4.406   6.930  10.358
 4586SOL    HW115765   4.434  17.885  43.510
 4586SOL    HW215766   4.315   6.917 -11.748
 4587SOL     OW15767   4.978   3.392   5.174
 4587SOL    HW115768   4.910   3.419   5.236
 4587SOL    HW215769  16.098   3.431  49.366
 4588SOL     OW15770   0.375   0.633   2.070
 4588SOL    HW115771   0.412   0.622   1.982
 4588SOL    HW215772   0.410 -10.481   2.119
 4589SOL     OW15773   2.150  10.136  10.773
 4589SOL    HW115774   2.175  10.222  10.739
 4589SOL    HW215775   2.214 -23.043  -0.304
 4590SOL     OW15776   5.251   8.476  10.467
 4590SOL    HW115777   5.282 -13.530  10.521
 4590SOL    HW215778  -5.766   8.398  10.516
 4591SOL     OW15779   7.317   5.640   3.205
 4591SOL    HW115780  18.339  16.601   3.152
 4591SOL    HW215781   7.354  16.743   3.143
 4592SOL     OW15782   7.527   2.360   7.059
 4592SOL    HW115783  18.568   2.394   7.149
 4592SOL    HW215784  40.561   2.316 -26.068
 4593SOL     OW15785  -0.470   1.967   9.757
 4593SOL    HW115786  10.474   1.964   9.758
 4593SOL    HW215787  -0.444  -9.136   9.689
 4594SOL     OW15788   0.951   9.057  10.200
 4594SOL    HW115789  11.905  42.208  21.211
 4594SOL    HW215790   0.966   8.979  10.146
 4595SOL     OW15791   8.695   9.522   4.116
 4595SOL    HW115792   8.609   9.527   4.159
 4595SOL    HW215793  19.725  -1.587   4.051
 4596SOL     OW15794   3.307   2.772  10.116
 4596SOL    HW115795   3.380  13.751  10.103
 4596SOL    HW215796   3.349   2.858  10.117
 4597SOL     OW15797   5.437   0.579   3.054
 4597SOL    HW115798  -5.660  22.614   2.992
 4597SOL    HW215799   5.379   0.604   3.127
 4598SOL     OW15800   5.412   8.709   7.542
 4598SOL    HW115801   5.506   8.712  -3.517
 4598SOL    HW215802   5.378   8.792   7.507
 4599SOL     OW15803   2.887   6.884   2.712
 4599SOL    HW115804  13.956   6.965   2.752
 4599SOL    HW215805   2.850   6.910 -19.451
 4600SOL     OW15806   7.377   6.943   7.800
 4600SOL    HW115807  18.346   6.976   7.744
 4600SOL    HW215808   7.439 -15.177   7.739
 4601SOL     OW15809   6.984   1.840   8.636
 4601SOL    HW115810  -4.079   1.790  19.753
 4601SOL    HW215811   7.030  -9.123   8.670
 4602SOL     OW15812   6.028   8.134   4.590
 4602SOL    HW115813   5.984   8.084   4.521
 4602SOL    HW215814  -4.953   8.193   4.543
 4603SOL     OW15815   1.223  10.565   6.014
 4603SOL    HW115816  34.427  10.572  -4.981
 4603SOL    HW215817  12.209  10.513  -4.965
 4604SOL     OW15818   8.245   4.263  10.737
 4604SOL    HW115819  19.210   4.222  10.782
 4604SOL    HW215820  19.340  -6.743  -0.232
 4605SOL     OW15821   1.737   4.261   9.352
 4605SOL    HW115822   1.775   4.261   9.440
 4605SOL    HW215823  -9.352   4.343   9.348
 4606SOL     OW15824   3.434   4.278   3.156
 4606SOL    HW115825 -29.631   4.357  14.195
 4606SOL    HW215826   3.345   4.310  14.181
 4607SOL     OW15827   5.246   0.115   6.402
 4607SOL    HW115828   5.196   0.060   6.342
 4607SOL    HW215829   5.293   0.177  17.386
 4608SOL     OW15830   7.062   8.009  10.246
 4608SOL    HW115831   7.154  19.075  10.239
 4608SOL    HW215832   7.044   7.963  21.203
 4609SOL     OW15833   2.788   3.747   3.412
 4609SOL    HW115834 -19.234  14.749   3.479
 4609SOL    HW215835  -8.252 -18.397   3.341
 4610SOL     OW15836   6.318   1.301   1.470
 4610SOL    HW115837  17.340   1.394   1.486
 4610SOL    HW215838   6.403   1.285   1.512
 4611SOL     OW15839   6.022   1.001   4.284
 4611SOL    HW115840   5.969   1.014 -17.716
 4611SOL    HW215841   6.069   0.919 -17.779
 4612SOL     OW15842   3.760   9.589   4.824
 4612SOL    HW115843   3.749 -12.565  -6.275
 4612SOL    HW215844   3.853   9.612 -17.264
 4613SOL     OW15845   2.883   9.898   4.997
 4613SOL    HW115846   2.952   9.920  15.974
 4613SOL    HW215847   2.802   9.902   4.946
 4614SOL     OW15848   5.303   8.602   3.137
 4614SOL    HW115849   5.359   8.528 -18.965
 4614SOL    HW215850   5.322   8.619   3.229
 4615SOL     OW15851   2.751  10.111   6.590
 4615SOL    HW115852   2.689  10.132  -4.380
 4615SOL    HW215853  -8.221  21.219 -15.483
 4616SOL     OW15854   4.072   6.708   9.676
 4616SOL    HW115855   4.098 -26.343   9.613
 4616SOL    HW215856   4.086 -48.449   9.762
 4617SOL     OW15857   7.772   3.163   4.419
 4617SOL    HW115858   7.762   3.126  15.546
 4617SOL    HW215859  18.770   3.100  -6.679
 4618SOL     OW15860  10.657   3.738   7.654
 4618SOL    HW115861  10.721   3.713  40.706
 4618SOL    HW215862  10.587   3.780   7.604
 4619SOL     OW15863  -1.672   9.147   4.220
 4619SOL    HW115864   9.419   9.226  -6.834
 4619SOL    HW215865  20.472   9.080   4.241
 4620SOL     OW15866   7.999   2.082   2.926
 4620SOL    HW115867  19.003   2.090   3.015
 4620SOL    HW215868  19.119  13.070   2.937
 4621SOL     OW15869   2.153   4.105  10.859
 4621SOL    HW115870 -19.894   4.160  10.931
 4621SOL    HW215871   2.121   4.166  -0.246
 4622SOL     OW15872  10.221   3.786  11.021
 4622SOL    HW115873  10.272  25.841  10.944
 4622SOL    HW215874  10.286   3.797  11.090
 4623SOL     OW15875   6.739   0.410   5.270
 4623SOL    HW115876  17.748   0.416   5.179
 4623SOL    HW215877   6.661   0.430  16.362
 4624SOL     OW15878   9.826   4.025   2.387
 4624SOL    HW115879  -1.250  15.153   2.381
 4624SOL    HW215880   9.877   4.027   2.468
 4625SOL     OW15881   2.284   2.611   5.310
 4625SOL    HW115882   2.257   2.522   5.332
 4625SOL    HW215883   2.379   2.610   5.315
 4626SOL     OW15884   5.103  10.075   0.671
 4626SOL    HW115885   5.123  10.085   0.764
 4626SOL    HW215886   5.035  21.179   0.654
 4627SOL     OW15887   3.577   5.367   5.977
 4627SOL    HW115888 -18.579   5.421   5.956
 4627SOL    HW215889   3.545   5.277  17.010
 4628SOL     OW15890   3.468   6.747   3.687
 4628SOL    HW115891   3.531   6.741   3.615
 4628SOL    HW215892   3.418 -15.253   3.668
 4629SOL     OW15893   8.097   2.810   0.924
 4629SOL    HW115894   8.120   2.739  11.903
 4629SOL    HW215895   8.171   2.815  23.063
 4630SOL     OW15896   6.298  11.811   5.676
 4630SOL    HW115897  -4.751   0.676   5.673
 4630SOL    HW215898 -15.759 -21.288   5.767
 4631SOL     OW15899  -0.992   8.454   3.533
 4631SOL    HW115900  32.074   8.375 -18.532
 4631SOL    HW215901  -0.998  19.510  -7.601
 4632SOL     OW15902   7.737  -2.115   2.858
 4632SOL    HW115903   7.815  19.966   2.803
 4632SOL    HW215904   7.713  19.872   2.862
 4633SOL     OW15905   2.212   3.316   2.921
 4633SOL    HW115906   2.292   3.366   2.940
 4633SOL    HW215907  -8.796   3.235   2.883
 4634SOL     OW15908   8.897   8.316  10.521
 4634SOL    HW115909   8.986   8.307  10.487
 4634SOL    HW215910   8.849   8.243  -0.557
 4635SOL     OW15911   4.889   7.696   7.329
 4635SOL    HW115912   4.848   7.699   7.416
 4635SOL    HW215913 -17.218   7.776  -3.754
 4636SOL     OW15914   9.207   5.962   1.419
 4636SOL    HW115915   9.209 -38.273   1.477
 4636SOL    HW215916   9.293 -16.076   1.431
 4637SOL     OW15917  10.277   2.091   3.839
 4637SOL    HW115918  10.369   2.069  25.927
 4637SOL    HW215919  10.256  13.177  25.999
 4638SOL     OW15920   3.971   9.408   4.580
 4638SOL    HW115921   3.958  -1.539   4.558
 4638SOL    HW215922   4.066   9.398  26.664
 4639SOL     OW15923   0.871   0.653   9.340
 4639SOL    HW115924  11.936   0.586   9.403
 4639SOL    HW215925  11.822   0.628  20.352
 4640SOL     OW15926   6.119   5.367   2.256
 4640SOL    HW115927 -26.980   5.407   2.341
 4640SOL    HW215928  -4.847   5.393  13.239
 4641SOL     OW15929   3.548   8.801  -0.272
 4641SOL    HW115930   3.632   8.814  21.764
 4641SOL    HW215931   3.560   8.837  -0.184
 4642SOL     OW15932   7.715   5.755   7.087
 4642SOL    HW115933   7.658   5.788   7.017
 4642SOL    HW215934   7.655  16.770  18.197
 4643SOL     OW15935   4.154   7.411  11.069
 4643SOL    HW115936   4.155   7.428   0.123
 4643SOL    HW215937   4.124   7.493 -11.050
 4644SOL     OW15938   0.757   0.659   3.116
 4644SOL    HW115939   0.801   0.703 -19.036
 4644SOL    HW215940 -10.332  11.769   3.160
 4645SOL     OW15941   4.105   2.347   0.801
 4645SOL    HW115942   4.150  13.368  22.963
 4645SOL    HW215943   4.175   2.355  11.776
 4646SOL     OW15944   3.305   4.863   5.086
 4646SOL    HW115945  -7.676   4.854   5.010
 4646SOL    HW215946  -7.812  15.852   5.062
 4647SOL     OW15947   4.618   7.238   6.573
 4647SOL    HW115948   4.577  -3.749   6.504
 4647SOL    HW215949   4.679   7.181   6.527
 4648SOL     OW15950   9.529   0.641   5.475
 4648SOL    HW115951  20.614  11.623   5.414
 4648SOL    HW215952  20.574   0.728   5.435
 4649SOL     OW15953   2.774   6.466   4.992
 4649SOL    HW115954  -8.177 -15.593   5.024
 4649SOL    HW215955   2.778  -4.558  15.938
 4650SOL     OW15956   0.781   2.935   4.371
 4650SOL    HW115957   0.816  14.014  15.331
 4650SOL    HW215958   0.786   3.004  15.477
 4651SOL     OW15959   6.640   5.888   2.159
 4651SOL    HW115960   6.656  -5.229   2.214
 4651SOL    HW215961  -4.446  -5.091  13.256
 4652SOL     OW15962   5.225   1.369   1.187
 4652SOL    HW115963   5.173  -9.630   1.256
 4652SOL    HW215964   5.186   1.283   1.174
 4653SOL     OW15965   9.258   1.275   0.666
 4653SOL    HW115966  -1.840   1.224   0.609
 4653SOL    HW215967   9.206   1.351   0.691
 4654SOL     OW15968   7.022  10.348   4.458
 4654SOL    HW115969   7.058  10.344   4.547
 4654SOL    HW215970  17.966  10.343   4.471
 4655SOL     OW15971   7.450   5.655   7.154
 4655SOL    HW115972   7.400   5.690 -14.852
 4655SOL    HW215973   7.406   5.689   7.076
 4656SOL     OW15974   2.084   9.949  -1.087
 4656SOL    HW115975 -31.070   9.986  -1.006
 4656SOL    HW215976   2.048 -12.219  43.068
 4657SOL     OW15977   8.461   2.865   0.770
 4657SOL    HW115978   8.426   2.821  33.966
 4657SOL    HW215979  -2.531  13.980  22.885
 4658SOL     OW15980   7.078   6.072   6.201
 4658SOL    HW115981   7.169   6.098   6.214
 4658SOL    HW215982   7.066  17.113  28.185
 4659SOL     OW15983   1.303   6.251   8.048
 4659SOL    HW115984   1.302   6.299   7.965
 4659SOL    HW215985   1.345 -15.768  -2.930
 4660SOL     OW15986   0.388   7.310   9.309
 4660SOL    HW115987   0.414  -3.638  20.358
 4660SOL    HW215988   0.295   7.314  -1.753
 4661SOL     OW15989   0.138   6.704   2.237
 4661SOL    HW115990 -21.878   6.776  13.281
 4661SOL    HW215991  22.133   6.744   2.260
 4662SOL     OW15992  10.017   2.575   6.456
 4662SOL    HW115993  10.050   2.490   6.485
 4662SOL    HW215994  -1.076  13.645   6.529
 4663SOL     OW15995   8.093   8.684   0.202
 4663SOL    HW115996  19.097   8.598   0.178
 4663SOL    HW215997   8.069   8.740   0.129
 4664SOL     OW15998  10.820   6.492   9.704
 4664SOL    HW115999  10.732   6.469   9.737
 4664SOL    HW216000  10.821   6.587  20.741
 4665SOL     OW16001   4.051   2.009   3.449
 4665SOL    HW116002   4.145   2.006   3.466
 4665SOL    HW216003   4.017   1.928   3.486
 4666SOL     OW16004   1.247   0.202  -0.320
 4666SOL    HW116005   1.319   0.260  43.865
 4666SOL    HW216006   1.277   0.162  -0.401
 4667SOL     OW16007   8.857   0.815   9.188
 4667SOL    HW116008   8.827   0.747   9.248
 4667SOL    HW216009  19.855  22.974  -1.821
 4668SOL     OW16010   5.993   1.696   9.270
 4668SOL    HW116011  27.984  23.741   9.257
 4668SOL    HW216012   6.047   1.649   9.207
 4669SOL     OW16013   3.014   7.179   6.438
 4669SOL    HW116014   3.070   7.254  28.535
 4669SOL    HW216015   2.926  -3.824   6.429
 4670SOL     OW16016  -0.881   9.790  10.390
 4670SOL    HW116017  -0.856   9.729  10.459
 4670SOL    HW216018  21.261   9.774  10.320
 4671SOL     OW16019   2.296   6.082   2.604
 4671SOL    HW116020  -8.711  -4.959   2.694
 4671SOL    HW216021   2.337   6.006  24.642
 4672SOL     OW16022   0.009  10.109  10.281
 4672SOL    HW116023  22.111  10.042  10.217
 4672SOL    HW216024  -0.052  -0.973  10.340
 4673SOL     OW16025   4.219  10.083  10.341
 4673SOL    HW116026   4.195  10.123  10.425
 4673SOL    HW216027  -6.841  -0.889  10.276
 4674SOL     OW16028   5.317   1.074  10.570
 4674SOL    HW116029  16.402   0.990 -11.500
 4674SOL    HW216030  16.404   1.134  10.627
 4675SOL     OW16031   3.362   0.932   4.561
 4675SOL    HW116032   3.371   0.948  -6.384
 4675SOL    HW216033   3.335   1.016   4.525
 4676SOL     OW16034   9.925   7.976   9.252
 4676SOL    HW116035   9.976  -3.141   9.227
 4676SOL    HW216036   9.983   8.023   9.313
 4677SOL     OW16037  10.227  10.613   9.725
 4677SOL    HW116038  10.241  21.676   9.817
 4677SOL    HW216039  10.315  -0.434   9.688
 4678SOL     OW16040   6.728   3.137   1.123
 4678SOL    HW116041   6.793  14.159   1.191
 4678SOL    HW216042   6.758  -7.822   1.082
 4679SOL     OW16043   1.101   8.952   8.331
 4679SOL    HW116044   1.123  -1.998   8.357
 4679SOL    HW216045  12.205   8.930   8.264
 4680SOL     OW16046   2.947   9.149   1.594
 4680SOL    HW116047   2.944  -1.977  -9.404
 4680SOL    HW216048   3.039   9.176   1.603
 4681SOL     OW16049  10.355   1.674   8.953
 4681SOL    HW116050  10.354   1.769   8.951
 4681SOL    HW216051 -22.851   1.649  19.960
 4682SOL     OW16052   2.439   5.215  11.797
 4682SOL    HW116053   2.379  38.370 -21.257
 4682SOL    HW216054  -8.628   5.254  11.714
 4683SOL     OW16055   3.102   5.292   0.953
 4683SOL    HW116056   3.084   5.361   1.017
 4683SOL    HW216057   3.052  16.357   0.875
 4684SOL     OW16058   3.992   2.605   5.119
 4684SOL    HW116059   4.021   2.538   5.181
 4684SOL    HW216060   3.897  -8.445  -5.925
 4685SOL     OW16061   1.117   5.919   0.862
 4685SOL    HW116062   1.083   5.920   0.952
 4685SOL    HW216063   1.125  17.050   0.838
 4686SOL     OW16064   7.063  10.405  -1.210
 4686SOL    HW116065   7.035  10.314  -1.221
 4686SOL    HW216066   7.079  10.414  20.963
 4687SOL     OW16067   2.619   5.022   1.292
 4687SOL    HW116068   2.639   4.990  -9.835
 4687SOL    HW216069 -19.481   4.943   1.342
 4688SOL     OW16070   3.477   9.706   7.834
 4688SOL    HW116071   3.453   9.722  30.005
 4688SOL    HW216072   3.393  20.733   7.789
 4689SOL     OW16073   7.468   5.556   2.598
 4689SOL    HW116074  18.557   5.482   2.634
 4689SOL    HW216075   7.415   5.518   2.528
 4690SOL     OW16076  10.895   3.476   5.408
 4690SOL    HW116077  21.938  14.441   5.468
 4690SOL    HW216078  -0.177   3.549   5.461
 4691SOL     OW16079   4.691   1.287   6.651
 4691SOL    HW116080   4.673  23.277  17.658
 4691SOL    HW216081   4.641  12.333  17.771
 4692SOL     OW16082   7.772   2.534   5.236
 4692SOL    HW116083   7.774   2.532  -5.707
 4692SOL    HW216084   7.797 -19.456   5.214
 4693SOL     OW16085   5.552   2.377   4.874
 4693SOL    HW116086   5.589   2.325   4.945
 4693SOL    HW216087   5.627  35.540  -6.206
 4694SOL     OW16088   7.817   6.326   3.084
 4694SOL    HW116089   7.753   6.388  -7.919
 4694SOL    HW216090   7.810  28.416   2.989
 4695SOL     OW16091   5.408   6.221   5.777
 4695SOL    HW116092   5.416   6.275   5.699
 4695SOL    HW216093   5.364   6.142   5.747
 4696SOL     OW16094   7.277   0.818   6.765
 4696SOL    HW116095 -25.922   0.855   6.727
 4696SOL    HW216096  -3.711   0.895   6.790
 4697SOL     OW16097   4.502   1.601   7.807
 4697SOL    HW116098   4.525   1.523   7.857
 4697SOL    HW216099  15.496  -9.382   7.870
 4698SOL     OW16100   8.250   4.277   4.423
 4698SOL    HW116101   8.222   4.318  15.381
 4698SOL    HW216102   8.194   4.315  15.530
 4699SOL     OW16103   7.224   7.946   3.677
 4699SOL    HW116104   7.199 -14.203  -7.423
 4699SOL    HW216105  18.349  18.959  -7.328
 4700SOL     OW16106  10.702   5.033   3.715
 4700SOL    HW116107  -0.398   5.082  -7.381
 4700SOL    HW216108  10.780   5.088   3.721
 4701SOL     OW16109   4.932   6.920   2.184
 4701SOL    HW116110   4.888  -4.070   2.115
 4701SOL    HW216111   4.865  17.901   2.218
 4702SOL     OW16112   0.177   8.112   4.257
 4702SOL    HW116113   0.119   8.186   4.271
 4702SOL    HW216114   0.247  -2.916   4.322
 4703SOL     OW16115   7.930   1.703   7.774
 4703SOL    HW116116   7.957  12.816   7.719
 4703SOL    HW216117  19.048   1.682   7.826
 4704SOL     OW16118  11.000  10.266  10.875
 4704SOL    HW116119  11.052  21.348  10.807
 4704SOL    HW216120  11.034  10.301  10.957
 4705SOL     OW16121   3.426   8.156   3.804
 4705SOL    HW116122  14.428   8.159   3.892
 4705SOL    HW216123   3.352   8.131   3.748
 4706SOL     OW16124  -1.229   0.420  10.340
 4706SOL    HW116125  20.916   0.483  10.313
 4706SOL    HW216126  -1.197   0.386  21.463
 4707SOL     OW16127   3.181   4.361   8.976
 4707SOL    HW116128   3.101  -6.692   8.924
 4707SOL    HW216129  25.271  -6.583   8.977
 4708SOL     OW16130   3.882   7.224   2.184
 4708SOL    HW116131  14.939   7.271   2.265
 4708SOL    HW216132   3.927   7.275   2.116
 4709SOL     OW16133   4.872   4.475   9.730
 4709SOL    HW116134   4.894   4.548   9.672
 4709SOL    HW216135   4.792   4.503  -1.265
 4710SOL     OW16136   4.229   5.723   1.971
 4710SOL    HW116137   4.213  16.773   1.877
 4710SOL    HW216138   4.161  -5.262   2.012
 4711SOL     OW16139   7.527   9.439  13.922
 4711SOL    HW116140  18.592   9.500 -52.246
 4711SOL    HW216141  18.506   9.378  13.963
 4712SOL     OW16142   1.740   1.427   4.339
 4712SOL    HW116143   1.803  12.538   4.329
 4712SOL    HW216144   1.668  23.544   4.389
 4713SOL     OW16145   1.010  10.940  10.847
 4713SOL    HW116146 -10.043  11.023  10.800
 4713SOL    HW216147   0.934  10.934  10.905
 4714SOL     OW16148   5.736   7.941   4.446
 4714SOL    HW116149   5.759  -3.191  15.487
 4714SOL    HW216150   5.753   7.968   4.355
 4715SOL     OW16151   0.418   2.606  10.087
 4715SOL    HW116152   0.477   2.566  10.152
 4715SOL    HW216153   0.477   2.639  21.058
 4716SOL     OW16154   3.800   5.272   3.870
 4716SOL    HW116155  -7.151   5.308  14.910
 4716SOL    HW216156   3.750  16.370   3.814
 4717SOL     OW16157   1.739   4.053   9.161
 4717SOL    HW116158   1.684   4.110  -1.825
 4717SOL    HW216159   1.735  15.007  -1.835
 4718SOL     OW16160   6.184   3.719   8.298
 4718SOL    HW116161   6.121  36.876   8.359
 4718SOL    HW216162 -15.920   3.626   8.294
 4719SOL     OW16163   7.292   9.282   7.257
 4719SOL    HW116164   7.343 -12.720  29.361
 4719SOL    HW216165 -25.809   9.271  18.203
 4720SOL     OW16166   4.506   6.888  10.114
 4720SOL    HW116167   4.482   6.916  10.203
 4720SOL    HW216168   4.592   6.848  10.124
 4721SOL     OW16169   1.335   5.311   9.724
 4721SOL    HW116170   1.326   5.277   9.635
 4721SOL    HW216171   1.395  27.465 -23.403
 4722SOL     OW16172   5.643   8.412  10.520
 4722SOL    HW116173   5.677   8.355  10.451
 4722SOL    HW216174   5.553   8.382  10.533
 4723SOL     OW16175   0.005   1.723   5.335
 4723SOL    HW116176   0.071   1.674   5.384
 4723SOL    HW216177   0.011   1.812   5.369
 4724SOL     OW16178   1.350   3.380   2.728
 4724SOL    HW116179   1.340   3.285   2.723
 4724SOL    HW216180  -9.693  36.527   2.636
 4725SOL     OW16181   8.544   6.735   7.743
 4725SOL    HW116182 -13.567   6.645   7.739
 4725SOL    HW216183   8.552   6.761   7.651
 4726SOL     OW16184   8.295   2.544   3.867
 4726SOL    HW116185   8.298  13.490   3.847
 4726SOL    HW216186   8.374   2.561   3.917
 4727SOL     OW16187  10.861   6.249   1.035
 4727SOL    HW116188  10.847  17.194   1.024
 4727SOL    HW216189  10.916 -15.805  23.040
 4728SOL     OW16190   6.358   0.034   9.203
 4728SOL    HW116191  17.346   0.042  -1.756
 4728SOL    HW216192 -15.639  -0.005  -1.808
 4729SOL     OW16193   0.527   4.848   1.140
 4729SOL    HW116194   0.572  15.840  23.149
 4729SOL    HW216195  11.637   4.895  12.225
 4730SOL     OW16196   6.890   6.975   9.426
 4730SOL    HW116197   6.882  17.968   9.509
 4730SOL    HW216198   6.902   7.067  -1.589
 4731SOL     OW16199   5.175   1.452   2.195
 4731SOL    HW116200   5.216   1.382  -8.794
 4731SOL    HW216201   5.232  -9.512   2.207
 4732SOL     OW16202   6.225   2.463   2.389
 4732SOL    HW116203   6.237 -19.664   2.471
 4732SOL    HW216204   6.226   2.555 -19.664
 4733SOL     OW16205   7.531   0.146   7.862
 4733SOL    HW116206   7.594   0.149   7.933
 4733SOL    HW216207  40.690   0.198   7.792
 4734SOL     OW16208   3.588   2.002   2.419
 4734SOL    HW116209   3.677   1.966   2.414
 4734SOL    HW216210   3.547 -31.144   2.336
 4735SOL     OW16211   9.242   5.233   6.482
 4735SOL    HW116212   9.247  27.258   6.560
 4735SOL    HW216213   9.153   5.269  17.522
 4736SOL     OW16214   9.718   7.661   8.841
 4736SOL    HW116215  31.749   7.641   8.921
 4736SOL    HW216216   9.759   7.746  -2.182
 4737SOL     OW16217   2.442   3.131   0.613
 4737SOL    HW116218  -8.570  14.084   0.645
 4737SOL    HW216219   2.487   3.193 -10.369
 4738SOL     OW16220  11.773   0.648   8.017
 4738SOL    HW116221   0.729   0.647   7.921
 4738SOL    HW216222 -10.325   0.558   8.043
 4739SOL     OW16223   3.057   1.063   4.370
 4739SOL    HW116224  14.139   1.065   4.456
 4739SOL    HW216225   3.071  12.014   4.339
 4740SOL     OW16226   2.732   1.120   8.520
 4740SOL    HW116227   2.767   1.064   8.590
 4740SOL    HW216228   2.721   1.206   8.560
 4741SOL     OW16229   6.410   0.549   8.553
 4741SOL    HW116230   6.370   0.605   8.488
 4741SOL    HW216231   6.392   0.460   8.523
 4742SOL     OW16232   4.530   9.588   7.323
 4742SOL    HW116233 -17.555   9.679   7.295
 4742SOL    HW216234   4.592   9.548  -3.778
 4743SOL     OW16235   5.448   8.014  10.646
 4743SOL    HW116236   5.390   7.973  10.711
 4743SOL    HW216237   5.520   7.951  10.635
 4744SOL     OW16238  10.495   3.367   3.954
 4744SOL    HW116239  10.485   3.278  15.026
 4744SOL    HW216240  10.469   3.423  15.067
 4745SOL     OW16241  10.557   0.888   6.563
 4745SOL    HW116242  10.596   0.914   6.646
 4745SOL    HW216243  -0.411   0.845 -15.564
 4746SOL     OW16244   4.757  10.925   1.137
 4746SOL    HW116245   4.842  10.904  23.177
 4746SOL    HW216246   4.709  10.969   1.068
 4747SOL     OW16247   3.579   7.217  10.579
 4747SOL    HW116248   3.659   7.174  10.549
 4747SOL    HW216249   3.551  18.205 -11.425
 4748SOL     OW16250   1.973   1.760   9.364
 4748SOL    HW116251   1.988   1.853   9.344
 4748SOL    HW216252   1.893   1.738   9.316
 4749SOL     OW16253   4.614   2.591   1.956
 4749SOL    HW116254 -28.474   2.501   1.951
 4749SOL    HW216255   4.691   2.645   1.939
 4750SOL     OW16256   7.049   3.129  10.641
 4750SOL    HW116257  18.083   3.166  10.730
 4750SOL    HW216258   6.958   3.109  10.619
 4751SOL     OW16259   1.115   5.668   1.255
 4751SOL    HW116260   1.065   5.642   1.332
 4751SOL    HW216261   1.085  49.766   1.186
 4752SOL     OW16262   3.210   1.221   8.852
 4752SOL    HW116263   3.204  23.276  30.839
 4752SOL    HW216264   3.301   1.204   8.876
 4753SOL     OW16265   5.414   4.861   8.948
 4753SOL    HW116266   5.504  26.973   8.949
 4753SOL    HW216267   5.414  26.872   8.881
 4754SOL     OW16268  10.355   8.565   6.224
 4754SOL    HW116269  10.409   8.487  -4.827
 4754SOL    HW216270  10.302  -2.471   6.145
 4755SOL     OW16271   3.436  10.265   9.936
 4755SOL    HW116272   3.375  10.239   9.867
 4755SOL    HW216273   3.505  10.314   9.890
 4756SOL     OW16274   4.945   0.461   3.383
 4756SOL    HW116275   4.905  33.617 -18.618
 4756SOL    HW216276   5.023   0.416  14.453
 4757SOL     OW16277   8.413   1.200   1.119
 4757SOL    HW116278   8.324   1.175   1.094
 4757SOL    HW216279  -2.604   1.137   1.188
 4758SOL     OW16280   9.427   5.261   8.820
 4758SOL    HW116281 -12.619   5.184   8.774
 4758SOL    HW216282  -1.598   5.334   8.761
 4759SOL     OW16283   2.941   2.433   3.953
 4759SOL    HW116284  36.050   2.379  14.915
 4759SOL    HW216285   3.028  24.490   3.988
 4760SOL     OW16286   2.602   4.031   6.961
 4760SOL    HW116287  -8.512   3.976  29.013
 4760SOL    HW216288  -8.361   3.979   6.939
 4761SOL     OW16289   3.451   6.958   5.261
 4761SOL    HW116290   3.405  17.922   5.298
 4761SOL    HW216291   3.417   6.965   5.172
 4762SOL     OW16292  10.084   4.657  10.306
 4762SOL    HW116293  10.173  -6.354  10.288
 4762SOL    HW216294  10.094  26.667  10.371
 4763SOL     OW16295   8.596   7.551   8.233
 4763SOL    HW116296 -13.471   7.558  -2.901
 4763SOL    HW216297 -13.414   7.492  19.302
 4764SOL     OW16298   3.283   2.548   8.510
 4764SOL    HW116299   3.234  13.612   8.432
 4764SOL    HW216300   3.375   2.557  30.564
 4765SOL     OW16301   7.028  10.076   7.697
 4765SOL    HW116302   6.981  10.149   7.658
 4765SOL    HW216303   7.118  10.087   7.667
 4766SOL     OW16304  -0.084  10.946   6.718
 4766SOL    HW116305  -0.086  11.033   6.678
 4766SOL    HW216306  10.878  10.944   6.775
 4767SOL     OW16307   6.038   0.220   0.899
 4767SOL    HW116308  17.049   0.210   0.808
 4767SOL    HW216309   6.074  22.214 -10.117
 4768SOL     OW16310   6.300   7.710   8.151
 4768SOL    HW116311   6.357   7.767   8.202
 4768SOL    HW216312  17.260  -3.338   8.204
 4769SOL     OW16313   5.873  10.175   9.059
 4769SOL    HW116314 -16.198  10.247   9.121
 4769SOL    HW216315   5.806  10.205   8.997
 4770SOL     OW16316   5.422   7.869   2.972
 4770SOL    HW116317   5.405   7.909 -19.022
 4770SOL    HW216318   5.452   7.780   2.993
 4771SOL     OW16319   1.073   3.500   6.102
 4771SOL    HW116320   1.077  25.624  -5.022
 4771SOL    HW216321   1.046   3.410   6.080
 4772SOL     OW16322   6.463   8.401   2.949
 4772SOL    HW116323   6.538   8.351   2.916
 4772SOL    HW216324   6.386  19.394  13.954
 4773SOL     OW16325   0.944   5.150   2.535
 4773SOL    HW116326   0.953   5.216   2.467
 4773SOL    HW216327   1.034  16.166   2.559
 4774SOL     OW16328   8.938   4.060   0.988
 4774SOL    HW116329   9.009   4.111   0.949
 4774SOL    HW216330  42.083   3.969   0.975
 4775SOL     OW16331   8.898   4.120   3.735
 4775SOL    HW116332  -2.171   4.211   3.737
 4775SOL    HW216333   8.874   4.089   3.647
 4776SOL     OW16334   7.366   6.718   6.630
 4776SOL    HW116335  -3.593  28.782  -4.459
 4776SOL    HW216336   7.333   6.631   6.650
 4777SOL     OW16337   0.023   6.332   3.475
 4777SOL    HW116338   0.027   6.409  14.458
 4777SOL    HW216339  11.003  17.312   3.430
 4778SOL     OW16340   1.115  13.969  10.123
 4778SOL    HW116341   1.100 -41.143  10.163
 4778SOL    HW216342   1.171  13.987  10.048
 4779SOL     OW16343   3.726   1.594   6.710
 4779SOL    HW116344  -7.297  -9.353   6.693
 4779SOL    HW216345  14.684   1.576   6.663
 4780SOL     OW16346   0.690   9.298   2.815
 4780SOL    HW116347  33.864   9.236   2.767
 4780SOL    HW216348 -21.398   9.261   2.902
 4781SOL     OW16349   1.426   0.074   7.768
 4781SOL    HW116350   1.450  -0.017  -3.290
 4781SOL    HW216351   1.474   0.096   7.847
 4782SOL     OW16352   2.239   3.081   5.515
 4782SOL    HW116353   2.163  -7.902  16.565
 4782SOL    HW216354   2.201   2.996   5.491
 4783SOL     OW16355   2.181   7.633   7.191
 4783SOL    HW116356  13.146   7.673   7.236
 4783SOL    HW216357  13.252 -14.514   7.252
 4784SOL     OW16358   8.331   7.524   3.033
 4784SOL    HW116359   8.311   7.441   2.990
 4784SOL    HW216360  30.361   7.522   3.115
 4785SOL     OW16361   2.720   6.042   4.122
 4785SOL    HW116362   2.662   6.118   4.111
 4785SOL    HW216363  35.800   5.993   4.194
 4786SOL     OW16364   6.678   8.920   8.142
 4786SOL    HW116365   6.723   8.995   8.181
 4786SOL    HW216366   6.734   8.845  30.244
 4787SOL     OW16367   8.743  11.022   6.659
 4787SOL    HW116368   8.686  11.082   6.610
 4787SOL    HW216369   8.764  11.069   6.739
 4788SOL     OW16370   8.336   2.790  12.135
 4788SOL    HW116371   8.365   2.714  -9.895
 4788SOL    HW216372   8.357  13.904 -20.928
 4789SOL     OW16373   0.443  10.555   9.204
 4789SOL    HW116374   0.478  10.468   9.187
 4789SOL    HW216375   0.352 -22.569   9.177
 4790SOL     OW16376   9.539   9.000   8.248
 4790SOL    HW116377   9.546   9.062   8.320
 4790SOL    HW216378   9.445   8.994  -2.809
 4791SOL     OW16379   1.079   3.314   8.779
 4791SOL    HW116380   1.049  14.262   8.778
 4791SOL    HW216381  -9.943  -7.706   8.687
 4792SOL     OW16382   4.172   3.038   4.128
 4792SOL    HW116383  -6.774   3.019 -17.944
 4792SOL    HW216384   4.167   3.131  15.146
 4793SOL     OW16385   8.572   4.322   7.246
 4793SOL    HW116386   8.538  15.426   7.308
 4793SOL    HW216387  -2.414  -6.668  29.264
 4794SOL     OW16388   7.457   3.586  10.435
 4794SOL    HW116389 -14.625   3.674  10.399
 4794SOL    HW216390 -25.584  14.585  10.396
 4795SOL     OW16391  -0.060   6.390   7.858
 4795SOL    HW116392  11.061  17.470   7.828
 4795SOL    HW216393  10.984  39.515 -14.125
 4796SOL     OW16394   4.433   2.452   7.224
 4796SOL    HW116395   4.410 -30.759 -14.840
 4796SOL    HW216396   4.469  13.493   7.135
 4797SOL     OW16397   1.977   8.011   8.885
 4797SOL    HW116398   2.008   7.954   8.955
 4797SOL    HW216399   2.009   8.098   8.909
 4798SOL     OW16400   8.416   0.589   0.281
 4798SOL    HW116401  19.382   0.648   0.294
 4798SOL    HW216402   8.465   0.626   0.207
 4799SOL     OW16403   4.709  11.388   7.228
 4799SOL    HW116404   4.715 -10.741   7.146
 4799SOL    HW216405   4.800  11.402   7.253
 4800SOL     OW16406   7.709   1.539   1.240
 4800SOL    HW116407   7.693   1.562   1.331
 4800SOL    HW216408  18.681  12.626   1.191
 4801SOL     OW16409  10.209   9.039   3.496
 4801SOL    HW116410  10.182   8.954   3.463
 4801SOL    HW216411  21.288   9.020  -7.458
 4802SOL     OW16412   3.288   2.755   0.368
 4802SOL    HW116413  -7.675   2.759   0.311
 4802SOL    HW216414   3.313   2.696   0.439
 4803SOL     OW16415   1.366   2.133   3.150
 4803SOL    HW116416   1.401   2.132   3.061
 4803SOL    HW216417   1.271 -19.950   3.138
 4804SOL     OW16418   8.498   5.587   0.944
 4804SOL    HW116419   8.448   5.536   0.880
 4804SOL    HW216420   8.575   5.616   0.897
 4805SOL     OW16421   4.731   3.666   0.636
 4805SOL    HW116422   4.809   3.623  11.712
 4805SOL    HW216423  15.805 -18.350   0.573
 4806SOL     OW16424   9.791   2.677   0.420
 4806SOL    HW116425   9.759   2.762   0.449
 4806SOL    HW216426   9.784   2.678   0.325
 4807SOL     OW16427   8.050   9.134   2.022
 4807SOL    HW116428  -2.931   9.098   1.955
 4807SOL    HW216429   7.985  -1.974   2.037
 4808SOL     OW16430   5.847   0.167   2.367
 4808SOL    HW116431   5.774  11.241   2.419
 4808SOL    HW216432   5.914   0.235  -8.667
 4809SOL     OW16433   0.637   7.189   8.239
 4809SOL    HW116434   0.642   7.246   8.315
 4809SOL    HW216435 -10.329 -14.951   8.249
 4810SOL     OW16436   1.211   1.413  11.750
 4810SOL    HW116437  34.319   1.497  11.794
 4810SOL    HW216438  23.338  -9.680 -10.267
 4811SOL     OW16439  10.723   4.694   7.015
 4811SOL    HW116440  10.677   4.706   7.099
 4811SOL    HW216441 -11.349  -6.258   6.979
 4812SOL     OW16442   3.418  10.325   9.638
 4812SOL    HW116443   3.352 -11.817 -12.469
 4812SOL    HW216444   3.380  32.490   9.618
 4813SOL     OW16445   9.316   7.445   8.625
 4813SOL    HW116446  42.348   7.450   8.585
 4813SOL    HW216447 -23.814   7.384  30.777
 4814SOL     OW16448   9.255   4.179   9.573
 4814SOL    HW116449   9.255   4.255   9.631
 4814SOL    HW216450   9.175  15.171   9.596
 4815SOL     OW16451   3.629   1.748  10.802
 4815SOL    HW116452  14.579  23.847  -0.210
 4815SOL    HW216453  -7.363   1.830  10.815
 4816SOL     OW16454   7.883   9.163   2.876
 4816SOL    HW116455 -14.127   9.098  13.926
 4816SOL    HW216456   7.802   9.114   2.887
 4817SOL     OW16457   1.182  10.596   8.156
 4817SOL    HW116458   1.133 -11.436   8.089
 4817SOL    HW216459  12.240  10.662   8.223
 4818SOL     OW16460   0.160   1.100  10.672
 4818SOL    HW116461   0.171   1.150  10.591
 4818SOL    HW216462   0.067   1.078  -0.366
 4819SOL     OW16463  10.836   8.773   1.003
 4819SOL    HW116464  -0.253   8.849  12.074
 4819SOL    HW216465  10.925   8.806   0.989
 4820SOL     OW16466   2.395   9.539   1.904
 4820SOL    HW116467   2.420 -12.579   1.820
 4820SOL    HW216468   2.300  -1.512  12.947
 4821SOL     OW16469   3.437   5.084   2.406
 4821SOL    HW116470   3.471   4.998  13.470
 4821SOL    HW216471   3.436   5.083   2.310
 4822SOL     OW16472   5.974   6.536   4.967
 4822SOL    HW116473  -5.046   6.467  -6.136
 4822SOL    HW216474  -5.010  -4.430   4.940
 4823SOL     OW16475   5.040   1.711   6.062
 4823SOL    HW116476   5.071   1.621   6.058
 4823SOL    HW216477   5.041 -20.338  28.050
 4824SOL     OW16478   4.862   8.067   5.257
 4824SOL    HW116479   4.918   7.991   5.274
 4824SOL    HW216480   4.917   8.143  -5.765
 4825SOL     OW16481  10.479   0.614   5.234
 4825SOL    HW116482  10.433   0.604   5.317
 4825SOL    HW216483  -0.617   0.572  16.209
 4826SOL     OW16484   1.651   9.657   1.330
 4826SOL    HW116485   1.674   9.737  12.417
 4826SOL    HW216486   1.608   9.688   1.251
 4827SOL     OW16487   6.523   2.922   3.360
 4827SOL    HW116488   6.597   2.906   3.302
 4827SOL    HW216489   6.485   3.004   3.328
 4828SOL     OW16490   1.134   7.694   8.994
 4828SOL    HW116491   1.147  18.663   8.931
 4828SOL    HW216492   1.164   7.773   8.949
 4829SOL     OW16493   0.529  11.501   2.204
 4829SOL    HW116494  22.697  11.473   2.182
 4829SOL    HW216495  22.574 -10.648  -8.780
 4830SOL     OW16496   3.185   0.872  10.084
 4830SOL    HW116497   3.160 -10.260  10.091
 4830SOL    HW216498   3.275   0.870  10.051
 4831SOL     OW16499   9.116   5.463   8.611
 4831SOL    HW116500 -12.900   5.430  30.625
 4831SOL    HW216501  20.089   5.395  19.655
 4832SOL     OW16502   2.540   4.559   8.702
 4832SOL    HW116503   2.461   4.612   8.686
 4832SOL    HW216504   2.520  15.514   8.663
 4833SOL     OW16505   5.286   8.856  11.344
 4833SOL    HW116506   5.201   8.813   0.294
 4833SOL    HW216507 -16.782   8.864 -10.640
 4834SOL     OW16508   3.680   5.435   6.808
 4834SOL    HW116509  14.793   5.410   6.864
 4834SOL    HW216510 -18.474  -5.600   6.868
 4835SOL     OW16511   1.824   8.181   9.403
 4835SOL    HW116512   1.755   8.197   9.338
 4835SOL    HW216513   1.777   8.150   9.481
 4836SOL     OW16514   4.576   5.483   2.029
 4836SOL    HW116515  -6.535   5.420  13.061
 4836SOL    HW216516   4.577 -16.573  13.162
 4837SOL     OW16517   3.733   9.635   9.311
 4837SOL    HW116518 -18.394 -23.531   9.242
 4837SOL    HW216519   3.817   9.589  31.395
 4838SOL     OW16520   4.451   0.011   0.401
 4838SOL    HW116521  -6.629  -0.068   0.438
 4838SOL    HW216522   4.380   0.074  11.435
 4839SOL     OW16523  10.611   0.588   3.081
 4839SOL    HW116524  10.531   0.569  14.072
 4839SOL    HW216525  10.649   0.663   3.035
 4840SOL     OW16526   6.066   0.210  10.165
 4840SOL    HW116527 -27.139   0.244  10.190
 4840SOL    HW216528   6.055   0.115  10.163
 4841SOL     OW16529   5.521   8.246   4.062
 4841SOL    HW116530  16.652 -13.827  37.209
 4841SOL    HW216531  38.624  19.192   4.049
 4842SOL     OW16532   7.093  11.001  10.824
 4842SOL    HW116533   7.136  10.995  10.910
 4842SOL    HW216534   7.015  11.054  -0.199
 4843SOL     OW16535  12.074   6.222   2.776
 4843SOL    HW116536   0.990   6.275   2.842
 4843SOL    HW216537   1.073   6.150   2.825
 4844SOL     OW16538   2.764   4.744   2.121
 4844SOL    HW116539   2.692   4.782  24.150
 4844SOL    HW216540   2.827   4.815  13.171
 4845SOL     OW16541   3.359   0.817   4.292
 4845SOL    HW116542   3.335   0.795   4.382
 4845SOL    HW216543   3.432   0.879   4.301
 4846SOL     OW16544   9.764   0.692   4.953
 4846SOL    HW116545  -1.219   0.641   5.011
 4846SOL    HW216546   9.799  44.939   4.957
 4847SOL     OW16547   7.660   5.697   9.823
 4847SOL    HW116548   7.672   5.603   9.840
 4847SOL    HW216549  18.617   5.719   9.867
 4848SOL     OW16550   7.952   5.508   2.214
 4848SOL    HW116551   8.032  38.645   2.262
 4848SOL    HW216552   7.953   5.413  13.241
 4849SOL     OW16553   6.220  -0.518   1.190
 4849SOL    HW116554  28.204  -0.517   1.175
 4849SOL    HW216555   6.233  10.583   1.263
 4850SOL     OW16556   5.461  10.497   5.347
 4850SOL    HW116557  -5.572  10.488   5.252
 4850SOL    HW216558 -16.554  10.435   5.382
 4851SOL     OW16559   4.846   9.501   3.512
 4851SOL    HW116560   4.808   9.529 -18.485
 4851SOL    HW216561   4.813   9.412   3.499
 4852SOL     OW16562   6.483   6.655   6.180
 4852SOL    HW116563   6.399   6.656  17.174
 4852SOL    HW216564   6.505   6.748   6.190
 4853SOL     OW16565   3.229   3.245   1.570
 4853SOL    HW116566   3.188   3.315   1.519
 4853SOL    HW216567   3.173   3.236   1.647
 4854SOL     OW16568  11.696   7.087   3.921
 4854SOL    HW116569 -32.493   6.996   3.913
 4854SOL    HW216570   0.706   7.089   4.002
 4855SOL     OW16571   8.838   2.200   7.336
 4855SOL    HW116572   8.812   2.110   7.356
 4855SOL    HW216573   8.893   2.192   7.258
 4856SOL     OW16574   7.331   3.216   2.775
 4856SOL    HW116575   7.354   3.283   2.840
 4856SOL    HW216576 -14.810   3.260   2.716
 4857SOL     OW16577   8.240   3.184  10.712
 4857SOL    HW116578  -2.767   3.211  10.626
 4857SOL    HW216579 -24.843   3.096  10.725
 4858SOL     OW16580   0.623   6.297  -0.523
 4858SOL    HW116581  22.683 -15.751  43.723
 4858SOL    HW216582   0.650   6.375  -0.571
 4859SOL     OW16583  10.868   5.442  -0.597
 4859SOL    HW116584  10.883   5.498  -0.673
 4859SOL    HW216585  10.956   5.423  32.555
 4860SOL     OW16586   2.113   6.122   8.611
 4860SOL    HW116587   2.191   6.069   8.597
 4860SOL    HW216588  13.143   6.126   8.706
 4861SOL     OW16589   9.682   4.231   4.186
 4861SOL    HW116590 -45.500   4.324   4.167
 4861SOL    HW216591   9.763   4.187  26.240
 4862SOL     OW16592   8.730   3.872  10.802
 4862SOL    HW116593   8.683   3.924  -0.303
 4862SOL    HW216594   8.766  -7.241  10.753
 4863SOL     OW16595   3.937  10.366   5.077
 4863SOL    HW116596   3.907  -0.752  -6.009
 4863SOL    HW216597  15.071  21.408  -5.978
 4864SOL     OW16598   6.726   4.661  10.222
 4864SOL    HW116599   6.649   4.614  10.191
 4864SOL    HW216600  -4.348   4.726  10.284
 4865SOL     OW16601   8.718  -0.687   5.332
 4865SOL    HW116602   8.802  32.449   5.376
 4865SOL    HW216603  19.774  -0.666   5.240
 4866SOL     OW16604   6.466   6.042   7.452
 4866SOL    HW116605   6.385   5.992   7.458
 4866SOL    HW216606  17.490   6.105   7.381
 4867SOL     OW16607   8.158   4.904   5.664
 4867SOL    HW116608  19.252   4.861   5.730
 4867SOL    HW216609   8.122 -17.099   5.709
 4868SOL     OW16610   2.478   9.258   6.017
 4868SOL    HW116611 -19.528   9.239   6.076
 4868SOL    HW216612   2.403  -1.771   6.074
 4869SOL     OW16613   2.015   4.610   1.888
 4869SOL    HW116614   2.040  -6.476   1.808
 4869SOL    HW216615   2.061   4.564   1.958
 4870SOL     OW16616   7.287  10.061  13.020
 4870SOL    HW116617   7.216  10.091  -9.115
 4870SOL    HW216618  18.302   9.971  -9.036
 4871SOL     OW16619   2.600   7.367  11.643
 4871SOL    HW116620   2.531 -25.771  11.707
 4871SOL    HW216621  13.711  -3.637   0.656
 4872SOL     OW16622  -1.236   5.225   2.982
 4872SOL    HW116623  31.890   5.234   3.077
 4872SOL    HW216624  -1.208 -27.984   2.964
 4873SOL     OW16625   8.128   4.980   6.757
 4873SOL    HW116626  19.112   5.053  -4.311
 4873SOL    HW216627 -13.903   4.954   6.678
 4874SOL     OW16628   1.548   7.711   5.837
 4874SOL    HW116629   1.623   7.768   5.822
 4874SOL    HW216630  23.636   7.641 -16.308
 4875SOL     OW16631  11.359   5.024   3.238
 4875SOL    HW116632  11.432   5.026   3.175
 4875SOL    HW216633   0.355   4.976  -7.727
 4876SOL     OW16634   3.135   2.071   7.840
 4876SOL    HW116635   3.208   2.094   7.899
 4876SOL    HW216636   3.147  13.017 -14.257
 4877SOL     OW16637   4.905   2.851  -0.252
 4877SOL    HW116638   4.854  24.854  -0.281
 4877SOL    HW216639   4.873   2.923  10.734
 4878SOL     OW16640   9.826   2.423   5.287
 4878SOL    HW116641   9.755   2.419  38.470
 4878SOL    HW216642   9.784   2.408  27.282
 4879SOL     OW16643   4.250   9.427   9.035
 4879SOL    HW116644  26.395   9.401   8.970
 4879SOL    HW216645   4.168  20.470   8.986
 4880SOL     OW16646   8.490   6.731  10.435
 4880SOL    HW116647   8.409   6.774 -11.673
 4880SOL    HW216648   8.461   6.659  -0.549
 4881SOL     OW16649   3.670   3.271   4.943
 4881SOL    HW116650 -18.422   3.360   4.910
 4881SOL    HW216651  -7.294   3.239   4.894
 4882SOL     OW16652   9.526   0.199   8.872
 4882SOL    HW116653   9.467   0.143   8.922
 4882SOL    HW216654  20.650   0.153   8.874
 4883SOL     OW16655   0.701   8.473   5.112
 4883SOL    HW116656   0.637   8.403  16.165
 4883SOL    HW216657  11.748  30.560   5.017
 4884SOL     OW16658   1.563  10.523   8.839
 4884SOL    HW116659   1.650 -11.545   8.879
 4884SOL    HW216660   1.566  10.575  41.878
 4885SOL     OW16661  10.534   0.482   7.581
 4885SOL    HW116662  10.447   0.447   7.563
 4885SOL    HW216663  10.527   0.575  -3.478
 4886SOL     OW16664   1.605   5.630   0.702
 4886SOL    HW116665 -20.430   5.706  22.818
 4886SOL    HW216666   1.603  16.605   0.772
 4887SOL     OW16667   1.727   0.663   9.892
 4887SOL    HW116668  12.678   0.697  -1.131
 4887SOL    HW216669   1.783  11.779   9.895
 4888SOL     OW16670   5.995   7.076   4.129
 4888SOL    HW116671 -16.158   7.016   4.126
 4888SOL    HW216672   6.072  -4.018  26.191
 4889SOL     OW16673   4.355   9.766   3.907
 4889SOL    HW116674  26.340  20.784  14.941
 4889SOL    HW216675   4.373   9.813  25.905
 4890SOL     OW16676   3.322   3.631   9.204
 4890SOL    HW116677 -18.731 -18.523   9.151
 4890SOL    HW216678   3.404  -7.378  -1.796
 4891SOL     OW16679   8.409   7.242   9.514
 4891SOL    HW116680   8.317   7.266   9.507
 4891SOL    HW216681   8.454   7.325  20.570
 4892SOL     OW16682  10.270   8.606   0.460
 4892SOL    HW116683  21.240   8.543   0.482
 4892SOL    HW216684  10.338   8.552   0.419
 4893SOL     OW16685   4.970   6.675  10.083
 4893SOL    HW116686   4.877  -4.349  10.098
 4893SOL    HW216687   5.001  17.793  10.038
 4894SOL     OW16688   4.532   5.423   6.701
 4894SOL    HW116689   4.442  16.432   6.708
 4894SOL    HW216690   4.537   5.463   6.613
 4895SOL     OW16691   0.668   9.697   4.676
 4895SOL    HW116692   0.653   9.791  26.741
 4895SOL    HW216693   0.703   9.666   4.593
 4896SOL     OW16694   0.879   0.652   3.985
 4896SOL    HW116695  11.945 -10.340   3.906
 4896SOL    HW216696  34.080   0.625  15.065
 4897SOL     OW16697   7.675   7.257  11.010
 4897SOL    HW116698  -3.419   7.222   0.041
 4897SOL    HW216699   7.759   7.214  -0.018
 4898SOL     OW16700   4.077   7.123   5.011
 4898SOL    HW116701   3.985 -25.975  16.069
 4898SOL    HW216702   4.121 -14.871   5.011
 4899SOL     OW16703   0.083   4.321   8.684
 4899SOL    HW116704   0.059  15.393 -24.348
 4899SOL    HW216705   0.106   4.399  19.674
 4900SOL     OW16706   1.447   4.174   3.142
 4900SOL    HW116707   1.497 -28.885   3.198
 4900SOL    HW216708   1.392   4.125  14.242
 4901SOL     OW16709   6.543   3.154   7.703
 4901SOL    HW116710   6.493   3.170   7.782
 4901SOL    HW216711   6.484  14.218   7.631
 4902SOL     OW16712   6.888   2.739  11.649
 4902SOL    HW116713  29.025   2.735  11.572
 4902SOL    HW216714   6.837  -8.381   0.604
 4903SOL     OW16715   6.034   8.806   6.442
 4903SOL    HW116716   6.089   8.873  17.441
 4903SOL    HW216717 -16.135 -13.244   6.426
 4904SOL     OW16718   7.618  10.483   3.816
 4904SOL    HW116719   7.561  10.559   3.802
 4904SOL    HW216720  -3.482  10.412  -7.201
 4905SOL     OW16721   8.201   1.088   5.103
 4905SOL    HW116722   8.125   1.109   5.048
 4905SOL    HW216723   8.202   1.157   5.169
 4906SOL     OW16724   2.047   3.034   7.978
 4906SOL    HW116725  -9.007  36.060  19.039
 4906SOL    HW216726   2.141   3.039   7.958
 4907SOL     OW16727   3.939   3.914   5.053
 4907SOL    HW116728   3.970   3.855  27.201
 4907SOL    HW216729   3.907   3.991  16.140
 4908SOL     OW16730   6.795   7.912   5.138
 4908SOL    HW116731  28.804   7.864 -16.986
 4908SOL    HW216732  17.870  30.049  -5.969
 4909SOL     OW16733   5.268   1.479   6.116
 4909SOL    HW116734   5.274  -9.638   6.061
 4909SOL    HW216735   5.337   1.467   6.182
 4910SOL     OW16736  -0.812   3.555   3.450
 4910SOL    HW116737  21.323   3.509   3.512
 4910SOL    HW216738  -0.759   3.559  14.409
 4911SOL     OW16739  -0.467   4.385   4.753
 4911SOL    HW116740  10.580   4.312   4.692
 4911SOL    HW216741  10.661   4.422  26.837
 4912SOL     OW16742   7.945   6.568   4.940
 4912SOL    HW116743 -25.189   6.653   4.899
 4912SOL    HW216744 -25.224   6.571   5.022
 4913SOL     OW16745   9.353   4.495   9.155
 4913SOL    HW116746   9.360   4.437   9.231
 4913SOL    HW216747   9.291   4.563  -1.858
 4914SOL     OW16748   4.943   8.432   5.737
 4914SOL    HW116749   4.967   8.454  38.766
 4914SOL    HW216750   4.926   8.516   5.779
 4915SOL     OW16751   7.755   6.136   1.107
 4915SOL    HW116752  18.889   6.149   1.110
 4915SOL    HW216753   7.743   6.045   1.132
 4916SOL     OW16754   0.881   8.267   0.977
 4916SOL    HW116755  11.959  30.433   0.963
 4916SOL    HW216756  11.854   8.259   0.910
 4917SOL     OW16757   3.946   6.031   9.585
 4917SOL    HW116758  -7.135  16.984  20.632
 4917SOL    HW216759   3.889   6.089  20.675
 4918SOL     OW16760   5.516  -0.877   6.618
 4918SOL    HW116761   5.542  32.159   6.658
 4918SOL    HW216762   5.584  10.225   6.645
 4919SOL     OW16763   1.422   1.048   6.805
 4919SOL    HW116764   1.508   1.006   6.811
 4919SOL    HW216765   1.412   1.066  17.751
 4920SOL     OW16766   3.475   8.763  10.473
 4920SOL    HW116767   3.412   8.834  10.476
 4920SOL    HW216768  25.558   8.729  10.563
 4921SOL     OW16769   4.466   1.125   2.978
 4921SOL    HW116770  15.488   1.136   2.885
 4921SOL    HW216771   4.560   1.139   2.987
 4922SOL     OW16772   2.428   0.611   8.233
 4922SOL    HW116773   2.368   0.645  30.378
 4922SOL    HW216774   2.515   0.635   8.266
 4923SOL     OW16775   1.768   6.607   5.732
 4923SOL    HW116776   1.841   6.566  16.726
 4923SOL    HW216777   1.739   6.541  -5.244
 4924SOL     OW16778   2.185   1.414   0.057
 4924SOL    HW116779   2.207   1.438 -10.892
 4924SOL    HW216780   2.249  12.501  11.044
 4925SOL     OW16781   4.346   3.606   8.995
 4925SOL    HW116782  -6.631   3.655   8.941
 4925SOL    HW216783   4.282   3.572   8.933
 4926SOL     OW16784   2.151   1.792   0.238
 4926SOL    HW116785   2.061   1.779   0.268
 4926SOL    HW216786   2.185  12.743   0.223
 4927SOL     OW16787   0.119   9.967  10.088
 4927SOL    HW116788   0.214 -23.146  10.076
 4927SOL    HW216789  22.166 -23.185  10.005
 4928SOL     OW16790   4.569   1.014   3.352
 4928SOL    HW116791   4.493  12.112   3.350
 4928SOL    HW216792  26.612   0.926   3.359
 4929SOL     OW16793   0.900   9.487   3.784
 4929SOL    HW116794   0.994   9.471   3.772
 4929SOL    HW216795   0.886   9.476   3.878
 4930SOL     OW16796   5.333   0.461  11.504
 4930SOL    HW116797  27.473  33.509  11.525
 4930SOL    HW216798   5.358   0.489 -10.663
 4931SOL     OW16799   2.625  11.032   8.463
 4931SOL    HW116800   2.697   0.048   8.493
 4931SOL    HW216801   2.553  11.054   8.521
 4932SOL     OW16802   6.495   0.987   9.691
 4932SOL    HW116803  17.486   0.926   9.635
 4932SOL    HW216804  17.625   0.980  -1.378
 4933SOL     OW16805   8.894  10.091   2.956
 4933SOL    HW116806   8.890  10.184   2.934
 4933SOL    HW216807   8.915  10.048   2.873
 4934SOL     OW16808   6.415  -0.802   8.005
 4934SOL    HW116809   6.400  10.163   7.947
 4934SOL    HW216810   6.501  32.350   7.979
 4935SOL     OW16811  10.463   3.833   2.823
 4935SOL    HW116812  10.545   3.852   2.778
 4935SOL    HW216813  10.489   3.784  -8.139
 4936SOL     OW16814   9.111   7.891   9.086
 4936SOL    HW116815   9.190  29.975   9.031
 4936SOL    HW216816  -1.976   7.972   9.067
 4937SOL     OW16817   1.573  12.398   9.413
 4937SOL    HW116818   1.520 -31.681   9.409
 4937SOL    HW216819   1.518   1.295   9.458
 4938SOL     OW16820   4.399   5.042   8.203
 4938SOL    HW116821   4.318   5.086 -24.940
 4938SOL    HW216822   4.421  -5.961   8.289
 4939SOL     OW16823   5.691   3.996   2.337
 4939SOL    HW116824   5.684  -6.951   2.362
 4939SOL    HW216825   5.706   3.950   2.419
 4940SOL     OW16826   8.907   8.324  11.141
 4940SOL    HW116827   8.859   8.355 -21.901
 4940SOL    HW216828   8.842   8.318   0.032
 4941SOL     OW16829   2.055  12.008   7.429
 4941SOL    HW116830  -8.889   0.964  18.469
 4941SOL    HW216831   2.028   0.915   7.504
 4942SOL     OW16832  10.242   9.630   3.235
 4942SOL    HW116833  10.203   9.588   3.158
 4942SOL    HW216834  10.279   9.711   3.202
 4943SOL     OW16835   1.579   6.524   6.108
 4943SOL    HW116836   1.629   6.482   6.038
 4943SOL    HW216837   1.492   6.540  17.109
 4944SOL     OW16838  -0.974   7.137   6.969
 4944SOL    HW116839  21.080 -14.911  17.921
 4944SOL    HW216840   9.997  18.116   6.994
 4945SOL     OW16841   1.614   1.422  10.448
 4945SOL    HW116842   1.630  34.454  10.485
 4945SOL    HW216843   1.685   1.476  10.481
 4946SOL     OW16844   2.313   9.282   3.573
 4946SOL    HW116845   2.224   9.318   3.577
 4946SOL    HW216846   2.300  20.228   3.555
 4947SOL     OW16847   1.156   2.545   8.921
 4947SOL    HW116848  12.266   2.552  30.936
 4947SOL    HW216849  12.235  35.617   8.995
 4948SOL     OW16850   0.412   0.850   0.928
 4948SOL    HW116851   0.328   0.886   0.900
 4948SOL    HW216852   0.441   0.796   0.854
 4949SOL     OW16853  10.326  11.622  10.386
 4949SOL    HW116854  10.393  11.678 -11.733
 4949SOL    HW216855  10.351 -21.586  -0.677
 4950SOL     OW16856   5.974   1.427   7.583
 4950SOL    HW116857   5.889   1.455  29.695
 4950SOL    HW216858   5.955   1.390   7.497
 4951SOL     OW16859   3.638  10.270   0.705
 4951SOL    HW116860   3.577  10.318   0.762
 4951SOL    HW216861   3.627  10.179  11.769
 4952SOL     OW16862   4.515   3.340   5.450
 4952SOL    HW116863  -6.529  14.449 -16.564
 4952SOL    HW216864  15.643  25.426   5.414
 4953SOL     OW16865   4.941   8.436   9.840
 4953SOL    HW116866   4.980   8.386   9.911
 4953SOL    HW216867   4.989  19.558 -12.240
 4954SOL     OW16868   6.654   3.145   2.789
 4954SOL    HW116869   6.718   3.215   2.799
 4954SOL    HW216870   6.617   3.159   2.702
 4955SOL     OW16871   0.036   9.601   3.109
 4955SOL    HW116872   0.124  -1.409   3.086
 4955SOL    HW216873  -0.009 -12.399   3.138
 4956SOL     OW16874   4.067   8.158   8.260
 4956SOL    HW116875   4.068   8.081   8.317
 4956SOL    HW216876   4.127   8.136   8.189
 4957SOL     OW16877   0.336   1.457   5.328
 4957SOL    HW116878   0.312   1.453  -5.804
 4957SOL    HW216879   0.388  -9.502   5.335
 4958SOL     OW16880   1.617   8.132   5.883
 4958SOL    HW116881   1.693   8.080  16.895
 4958SOL    HW216882   1.599   8.104  -5.067
 4959SOL     OW16883   3.032   3.415   2.517
 4959SOL    HW116884   2.967  -7.603   2.450
 4959SOL    HW216885   3.053  -7.717   2.501
 4960SOL     OW16886   0.253   9.520   1.488
 4960SOL    HW116887  11.256 -12.582   1.574
 4960SOL    HW216888   0.340   9.482   1.489
 4961SOL     OW16889   3.713   9.392   2.982
 4961SOL    HW116890   3.687   9.315  14.072
 4961SOL    HW216891  -7.255   9.361   2.927
 4962SOL     OW16892   0.033  -0.488   4.726
 4962SOL    HW116893   0.100  -0.427  15.735
 4962SOL    HW216894   0.070  21.555  26.886
 4963SOL     OW16895   8.869   3.304  -0.144
 4963SOL    HW116896  19.989   3.274  10.853
 4963SOL    HW216897   8.882   3.397  21.950
 4964SOL     OW16898   6.786   3.993  10.061
 4964SOL    HW116899   6.733  26.015  10.005
 4964SOL    HW216900   6.766   3.964  10.150
 4965SOL     OW16901   6.612   6.071   5.018
 4965SOL    HW116902  -4.398   6.101  27.183
 4965SOL    HW216903   6.673   6.001  16.033
 4966SOL     OW16904   6.587   8.746   3.875
 4966SOL    HW116905   6.525   8.813   3.845
 4966SOL    HW216906   6.569  19.711  -7.221
 4967SOL     OW16907  -1.146   0.213   4.400
 4967SOL    HW116908  -1.110   0.273  26.544
 4967SOL    HW216909  20.930   0.264   4.319
 4968SOL     OW16910   9.674   2.299   5.837
 4968SOL    HW116911   9.709  24.464   5.860
 4968SOL    HW216912   9.607   2.282  16.943
 4969SOL     OW16913  -0.454   4.048   7.099
 4969SOL    HW116914  -0.362   4.047   7.073
 4969SOL    HW216915  21.625 -18.063   7.189
 4970SOL     OW16916   5.400   7.845   2.103
 4970SOL    HW116917   5.353   7.928  -8.944
 4970SOL    HW216918   5.493   7.871   2.105
 4971SOL     OW16919   5.163   9.519   7.866
 4971SOL    HW116920   5.196   9.507   7.777
 4971SOL    HW216921   5.242   9.521   7.921
 4972SOL     OW16922   9.519  -0.663   2.816
 4972SOL    HW116923   9.581  21.344   2.822
 4972SOL    HW216924   9.450  -0.695   2.757
 4973SOL     OW16925   3.923   7.875  -0.002
 4973SOL    HW116926 -29.209  -3.078  33.154
 4973SOL    HW216927  -7.141   7.884  -0.094
 4974SOL     OW16928   5.276   2.824   9.945
 4974SOL    HW116929   5.312 -41.281  10.016
 4974SOL    HW216930   5.186   2.854   9.935
 4975SOL     OW16931   7.705   8.674  11.284
 4975SOL    HW116932   7.763   8.737   0.288
 4975SOL    HW216933   7.627   8.672  11.339
 4976SOL     OW16934   9.115  10.774   9.584
 4976SOL    HW116935   9.041  10.797  20.681
 4976SOL    HW216936   9.089  10.691   9.544
 4977SOL     OW16937   6.527   1.133   0.986
 4977SOL    HW116938  -4.568  12.210   1.055
 4977SOL    HW216939   6.479   1.056   0.956
 4978SOL     OW16940   8.685   3.476  10.035
 4978SOL    HW116941   8.732  25.635  10.014
 4978SOL    HW216942  19.633  36.621  10.041
 4979SOL     OW16943   7.867   4.774   4.098
 4979SOL    HW116944   7.865  15.906   4.123
 4979SOL    HW216945   7.776 -39.412   4.099
 4980SOL     OW16946   1.691  11.033  10.729
 4980SOL    HW116947   1.755  11.039  10.658
 4980SOL    HW216948   1.705  11.112  10.780
 4981SOL     OW16949   6.606   6.002   9.621
 4981SOL    HW116950 -15.460  -4.975  -1.490
 4981SOL    HW216951   6.681   5.943   9.615
 4982SOL     OW16952  -1.057   4.491   0.083
 4982SOL    HW116953   9.895   4.479   0.046
 4982SOL    HW216954   9.968   4.544   0.161
 4983SOL     OW16955   2.413  10.934  10.837
 4983SOL    HW116956   2.503  10.955  10.862
 4983SOL    HW216957   2.377  10.888  10.913
 4984SOL     OW16958   4.530   6.416   0.526
 4984SOL    HW116959   4.448  17.424  11.603
 4984SOL    HW216960   4.511   6.504  11.535
 4985SOL     OW16961   0.842  10.865   1.061
 4985SOL    HW116962   0.751  -0.198   1.047
 4985SOL    HW216963 -10.185  10.945   1.010
 4986SOL     OW16964   4.550   6.711   8.407
 4986SOL    HW116965 -17.508  -4.422   8.407
 4986SOL    HW216966   4.590  -4.296   8.326
 4987SOL     OW16967   5.664  10.873   8.826
 4987SOL    HW116968   5.609  -0.240   8.800
 4987SOL    HW216969   5.689  10.853   8.917
 4988SOL     OW16970   5.196   1.184   6.045
 4988SOL    HW116971   5.114  -9.866   6.093
 4988SOL    HW216972   5.264   1.183   6.113
 4989SOL     OW16973   9.589   4.486   2.684
 4989SOL    HW116974   9.541  15.600   2.720
 4989SOL    HW216975   9.598  59.704   2.591
 4990SOL     OW16976   1.385   5.610   8.316
 4990SOL    HW116977  -9.671   5.611  -2.629
 4990SOL    HW216978   1.436   5.530   8.301
 4991SOL     OW16979   3.625   7.156   9.304
 4991SOL    HW116980   3.577   7.128   9.226
 4991SOL    HW216981  -7.452   7.104   9.375
 4992SOL     OW16982   5.355   2.588   7.563
 4992SOL    HW116983  38.454  13.544   7.521
 4992SOL    HW216984   5.324 -19.425   7.501
 4993SOL     OW16985   7.034  -0.503   3.178
 4993SOL    HW116986  -3.912  21.576  -7.881
 4993SOL    HW216987   6.998  10.604   3.120
 4994SOL     OW16988   6.519   0.837   4.959
 4994SOL    HW116989  -4.465   0.900   5.005
 4994SOL    HW216990   6.578   0.765   4.936
 4995SOL     OW16991   7.963   0.699   4.771
 4995SOL    HW116992   7.905   0.634   4.731
 4995SOL    HW216993   7.904   0.759  -6.223
 4996SOL     OW16994   2.277  10.031   9.013
 4996SOL    HW116995   2.237   9.946   8.992
 4996SOL    HW216996  -8.731  10.063   8.928
 4997SOL     OW16997   1.365   2.749   5.143
 4997SOL    HW116998   1.296  13.735   5.181
 4997SOL    HW216999   1.335   2.768   5.055
 4998SOL     OW17000   1.266  10.430   5.782
 4998SOL    HW117001  23.343  10.477   5.865
 4998SOL    HW217002  12.280  10.495   5.716
 4999SOL     OW17003   7.882   4.103   7.509
 4999SOL    HW117004   7.944   4.056   7.565
 4999SOL    HW217005   7.875   4.190 -14.531
 5000SOL     OW17006   3.449   4.435   6.903
 5000SOL    HW117007   3.523   4.414   6.845
 5000SOL    HW217008   3.490   4.476   6.979
 5001SOL     OW17009  10.963   7.128  11.199
 5001SOL    HW117010  -0.159  -3.873  11.230
 5001SOL    HW217011  22.012   7.049 -10.828
 5002SOL     OW17012   1.943   2.331  10.410
 5002SOL    HW117013  -9.188  24.420  10.438
 5002SOL    HW217014   1.989   2.303  -0.551
 5003SOL     OW17015   6.935   8.794   5.418
 5003SOL    HW117016   6.846  19.797   5.420
 5003SOL    HW217017   6.981   8.749   5.489
 5004SOL     OW17018   0.217   9.346   9.039
 5004SOL    HW117019   0.154   9.277   9.059
 5004SOL    HW217020   0.261   9.363  31.202
 5005SOL     OW17021   7.582   3.302   0.958
 5005SOL    HW117022  -3.510   3.280 -21.199
 5005SOL    HW217023   7.561 -18.685  23.054
 5006SOL     OW17024   4.863   5.685   8.759
 5006SOL    HW117025   4.797   5.648   8.702
 5006SOL    HW217026  -6.227  27.818   8.821
 5007SOL     OW17027   6.562  10.248   2.474
 5007SOL    HW117028  17.545  -0.726  13.554
 5007SOL    HW217029   6.597  10.198  24.626
 5008SOL     OW17030   4.614   2.215  10.388
 5008SOL    HW117031   4.599  13.182  10.327
 5008SOL    HW217032   4.661   2.280  21.375
 5009SOL     OW17033  10.829   8.560   5.606
 5009SOL    HW117034  10.843   8.498  16.718
 5009SOL    HW217035 -22.266   8.645   5.642
 5010SOL     OW17036   0.431   9.959   1.760
 5010SOL    HW117037   0.395   9.870   1.752
 5010SOL    HW217038   0.420  21.036   1.673
 5011SOL     OW17039  12.253   1.086   7.267
 5011SOL    HW117040  -9.864  -9.866   7.259
 5011SOL    HW217041  12.203   1.032   7.206
 5012SOL     OW17042   4.081   3.961   3.889
 5012SOL    HW117043   4.080  -7.056   3.982
 5012SOL    HW217044  -7.032   4.011   3.852
 5013SOL     OW17045   4.474   3.579   0.602
 5013SOL    HW117046  26.638   3.588  11.685
 5013SOL    HW217047  26.575   3.550   0.513
 5014SOL     OW17048   8.888   5.920   4.915
 5014SOL    HW117049  19.877   6.001  -6.138
 5014SOL    HW217050  19.912   5.870   4.835
 5015SOL     OW17051   4.092   4.382   4.853
 5015SOL    HW117052   4.180  -6.643   4.818
 5015SOL    HW217053   4.080  26.366   4.849
 5016SOL     OW17054   0.941   7.553   2.619
 5016SOL    HW117055   1.008   7.566   2.552
 5016SOL    HW217056   0.889   7.478  24.666
 5017SOL     OW17057  10.744  -0.920   3.414
 5017SOL    HW117058  10.744  10.181   3.340
 5017SOL    HW217059  -0.379  10.135  -7.582
 5018SOL     OW17060   9.626   0.584   7.080
 5018SOL    HW117061  -1.392  22.743  40.246
 5018SOL    HW217062   9.566   0.613  18.050
 5019SOL     OW17063   5.673   4.984   5.756
 5019SOL    HW117064   5.646   4.993  27.744
 5019SOL    HW217065   5.712   5.069  16.818
 5020SOL     OW17066   1.853   5.370   0.651
 5020SOL    HW117067  12.977   5.356   0.608
 5020SOL    HW217068   1.872   5.360   0.744
 5021SOL     OW17069   0.428   3.719   4.178
 5021SOL    HW117070   0.345   3.671   4.178
 5021SOL    HW217071   0.410  -7.242  15.268
 5022SOL     OW17072   0.087   7.791   0.940
 5022SOL    HW117073   0.060  -3.241 -10.191
 5022SOL    HW217074   0.083   7.697   0.958
 5023SOL     OW17075   1.149  11.638   8.546
 5023SOL    HW117076   1.138  11.635   8.641
 5023SOL    HW217077   1.100   0.676   8.518
 5024SOL     OW17078   7.654  10.430   4.185
 5024SOL    HW117079  -3.301  10.473   4.174
 5024SOL    HW217080   7.648  10.371  -6.930
 5025SOL     OW17081   2.796   3.548   1.725
 5025SOL    HW117082  13.841 -18.453  23.749
 5025SOL    HW217083  13.845  14.514   1.663
 5026SOL     OW17084   4.489   5.910   0.486
 5026SOL    HW117085   4.558   5.975   0.502
 5026SOL    HW217086   4.453   5.892   0.572
 5027SOL     OW17087  -0.099   8.304   7.279
 5027SOL    HW117088  10.975   8.270   7.196
 5027SOL    HW217089  -0.163   8.238   7.307
 5028SOL     OW17090   4.722   1.702   1.717
 5028SOL    HW117091   4.754   1.755   1.644
 5028SOL    HW217092  15.839   1.655  -9.291
 5029SOL     OW17093   1.961   7.120   8.029
 5029SOL    HW117094   1.953  18.068   8.055
 5029SOL    HW217095  12.959   7.124   7.943
 5030SOL     OW17096   4.487   6.856   1.550
 5030SOL    HW117097  26.649   6.820   1.581
 5030SOL    HW217098   4.420 -26.311   1.598
 5031SOL     OW17099  10.925   5.330  10.816
 5031SOL    HW117100  10.906   5.402  10.876
 5031SOL    HW217101  10.990   5.366  10.755
 5032SOL     OW17102   1.539   9.963   0.464
 5032SOL    HW117103   1.607   9.895   0.468
 5032SOL    HW217104   1.458 -12.165  11.493
 5033SOL     OW17105   5.793   3.352   0.646
 5033SOL    HW117106  49.994   3.275 -10.356
 5033SOL    HW217107   5.837   3.365  11.601
 5034SOL     OW17108   1.957  10.737   0.065
 5034SOL    HW117109   1.868  10.755   0.034
 5034SOL    HW217110   2.013  10.793   0.011
 5035SOL     OW17111   2.193   8.603  11.274
 5035SOL    HW117112   2.241   8.629 -10.884
 5035SOL    HW217113   2.102  30.700   0.213
 5036SOL     OW17114   4.981   2.712   1.823
 5036SOL    HW117115   5.059  24.745   1.853
 5036SOL    HW217116   4.961  13.814   1.893
 5037SOL     OW17117  10.838   7.622   6.039
 5037SOL    HW117118  10.757   7.603   6.085
 5037SOL    HW217119  10.828  18.618   5.954
 5038SOL     OW17120   4.339   7.337   4.712
 5038SOL    HW117121  15.445 -14.676   4.699
 5038SOL    HW217122  15.366 -14.782  15.666
 5039SOL     OW17123   4.432   2.772   2.273
 5039SOL    HW117124   4.456   2.863   2.293
 5039SOL    HW217125   4.389  13.780  13.392
 5040SOL     OW17126   1.376   2.982   2.215
 5040SOL    HW117127  -9.569   2.978   2.228
 5040SOL    HW217128   1.347  14.094   2.270
 5041SOL     OW17129   6.848   1.854   3.712
 5041SOL    HW117130   6.781   1.845  -7.260
 5041SOL    HW217131  28.953   1.946   3.717
 5042SOL     OW17132  -1.056   4.434   3.795
 5042SOL    HW117133  -1.080  -6.694   3.765
 5042SOL    HW217134  32.142 -17.624   3.745
 5043SOL     OW17135   2.775  12.141   9.084
 5043SOL    HW117136  13.745  -9.873 -35.085
 5043SOL    HW217137  13.770   1.017 -12.996
 5044SOL     OW17138   6.715   4.022   0.786
 5044SOL    HW117139   6.626  37.137   0.752
 5044SOL    HW217140   6.710   4.081   0.862
 5045SOL     OW17141   1.920   6.325   8.079
 5045SOL    HW117142  -9.069   6.314   8.160
 5045SOL    HW217143  45.987   6.319   8.106
 5046SOL     OW17144   4.808   3.526   7.082
 5046SOL    HW117145   4.900   3.501 -14.995
 5046SOL    HW217146   4.762 -29.661 -25.988
 5047SOL     OW17147  10.410   2.733   9.409
 5047SOL    HW117148  10.416   2.761   9.500
 5047SOL    HW217149  -0.606   2.641  20.450
 5048SOL     OW17150   6.977   6.309   9.671
 5048SOL    HW117151   6.904   6.269   9.720
 5048SOL    HW217152   6.944   6.395   9.646
 5049SOL     OW17153   8.654   3.236   9.135
 5049SOL    HW117154   8.723   3.177   9.107
 5049SOL    HW217155   8.692   3.285   9.209
 5050SOL     OW17156   3.954   3.624   5.491
 5050SOL    HW117157  -7.055   3.689   5.554
 5050SOL    HW217158  -7.056  25.619  -5.513
 5051SOL     OW17159   3.653   4.886   5.613
 5051SOL    HW117160   3.648 -17.105  16.616
 5051SOL    HW217161   3.701   4.896   5.695
 5052SOL     OW17162   7.824   5.059   6.710
 5052SOL    HW117163   7.740  -6.026   6.715
 5052SOL    HW217164  18.855   5.132   6.770
 5053SOL     OW17165  10.288   3.562   6.786
 5053SOL    HW117166  -0.710   3.631   6.837
 5053SOL    HW217167  -0.777   3.496   6.850
 5054SOL     OW17168   7.061   8.353   5.135
 5054SOL    HW117169 -15.059   8.440   5.137
 5054SOL    HW217170  -3.975   8.331  27.121
 5055SOL     OW17171   6.855   8.725   9.005
 5055SOL    HW117172  17.862   8.751   8.919
 5055SOL    HW217173  17.990   8.722  31.073
 5056SOL     OW17174   3.426  10.224   7.189
 5056SOL    HW117175   3.336  10.237   7.157
 5056SOL    HW217176  25.507  10.270   7.273
 5057SOL     OW17177   2.547   6.659   4.086
 5057SOL    HW117178   2.501   6.633   4.006
 5057SOL    HW217179   2.479  -4.341   4.140
 5058SOL     OW17180   9.293   2.274  10.230
 5058SOL    HW117181 -34.774  -8.792  10.233
 5058SOL    HW217182  -1.749  -8.694  -0.873
 5059SOL     OW17183  -0.622   3.764  10.798
 5059SOL    HW117184  -0.534  25.807  10.787
 5059SOL    HW217185  21.471   3.859  10.799
 5060SOL     OW17186   9.595   1.832   8.320
 5060SOL    HW117187   9.685  -9.197   8.350
 5060SOL    HW217188  20.618  -9.302   8.324
 5061SOL     OW17189   3.540   8.440   8.469
 5061SOL    HW117190   3.463   8.410  30.499
 5061SOL    HW217191  14.587   8.378   8.542
 5062SOL     OW17192   8.034   2.608  10.684
 5062SOL    HW117193   7.972   2.544  -0.322
 5062SOL    HW217194 -14.049  -8.442  -0.450
 5063SOL     OW17195  -0.399   3.738   6.279
 5063SOL    HW117196  10.641   3.771   6.189
 5063SOL    HW217197  -0.306   3.728  17.340
 5064SOL     OW17198   0.676  10.538  10.259
 5064SOL    HW117199   0.767  10.552  10.235
 5064SOL    HW217200   0.679  10.470  10.327
 5065SOL     OW17201   4.396   8.222  13.151
 5065SOL    HW117202  26.564   8.191  -8.915
 5065SOL    HW217203   4.379   8.208  -9.021
 5066SOL     OW17204   3.497   8.801   7.043
 5066SOL    HW117205  14.503   8.884  18.116
 5066SOL    HW217206  -7.519  19.859  -4.087
 5067SOL     OW17207   9.281   5.536   8.851
 5067SOL    HW117208   9.201   5.541   8.903
 5067SOL    HW217209  -1.787   5.507   8.764
 5068SOL     OW17210   7.583   7.093   6.397
 5068SOL    HW117211   7.580   7.154  -4.716
 5068SOL    HW217212  18.702   7.118   6.445
 5069SOL     OW17213   0.416   8.716   9.241
 5069SOL    HW117214  33.451   8.737  31.278
 5069SOL    HW217215   0.414   8.762   9.325
 5070SOL     OW17216   6.393   1.720   9.995
 5070SOL    HW117217  -4.668  12.770   9.902
 5070SOL    HW217218   6.436   1.635  -1.038
 5071SOL     OW17219  -2.028   9.967   3.586
 5071SOL    HW117220  -1.965   9.934  25.729
 5071SOL    HW217221  42.083  10.035   3.634
 5072SOL     OW17222   0.571   3.622  10.521
 5072SOL    HW117223  11.598   3.641  10.428
 5072SOL    HW217224   0.577   3.527  10.526
 5073SOL     OW17225   8.660   3.109   1.120
 5073SOL    HW117226 -35.441  14.086   1.165
 5073SOL    HW217227   8.670   3.089   1.027
 5074SOL     OW17228   4.049   5.168   2.325
 5074SOL    HW117229   4.015   5.258   2.331
 5074SOL    HW217230   4.141  16.219   2.302
 5075SOL     OW17231   3.700   9.390   0.779
 5075SOL    HW117232   3.724   9.426   0.864
 5075SOL    HW217233   3.772  -1.625   0.721
 5076SOL     OW17234   9.261  11.128   8.712
 5076SOL    HW117235   9.198   0.161   8.717
 5076SOL    HW217236   9.284 -22.010  19.843
 5077SOL     OW17237   0.730   9.088   2.417
 5077SOL    HW117238   0.809   9.042   2.390
 5077SOL    HW217239 -10.361   9.022   2.464
 5078SOL     OW17240   4.639  10.871   8.929
 5078SOL    HW117241   4.587  10.951  19.980
 5078SOL    HW217242   4.689  10.886   8.849
 5079SOL     OW17243   1.910  10.590   6.482
 5079SOL    HW117244  12.872  -0.474   6.431
 5079SOL    HW217245  12.938  21.723   6.501
 5080SOL     OW17246   6.916  11.001   5.931
 5080SOL    HW117247  28.987  -0.125   5.891
 5080SOL    HW217248  17.868  11.038 -16.154
 5081SOL     OW17249  10.223   7.167   9.852
 5081SOL    HW117250  10.306   7.140   9.812
 5081SOL    HW217251  10.170   7.087   9.854
 5082SOL     OW17252   3.206   1.569   8.486
 5082SOL    HW117253  14.332 -20.542   8.460
 5082SOL    HW217254  -7.871   1.605   8.406
 5083SOL     OW17255   5.031  10.950   8.476
 5083SOL    HW117256   5.107  11.003  -2.540
 5083SOL    HW217257  -5.981  10.902   8.398
 5084SOL     OW17258   4.379   8.745   8.600
 5084SOL    HW117259   4.470   8.750  -2.471
 5084SOL    HW217260 -17.732  30.740   8.567
 5085SOL     OW17261  10.231  10.457  -0.267
 5085SOL    HW117262  10.325  -0.586  32.868
 5085SOL    HW217263  -0.836  10.365  21.806
 5086SOL     OW17264   6.201   1.497   4.779
 5086SOL    HW117265 -26.941   1.463   4.865
 5086SOL    HW217266  -4.747  12.562   4.787
 5087SOL     OW17267   9.196   4.745   9.291
 5087SOL    HW117268   9.269   4.801  20.303
 5087SOL    HW217269   9.123   4.806   9.305
 5088SOL     OW17270   6.520   6.547   1.935
 5088SOL    HW117271  -4.547   6.460   1.906
 5088SOL    HW217272  17.500   6.608   1.890
 5089SOL     OW17273   7.261   9.371  12.327
 5089SOL    HW117274   7.333 -12.646  12.339
 5089SOL    HW217275  -3.735   9.286 -20.799
 5090SOL     OW17276   2.653   4.580   7.935
 5090SOL    HW117277   2.664   4.631   7.854
 5090SOL    HW217278   2.739  26.619  41.068
 5091SOL     OW17279   9.485   2.118   3.488
 5091SOL    HW117280   9.504   2.026   3.469
 5091SOL    HW217281 -12.510   2.162  25.559
 5092SOL     OW17282   4.709   7.591   1.449
 5092SOL    HW117283  26.713  18.690   1.452
 5092SOL    HW217284   4.738   7.593  12.398
 5093SOL     OW17285   1.342   6.480  10.420
 5093SOL    HW117286  12.434  -4.633  10.453
 5093SOL    HW217287   1.264 -15.599  10.476
 5094SOL     OW17288   6.718   8.200   0.338
 5094SOL    HW117289   6.722  30.205   0.398
 5094SOL    HW217290   6.810   8.225   0.324
 5095SOL     OW17291   4.563   1.945   4.171
 5095SOL    HW117292   4.541   1.999   4.095
 5095SOL    HW217293  -6.391   1.978   4.200
 5096SOL     OW17294   5.248   7.630  10.068
 5096SOL    HW117295   5.284  -3.389  -0.885
 5096SOL    HW217296   5.271   7.706  -1.026
 5097SOL     OW17297   4.365   9.057   0.715
 5097SOL    HW117298  26.412   9.120   0.780
 5097SOL    HW217299   4.301   8.986   0.716
 5098SOL     OW17300   0.664   2.366   5.885
 5098SOL    HW117301   0.670   2.313   5.806
 5098SOL    HW217302   0.628  -8.590   5.854
 5099SOL     OW17303   2.862   3.960   3.784
 5099SOL    HW117304   2.905   3.975   3.868
 5099SOL    HW217305   2.780   3.916   3.808
 5100SOL     OW17306   4.639   4.016   4.806
 5100SOL    HW117307   4.707  15.035   4.870
 5100SOL    HW217308   4.686   4.061   4.736
 5101SOL     OW17309   4.581   7.668   4.127
 5101SOL    HW117310  -6.404  29.791  -6.978
 5101SOL    HW217311   4.520   7.615 -18.003
 5102SOL     OW17312   6.937   3.869   0.823
 5102SOL    HW117313   6.859  14.965 -10.223
 5102SOL    HW217314   7.005  -7.113  11.899
 5103SOL     OW17315   6.165   7.411   2.955
 5103SOL    HW117316   6.078   7.399  -8.123
 5103SOL    HW217317  -4.816   7.420   2.881
 5104SOL     OW17318  10.903   7.709  -0.656
 5104SOL    HW117319 -44.283   7.617  10.406
 5104SOL    HW217320  -0.231   7.723  10.391
 5105SOL     OW17321   4.759   8.672   2.047
 5105SOL    HW117322  -6.293   8.641  -9.082
 5105SOL    HW217323   4.774 -13.313  13.077
 5106SOL     OW17324   2.503   2.721   4.621
 5106SOL    HW117325   2.571   2.732   4.687
 5106SOL    HW217326   2.423  -8.333   4.672
 5107SOL     OW17327  10.360   9.026   5.139
 5107SOL    HW117328  21.306   9.044   5.125
 5107SOL    HW217329  10.364  31.070   5.228
 5108SOL     OW17330   1.047   4.707   8.991
 5108SOL    HW117331   1.121   4.681  42.164
 5108SOL    HW217332   0.993 -61.476   9.049
 5109SOL     OW17333   8.966   8.940   3.874
 5109SOL    HW117334   8.930   8.931  -7.077
 5109SOL    HW217335   9.036   8.874  36.988
 5110SOL     OW17336   7.770   3.536   7.314
 5110SOL    HW117337   7.731   3.467  -3.779
 5110SOL    HW217338   7.698   3.566   7.370
 5111SOL     OW17339   5.409   1.887   6.671
 5111SOL    HW117340   5.417  -9.236  17.664
 5111SOL    HW217341   5.328   1.878  17.761
 5112SOL     OW17342   5.530   7.674   4.704
 5112SOL    HW117343   5.458  29.701  -6.370
 5112SOL    HW217344   5.556   7.629   4.784
 5113SOL     OW17345   0.536   5.383   0.801
 5113SOL    HW117346   0.624  -5.666   0.764
 5113SOL    HW217347   0.491  27.382 -10.264
 5114SOL     OW17348   5.281   1.741   2.358
 5114SOL    HW117349   5.224   1.745   2.435
 5114SOL    HW217350  27.404 -20.253   2.356
 5115SOL     OW17351   6.031  12.240   9.677
 5115SOL    HW117352  28.197   1.162   9.679
 5115SOL    HW217353   6.027  -9.783   9.755
 5116SOL     OW17354  11.575   1.830   2.635
 5116SOL    HW117355  11.602   1.813   2.545
 5116SOL    HW217356 -10.539   1.747   2.666
 5117SOL     OW17357   2.450   2.211   5.378
 5117SOL    HW117358  13.436   2.133   5.389
 5117SOL    HW217359   2.536   2.179   5.351
 5118SOL     OW17360   5.544   0.553   8.999
 5118SOL    HW117361   5.571   0.524 -12.993
 5118SOL    HW217362   5.519   0.473   8.954
 5119SOL     OW17363   4.949   7.347   6.463
 5119SOL    HW117364   5.021  29.433  17.441
 5119SOL    HW217365 -28.224  18.464  28.524
 5120SOL     OW17366   9.234   5.885   1.894
 5120SOL    HW117367  -1.886   5.925  -9.115
 5120SOL    HW217368   9.245   5.807   1.949
 5121SOL     OW17369   1.190   0.488   6.897
 5121SOL    HW117370   1.196   0.536   6.979
 5121SOL    HW217371  -9.943  11.532   6.874
 5122SOL     OW17372   4.693   8.081   4.348
 5122SOL    HW117373  26.677   8.072   4.351
 5122SOL    HW217374   4.714   8.142  37.537
 5123SOL     OW17375   8.125   0.563   3.310
 5123SOL    HW117376   8.149   0.625   3.378
 5123SOL    HW217377   8.092   0.618   3.238
 5124SOL     OW17378   9.911   7.434   5.461
 5124SOL    HW117379   9.950   7.379   5.393
 5124SOL    HW217380   9.949   7.521   5.445
 5125SOL     OW17381   3.546   4.732   9.243
 5125SOL    HW117382   3.463   4.715   9.287
 5125SOL    HW217383   3.524   4.736   9.150
 5126SOL     OW17384   5.030   2.327   3.844
 5126SOL    HW117385   4.945   2.331  25.880
 5126SOL    HW217386  38.128   2.314   3.937
 5127SOL     OW17387   1.787   4.776   0.819
 5127SOL    HW117388   1.738   4.779   0.900
 5127SOL    HW217389 -20.357   4.755   0.752
 5128SOL     OW17390   9.537   3.500  11.010
 5128SOL    HW117391   9.442 -18.577  10.999
 5128SOL    HW217392  20.607   3.432  10.950
 5129SOL     OW17393   4.144   6.722   4.304
 5129SOL    HW117394 -17.849   6.683   4.292
 5129SOL    HW217395   4.155  28.862 -17.702
 5130SOL     OW17396   2.827   0.128   2.296
 5130SOL    HW117397   2.895  33.189   2.262
 5130SOL    HW217398  13.877  33.243   2.391
 5131SOL     OW17399   9.436   6.579   9.620
 5131SOL    HW117400  -1.531  17.557   9.634
 5131SOL    HW217401   9.473   6.664  -1.395
 5132SOL     OW17402   9.060   2.746   1.144
 5132SOL    HW117403   9.003   2.684   1.191
 5132SOL    HW217404   9.139  -8.343   1.124
 5133SOL     OW17405   3.553   8.750   8.925
 5133SOL    HW117406   3.609   8.678   8.954
 5133SOL    HW217407  25.684   8.797   8.860
 5134SOL     OW17408   9.338  10.169   6.096
 5134SOL    HW117409   9.349  10.115   6.017
 5134SOL    HW217410   9.323  10.257 -38.095
 5135SOL     OW17411   9.277   6.174   0.061
 5135SOL    HW117412   9.249 -15.993   0.035
 5135SOL    HW217413  -1.733 -15.865  22.059
 5136SOL     OW17414   2.618   9.319   5.138
 5136SOL    HW117415   2.704   9.342  -5.866
 5136SOL    HW217416  24.705  20.268   5.109
 5137SOL     OW17417   3.294   0.975   6.879
 5137SOL    HW117418   3.293   1.071   6.880
 5137SOL    HW217419   3.386   0.951   6.869
 5138SOL     OW17420   7.201  10.351   7.778
 5138SOL    HW117421   7.235  10.272   7.737
 5138SOL    HW217422   7.261  10.369   7.850
 5139SOL     OW17423   1.237   5.411  12.034
 5139SOL    HW117424   1.320   5.368   1.017
 5139SOL    HW217425  12.302   5.495 -10.083
 5140SOL     OW17426   4.533   7.061   5.830
 5140SOL    HW117427  15.477   7.058   5.827
 5140SOL    HW217428   4.559  -4.067  16.894
 5141SOL     OW17429   0.789   9.149   0.042
 5141SOL    HW117430  11.900   9.203   0.076
 5141SOL    HW217431   0.754   9.198  -0.032
 5142SOL     OW17432   2.190   2.803   7.847
 5142SOL    HW117433   2.176  -8.257 -14.140
 5142SOL    HW217434   2.249   2.734   7.815
 5143SOL     OW17435   8.439   9.848   3.018
 5143SOL    HW117436   8.345  20.896  25.087
 5143SOL    HW217437  19.512   9.938  14.048
 5144SOL     OW17438   0.294   5.376   7.701
 5144SOL    HW117439   0.242   5.455   7.714
 5144SOL    HW217440   0.331   5.386   7.614
 5145SOL     OW17441   6.128  -0.593   0.136
 5145SOL    HW117442 -15.954  21.392   0.153
 5145SOL    HW217443  -4.916 -11.593   0.222
 5146SOL     OW17444   5.943   1.451   5.719
 5146SOL    HW117445   5.861   1.416 -16.324
 5146SOL    HW217446  -5.028   1.403   5.765
 5147SOL     OW17447   4.292   7.524  10.059
 5147SOL    HW117448   4.299  18.589  -0.888
 5147SOL    HW217449 -17.727  29.662  21.053
 5148SOL     OW17450   0.458   0.599   1.114
 5148SOL    HW117451   0.411   0.590   1.031
 5148SOL    HW217452   0.390   0.623  12.217
 5149SOL     OW17453   5.418   8.637  10.626
 5149SOL    HW117454  -5.572   8.717  10.639
 5149SOL    HW217455   5.439   8.582  10.702
 5150SOL     OW17456   2.501   6.033   7.820
 5150SOL    HW117457   2.500   6.030  -3.124
 5150SOL    HW217458   2.426   6.087   7.797
 5151SOL     OW17459   6.189   2.908   4.819
 5151SOL    HW117460   6.150   2.978   4.767
 5151SOL    HW217461   6.272   2.944   4.850
 5152SOL     OW17462   4.782   5.271   1.423
 5152SOL    HW117463  -6.299  16.395  12.475
 5152SOL    HW217464  26.947   5.291  -9.655
 5153SOL     OW17465  10.745   8.173   1.971
 5153SOL    HW117466 -11.261   8.201   1.916
 5153SOL    HW217467  -0.368   8.161   1.910
 5154SOL     OW17468  10.225   7.785   9.429
 5154SOL    HW117469  10.180   7.835   9.497
 5154SOL    HW217470  21.216   7.702   9.424
 5155SOL     OW17471   9.709   2.683   7.809
 5155SOL    HW117472   9.701  -8.324  -3.320
 5155SOL    HW217473  20.794  13.639  18.840
 5156SOL     OW17474   4.719   0.348   7.553
 5156SOL    HW117475   4.678  11.301   7.551
 5156SOL    HW217476   4.812   0.329   7.568
 5157SOL     OW17477   6.383   2.990  -0.077
 5157SOL    HW117478   6.447   3.050  -0.038
 5157SOL    HW217479 -15.703   2.918  11.026
 5158SOL     OW17480   0.757   7.417   3.323
 5158SOL    HW117481   0.712  18.380   3.287
 5158SOL    HW217482   0.746   7.485  14.296
 5159SOL     OW17483   7.654   9.628   1.952
 5159SOL    HW117484   7.680  20.606  -9.020
 5159SOL    HW217485   7.643   9.711  13.037
 5160SOL     OW17486   7.347   0.828   2.538
 5160SOL    HW117487   7.432  11.851 -30.540
 5160SOL    HW217488  29.380  11.925  -8.440
 5161SOL     OW17489   8.991  10.323   1.239
 5161SOL    HW117490   9.059  10.260   1.215
 5161SOL    HW217491  20.018  10.309   1.333
 5162SOL     OW17492   9.216  -0.542   8.020
 5162SOL    HW117493   9.280  10.522   7.953
 5162SOL    HW217494   9.132  10.528   7.986
 5163SOL     OW17495   3.761   3.739   2.187
 5163SOL    HW117496  14.817  14.684  -8.856
 5163SOL    HW217497   3.848  14.818  13.234
 5164SOL     OW17498   6.615   2.624   6.044
 5164SOL    HW117499   6.662   2.626  -5.079
 5164SOL    HW217500   6.591   2.715   6.061
 5165SOL     OW17501   6.348   9.370   5.027
 5165SOL    HW117502  28.406   9.461  27.126
 5165SOL    HW217503  17.314   9.340   4.973
 5166SOL     OW17504  -1.223  11.413   6.805
 5166SOL    HW117505  31.841 -10.598   6.766
 5166SOL    HW217506  20.930   0.420  17.883
 5167SOL     OW17507   0.820  12.847   2.954
 5167SOL    HW117508   0.836   1.771   3.041
 5167SOL    HW217509   0.734 -31.271   2.959
 5168SOL     OW17510   4.968   0.343   0.640
 5168SOL    HW117511  16.064   0.419   0.626
 5168SOL    HW217512   4.921   0.362   0.720
 5169SOL     OW17513   2.908   3.897   9.709
 5169SOL    HW117514   2.927   3.977  20.798
 5169SOL    HW217515   2.931   3.918   9.619
 5170SOL     OW17516   6.420   8.551   5.197
 5170SOL    HW117517   6.488  -2.554   5.212
 5170SOL    HW217518   6.464   8.635   5.211
 5171SOL     OW17519   8.798   2.518   1.457
 5171SOL    HW117520   8.892  -8.512   1.472
 5171SOL    HW217521  -2.278   2.502  12.583
 5172SOL     OW17522   2.678   6.830   4.690
 5172SOL    HW117523   2.594  17.864   4.645
 5172SOL    HW217524  13.745   6.921   4.678
 5173SOL     OW17525  -0.602   4.161   4.914
 5173SOL    HW117526  -0.595   4.253  27.020
 5173SOL    HW217527  10.449  15.151   4.995
 5174SOL     OW17528   1.704   7.333   6.301
 5174SOL    HW117529   1.747  18.368  17.255
 5174SOL    HW217530   1.761   7.283   6.359
 5175SOL     OW17531   1.044   6.228   0.856
 5175SOL    HW117532   1.025 -26.846   0.938
 5175SOL    HW217533   0.961   6.228   0.808
 5176SOL     OW17534   0.866   8.637   5.283
 5176SOL    HW117535  33.938  30.673  16.250
 5176SOL    HW217536  11.974   8.688   5.240
 5177SOL     OW17537  10.636   5.766  10.832
 5177SOL    HW117538  10.678  -5.268  10.746
 5177SOL    HW217539  10.568   5.833  10.830
 5178SOL     OW17540   7.608   5.412   8.207
 5178SOL    HW117541  18.669  16.544   8.196
 5178SOL    HW217542   7.634   5.392   8.297
 5179SOL     OW17543   1.298   7.849   1.055
 5179SOL    HW117544  12.300  -3.265   1.007
 5179SOL    HW217545   1.256   7.925   1.016
 5180SOL     OW17546   7.167   1.265   4.306
 5180SOL    HW117547   7.258   1.292   4.314
 5180SOL    HW217548  29.235   1.246   4.213
 5181SOL     OW17549   1.757  10.134   4.411
 5181SOL    HW117550   1.850  10.126  -6.648
 5181SOL    HW217551   1.717  10.161 -28.791
 5182SOL     OW17552   7.555   4.992   8.330
 5182SOL    HW117553  29.585  16.100  -2.662
 5182SOL    HW217554   7.605   5.040   8.264
 5183SOL     OW17555  -1.945   0.107   5.388
 5183SOL    HW117556  31.238  22.121   5.359
 5183SOL    HW217557   9.115  33.239   5.480
 5184SOL     OW17558   1.061   2.610   7.116
 5184SOL    HW117559   1.139   2.656   7.085
 5184SOL    HW217560   1.061   2.625   7.210
 5185SOL     OW17561  11.087   2.111   8.361
 5185SOL    HW117562 -10.944   2.193   8.347
 5185SOL    HW217563 -11.052  -8.910   8.433
 5186SOL     OW17564   3.127   8.214   8.753
 5186SOL    HW117565   3.126  -2.764   8.826
 5186SOL    HW217566 -18.921   8.132   8.791
 5187SOL     OW17567  10.827   7.312   0.829
 5187SOL    HW117568  10.797   7.402   0.842
 5187SOL    HW217569  10.759   7.258   0.870
 5188SOL     OW17570  11.026   4.099   5.106
 5188SOL    HW117571  11.034  15.059  27.132
 5188SOL    HW217572 -11.093   4.070 -16.892
 5189SOL     OW17573   0.700  10.413   9.560
 5189SOL    HW117574   0.657  10.498   9.548
 5189SOL    HW217575   0.664  10.380   9.643
 5190SOL     OW17576   4.591   5.125   7.188
 5190SOL    HW117577   4.534  -5.918   7.265
 5190SOL    HW217578   4.538   5.086   7.118
 5191SOL     OW17579   6.718   8.897   3.175
 5191SOL    HW117580   6.698   8.903  -7.958
 5191SOL    HW217581  17.790   8.807  14.225
 5192SOL     OW17582   1.600   8.759   9.203
 5192SOL    HW117583   1.512   8.773 -12.842
 5192SOL    HW217584   1.598  19.831   9.114
 5193SOL     OW17585   8.849  11.009   3.599
 5193SOL    HW117586   8.868  11.014   3.693
 5193SOL    HW217587   8.770  11.061   3.588
 5194SOL     OW17588   2.694  -1.624   0.943
 5194SOL    HW117589  -8.435   9.447   0.948
 5194SOL    HW217590   2.691  31.420   0.882
 5195SOL     OW17591   5.864   1.959   9.592
 5195SOL    HW117592  27.976 -20.188  -1.388
 5195SOL    HW217593 -16.283   2.004 -23.477
 5196SOL     OW17594  13.613   9.276   5.511
 5196SOL    HW117595 -19.476  -1.761   5.602
 5196SOL    HW217596 -19.451   9.341  27.545
 5197SOL     OW17597   1.800   0.131   2.097
 5197SOL    HW117598   1.810   0.223   2.070
 5197SOL    HW217599   1.825   0.081   2.019
 5198SOL     OW17600   6.773   8.178   4.073
 5198SOL    HW117601   6.758   8.271 -40.105
 5198SOL    HW217602  -4.202   8.179   4.144
 5199SOL     OW17603   7.412   2.611   8.749
 5199SOL    HW117604  18.444   2.593  -2.384
 5199SOL    HW217605  -3.620   2.706 -24.364
 5200SOL     OW17606   3.246   3.682   7.220
 5200SOL    HW117607  25.361 -18.318   7.180
 5200SOL    HW217608   3.312   3.614   7.203
 5201SOL     OW17609   6.098   4.119   7.109
 5201SOL    HW117610   6.135  15.219  -3.867
 5201SOL    HW217611  -4.893   4.038   7.122
 5202SOL     OW17612   3.156   4.299   3.900
 5202SOL    HW117613  14.216   4.205   3.905
 5202SOL    HW217614   3.076  15.342 -18.232
 5203SOL     OW17615   3.790   0.561   2.590
 5203SOL    HW117616  14.894   0.517   2.534
 5203SOL    HW217617   3.775   0.498   2.661
 5204SOL     OW17618   2.215   1.021   9.095
 5204SOL    HW117619   2.307  12.048   9.122
 5204SOL    HW217620   2.208   1.115   9.079
 5205SOL     OW17621   7.608   2.726   4.071
 5205SOL    HW117622  18.735   2.760  26.133
 5205SOL    HW217623   7.606 -19.436   4.023
 5206SOL     OW17624   3.483   8.541   7.733
 5206SOL    HW117625  -7.491   8.527   7.664
 5206SOL    HW217626   3.507   8.625  29.850
 5207SOL     OW17627   6.347   9.628   2.896
 5207SOL    HW117628 -15.785   9.562   2.851
 5207SOL    HW217629  -4.709 -23.410  -8.192
 5208SOL     OW17630   1.613   4.626   8.598
 5208SOL    HW117631   1.522   4.637   8.626
 5208SOL    HW217632  12.672  15.574   8.617
 5209SOL     OW17633  -1.735   8.932   2.121
 5209SOL    HW117634  31.336   9.005   2.160
 5209SOL    HW217635   9.242   8.889   2.063
 5210SOL     OW17636  -0.359   5.822   4.570
 5210SOL    HW117637  32.823   5.835   4.500
 5210SOL    HW217638  -0.308   5.833   4.651
 5211SOL     OW17639   2.271   1.603   8.228
 5211SOL    HW117640   2.285   1.537   8.160
 5211SOL    HW217641   2.192   1.575  19.313
 5212SOL     OW17642   6.597   7.975   9.652
 5212SOL    HW117643  -4.478 -14.190 -23.489
 5212SOL    HW217644  -4.423   8.016 -12.511
 5213SOL     OW17645   3.445   5.983   3.651
 5213SOL    HW117646 -18.623  17.089  36.702
 5213SOL    HW217647   3.495  50.175  25.805
 5214SOL     OW17648   5.752  10.576   6.196
 5214SOL    HW117649  -5.285  10.560  17.142
 5214SOL    HW217650   5.683  10.518   6.229
 5215SOL     OW17651   4.273   6.490   3.363
 5215SOL    HW117652  15.245   6.423   3.370
 5215SOL    HW217653   4.355   6.441  14.397
 5216SOL     OW17654   4.332   4.068   2.879
 5216SOL    HW117655   4.246   4.077   2.919
 5216SOL    HW217656   4.370   3.990   2.920
 5217SOL     OW17657   7.660  10.549   6.266
 5217SOL    HW117658   7.699  10.490   6.200
 5217SOL    HW217659   7.731  10.609  28.368
 5218SOL     OW17660   9.954  10.012   8.225
 5218SOL    HW117661   9.891  10.036   8.293
 5218SOL    HW217662   9.922   9.928   8.191
 5219SOL     OW17663   4.259   5.778   1.442
 5219SOL    HW117664   4.328   5.787  23.455
 5219SOL    HW217665   4.242   5.867   1.472
 5220SOL     OW17666   7.574   0.696   9.305
 5220SOL    HW117667   7.536   0.635   9.242
 5220SOL    HW217668   7.554   0.659   9.391
 5221SOL     OW17669   2.129   3.112  -0.634
 5221SOL    HW117670  -8.916   3.177  -0.704
 5221SOL    HW217671  13.146   3.160  32.564
 5222SOL     OW17672  -0.510  10.619   1.911
 5222SOL    HW117673  -0.436  10.625   1.973
 5222SOL    HW217674  10.525  10.706  23.951
 5223SOL     OW17675   2.025   3.199   0.265
 5223SOL    HW117676   2.111   3.180   0.229
 5223SOL    HW217677  -9.058   3.252   0.197
 5224SOL     OW17678  -0.220  10.690   7.879
 5224SOL    HW117679  10.913  10.667  18.920
 5224SOL    HW217680  10.786  10.648   7.800
 5225SOL     OW17681   4.074   9.808  10.419
 5225SOL    HW117682   4.005  20.841  10.353
 5225SOL    HW217683   4.132   9.876  10.385
 5226SOL     OW17684   9.507   3.374  10.335
 5226SOL    HW117685  -1.595  25.382  10.319
 5226SOL    HW217686   9.555  -7.694  10.413
 5227SOL     OW17687   8.729   6.518  11.472
 5227SOL    HW117688  19.783   6.453  11.404
 5227SOL    HW217689   8.721   6.467 -21.566
 5228SOL     OW17690   8.705   3.455   6.127
 5228SOL    HW117691 -24.473   3.515   6.082
 5228SOL    HW217692   8.729   3.502 -15.872
 5229SOL     OW17693   9.483   5.985   8.338
 5229SOL    HW117694   9.447   5.898   8.320
 5229SOL    HW217695   9.423   6.046  19.333
 5230SOL     OW17696  11.636  10.580   5.544
 5230SOL    HW117697  11.605  -0.510   5.619
 5230SOL    HW217698   0.597  -0.522   5.471
 5231SOL     OW17699   7.240  -0.255   1.241
 5231SOL    HW117700   7.230  10.774  23.415
 5231SOL    HW217701   7.169  -0.306   1.203
 5232SOL     OW17702   5.281   8.832   8.736
 5232SOL    HW117703   5.297   8.821   8.830
 5232SOL    HW217704   5.190  30.940   8.730
 5233SOL     OW17705   0.714   8.559  10.931
 5233SOL    HW117706   0.685   8.469  10.918
 5233SOL    HW217707  22.719   8.613  10.903
 5234SOL     OW17708   3.428  10.074   5.495
 5234SOL    HW117709  -7.574  10.056   5.581
 5234SOL    HW217710  -7.554  -0.899   5.457
 5235SOL     OW17711   0.566   7.180   3.259
 5235SOL    HW117712   0.487   7.192   3.207
 5235SOL    HW217713   0.632   7.151   3.197
 5236SOL     OW17714   7.983   1.341   2.324
 5236SOL    HW117715   7.951   1.378  24.321
 5236SOL    HW217716   7.950   1.400  -8.648
 5237SOL     OW17717   5.905   4.499   5.926
 5237SOL    HW117718  -5.095 -28.532   5.931
 5237SOL    HW217719   5.854   4.492   6.006
 5238SOL     OW17720   1.055   7.764   0.069
 5238SOL    HW117721   0.986   7.816   0.112
 5238SOL    HW217722   1.023  40.870  -0.020
 5239SOL     OW17723   3.202   1.359   0.545
 5239SOL    HW117724   3.132  -9.663   0.608
 5239SOL    HW217725   3.275   1.414   0.574
 5240SOL     OW17726  -2.391   2.340   7.552
 5240SOL    HW117727  41.838 -19.678  40.651
 5240SOL    HW217728  -2.375  -8.727  29.721
 5241SOL     OW17729   5.674   2.658   9.628
 5241SOL    HW117730  16.782   2.666  20.734
 5241SOL    HW217731  49.815  13.788   9.601
 5242SOL     OW17732  10.041   6.263  10.761
 5242SOL    HW117733  10.108  28.289  10.803
 5242SOL    HW217734  10.020  17.370  10.825
 5243SOL     OW17735   0.977   0.906   9.965
 5243SOL    HW117736 -10.096   0.904  10.055
 5243SOL    HW217737   0.956   0.993   9.933
 5244SOL     OW17738   3.443  -0.165   6.469
 5244SOL    HW117739  -7.588  22.009  28.558
 5244SOL    HW217740   3.392  -0.177  17.429
 5245SOL     OW17741   8.432  10.283   3.215
 5245SOL    HW117742  19.537  -0.715   3.158
 5245SOL    HW217743 -13.624  10.314   3.303
 5246SOL     OW17744   8.029   7.901   3.013
 5246SOL    HW117745   7.959   7.879  47.110
 5246SOL    HW217746   7.989  18.931   3.100
 5247SOL     OW17747   2.648   1.858   5.117
 5247SOL    HW117748   2.677  12.828   5.175
 5247SOL    HW217749  -8.376  12.978  -5.872
 5248SOL     OW17750   8.684   7.582   9.902
 5248SOL    HW117751   8.598  29.704 -12.178
 5248SOL    HW217752 -24.385   7.628   9.834
 5249SOL     OW17753   8.372   4.255   1.471
 5249SOL    HW117754   8.286   4.215   1.457
 5249SOL    HW217755  19.408   4.287   1.561
 5250SOL     OW17756  -0.632   5.582   3.275
 5250SOL    HW117757  -0.540   5.595   3.249
 5250SOL    HW217758  21.414  16.555   3.216
 5251SOL     OW17759   2.576  11.023   2.956
 5251SOL    HW117760   2.635  10.960  -8.041
 5251SOL    HW217761   2.499  10.972  -8.107
 5252SOL     OW17762   2.976   5.643  10.265
 5252SOL    HW117763   3.039   5.705  10.230
 5252SOL    HW217764  14.059   5.606  10.343
 5253SOL     OW17765   6.413   7.379   5.008
 5253SOL    HW117766  -4.717  -3.688   4.993
 5253SOL    HW217767   6.408  -3.567  27.105
 5254SOL     OW17768   8.103   8.130   8.143
 5254SOL    HW117769  -2.897   8.136   8.055
 5254SOL    HW217770   8.157  30.268  41.315
 5255SOL     OW17771   9.660  10.214   7.726
 5255SOL    HW117772   9.676  10.121   7.715
 5255SOL    HW217773   9.702  21.275   7.809
 5256SOL     OW17774   6.654   4.200   6.772
 5256SOL    HW117775  17.780 -17.913   6.752
 5256SOL    HW217776  17.704  -6.744   6.771
 5257SOL     OW17777   4.305  10.950  10.617
 5257SOL    HW117778  15.306  10.954  -0.335
 5257SOL    HW217779   4.320  -0.183  10.602
 5258SOL     OW17780   7.105   1.135  10.680
 5258SOL    HW117781   7.163   1.092  -0.422
 5258SOL    HW217782   7.134   1.105  10.766
 5259SOL     OW17783   6.470   0.225   5.323
 5259SOL    HW117784  -4.649   0.278   5.316
 5259SOL    HW217785   6.462   0.160   5.252
 5260SOL     OW17786   3.524   5.787   2.821
 5260SOL    HW117787   3.521   5.871  -8.263
 5260SOL    HW217788   3.514  16.762   2.752
 5261SOL     OW17789   0.537   2.586   5.782
 5261SOL    HW117790   0.554   2.667   5.736
 5261SOL    HW217791   0.442  -8.466   5.774
 5262SOL     OW17792   5.963   2.109   5.401
 5262SOL    HW117793 -16.033  13.141   5.355
 5262SOL    HW217794  -5.057  13.122  16.530
 5263SOL     OW17795   2.973   6.297   2.223
 5263SOL    HW117796   2.965   6.339   2.309
 5263SOL    HW217797  25.048   6.203   2.241
 5264SOL     OW17798   0.667  11.025   6.879
 5264SOL    HW117799   0.692  11.112   6.912
 5264SOL    HW217800   0.578  -0.003   6.847
 5265SOL     OW17801   3.983  10.470   7.322
 5265SOL    HW117802   4.030  10.394   7.355
 5265SOL    HW217803   3.994  10.465  18.266
 5266SOL     OW17804  10.128   8.446   4.210
 5266SOL    HW117805  10.133 -13.616   4.304
 5266SOL    HW217806  10.195  19.541   4.171
 5267SOL     OW17807   3.586   2.575   3.094
 5267SOL    HW117808   3.610  13.669   3.169
 5267SOL    HW217809   3.626   2.618  25.098
 5268SOL     OW17810   7.575   1.140   7.029
 5268SOL    HW117811  29.632   1.162  -3.920
 5268SOL    HW217812   7.490  12.172 -15.095
 5269SOL     OW17813   2.014   4.148  10.336
 5269SOL    HW117814  13.001  -6.824  32.374
 5269SOL    HW217815   2.079   4.124  -0.769
 5270SOL     OW17816  -0.104  10.384   2.897
 5270SOL    HW117817  22.018  10.447  13.878
 5270SOL    HW217818  -0.095  10.423   2.984
 5271SOL     OW17819   2.565  10.552   6.854
 5271SOL    HW117820   2.522  10.624   6.807
 5271SOL    HW217821   2.493  10.508  -4.140
 5272SOL     OW17822   5.507   2.557   8.991
 5272SOL    HW117823   5.597  13.612  20.060
 5272SOL    HW217824   5.516   2.495  19.958
 5273SOL     OW17825   3.291   5.218   5.682
 5273SOL    HW117826   3.280  27.204   5.697
 5273SOL    HW217827   3.259 -16.820  -5.278
 5274SOL     OW17828   7.983   8.520   6.084
 5274SOL    HW117829   7.978   8.489   5.994
 5274SOL    HW217830   8.075  -2.496 -15.983
 5275SOL     OW17831   7.773  10.190  10.588
 5275SOL    HW117832  -3.305  -0.762  10.592
 5275SOL    HW217833   7.829  -0.854  -0.373
 5276SOL     OW17834   5.617   1.075   9.278
 5276SOL    HW117835   5.704  -9.933   9.255
 5276SOL    HW217836   5.558  12.160   9.217
 5277SOL     OW17837  10.536  10.803   6.367
 5277SOL    HW117838  10.574  -0.233  17.495
 5277SOL    HW217839  10.445  10.829  28.459
 5278SOL     OW17840   7.502   7.487   1.416
 5278SOL    HW117841  -3.594  18.464  -9.581
 5278SOL    HW217842   7.494   7.467   1.322
 5279SOL     OW17843   6.948   3.860   3.338
 5279SOL    HW117844   6.971   3.768   3.324
 5279SOL    HW217845  -4.179  -7.183  25.455
 5280SOL     OW17846   1.690  -2.394   7.436
 5280SOL    HW117847   1.659  30.677  18.398
 5280SOL    HW217848   1.784   8.633  18.476
 5281SOL     OW17849   7.505   4.052   4.638
 5281SOL    HW117850   7.475   4.136   4.671
 5281SOL    HW217851   7.441  15.067   4.572
 5282SOL     OW17852   1.738   3.387   8.450
 5282SOL    HW117853   1.664   3.328  41.581
 5282SOL    HW217854   1.790  -7.661   8.530
 5283SOL     OW17855   4.727   0.360   0.957
 5283SOL    HW117856  -6.238   0.418  34.063
 5283SOL    HW217857   4.673   0.403  12.062
 5284SOL     OW17858   7.677   8.014   9.970
 5284SOL    HW117859   7.703   7.983  10.057
 5284SOL    HW217860   7.586  19.081   9.980
 5285SOL     OW17861   7.297   4.965   7.252
 5285SOL    HW117862   7.233   4.921   7.308
 5285SOL    HW217863   7.284  16.098   7.271
 5286SOL     OW17864   0.696   1.106   8.045
 5286SOL    HW117865   0.781   1.144  19.064
 5286SOL    HW217866  11.703  12.113   7.961
 5287SOL     OW17867   3.012   5.601   7.673
 5287SOL    HW117868  -8.107   5.553   7.693
 5287SOL    HW217869   3.079   5.561   7.729
 5288SOL     OW17870  11.342  10.287   1.815
 5288SOL    HW117871   0.358  10.246   1.749
 5288SOL    HW217872 -21.866  21.298   1.793
 5289SOL     OW17873   2.525   7.167   2.962
 5289SOL    HW117874  13.596   7.102 -19.181
 5289SOL    HW217875   2.600   7.179   3.020
 5290SOL     OW17876  10.552   5.533  10.465
 5290SOL    HW117877  10.472   5.520  -0.523
 5290SOL    HW217878  10.607 -16.489  10.519
 5291SOL     OW17879   3.372   8.927   9.748
 5291SOL    HW117880 -18.658   8.965   9.675
 5291SOL    HW217881  -7.722   8.860   9.708
 5292SOL     OW17882   8.172   5.650   9.901
 5292SOL    HW117883   8.086   5.610   9.914
 5292SOL    HW217884   8.155   5.744  -1.141
 5293SOL     OW17885  -1.532   8.603  -0.674
 5293SOL    HW117886   9.581 -13.421  -0.702
 5293SOL    HW217887  31.551   8.567  21.323
 5294SOL     OW17888   0.424   8.116   2.873
 5294SOL    HW117889   0.419   8.185   2.808
 5294SOL    HW217890   0.333   8.088  24.964
 5295SOL     OW17891   9.438   9.941  10.289
 5295SOL    HW117892   9.511  -1.056  10.243
 5295SOL    HW217893   9.392   9.893  10.220
 5296SOL     OW17894   8.566   9.975   5.551
 5296SOL    HW117895   8.513  10.007   5.478
 5296SOL    HW217896   8.511  20.949  16.633
 5297SOL     OW17897   7.162   7.088  11.283
 5297SOL    HW117898  29.254   7.157   0.309
 5297SOL    HW217899   7.067  -3.960  11.276
 5298SOL     OW17900  11.940   7.689  11.357
 5298SOL    HW117901 -21.222   7.637  11.424
 5298SOL    HW217902  11.981   7.761   0.365
 5299SOL     OW17903   4.689   2.284   9.498
 5299SOL    HW117904   4.634   2.240 -23.685
 5299SOL    HW217905   4.759   2.222  20.556
 5300SOL     OW17906   2.549   1.113   7.383
 5300SOL    HW117907  13.514  -9.961   7.334
 5300SOL    HW217908  24.680  12.200  18.358
 5301SOL     OW17909   3.846   4.869   0.123
 5301SOL    HW117910   3.788  15.979   0.152
 5301SOL    HW217911   3.893 -28.212   0.048
 5302SOL     OW17912   1.359   8.186   5.156
 5302SOL    HW117913  23.424   8.178  16.101
 5302SOL    HW217914   1.330   8.102   5.192
 5303SOL     OW17915   5.218   9.998   4.879
 5303SOL    HW117916   5.304   9.955   4.873
 5303SOL    HW217917   5.165   9.937   4.930
 5304SOL     OW17918   8.191  -1.206   4.842
 5304SOL    HW117919   8.118   9.792  26.967
 5304SOL    HW217920  19.195   9.858  15.796
 5305SOL     OW17921   4.610   8.016   8.558
 5305SOL    HW117922   4.591  -3.049   8.648
 5305SOL    HW217923   4.676   8.084   8.565
 5306SOL     OW17924   2.149   8.827   7.359
 5306SOL    HW117925   2.101   8.874   7.428
 5306SOL    HW217926  24.222   8.885  29.362
 5307SOL     OW17927   1.579   1.926   5.167
 5307SOL    HW117928   1.619  -9.200   5.169
 5307SOL    HW217929  12.651  -9.070 -16.833
 5308SOL     OW17930   6.961   2.781   4.703
 5308SOL    HW117931   6.891   2.814   4.759
 5308SOL    HW217932   6.946   2.825   4.618
 5309SOL     OW17933   5.549   0.209   9.997
 5309SOL    HW117934   5.523   0.172   9.913
 5309SOL    HW217935   5.479   0.271  10.019
 5310SOL     OW17936   6.771   3.423   6.167
 5310SOL    HW117937   6.762   3.346   6.224
 5310SOL    HW217938  17.723   3.460  -4.877
 5311SOL     OW17939   3.586   0.962   3.359
 5311SOL    HW117940   3.490   0.965   3.365
 5311SOL    HW217941   3.613   1.053   3.370
 5312SOL     OW17942   8.814  10.840   2.138
 5312SOL    HW117943  -2.228  10.838   2.043
 5312SOL    HW217944 -24.225  10.889   2.159
 5313SOL     OW17945   0.763   5.416   8.239
 5313SOL    HW117946   0.824   5.356   8.196
 5313SOL    HW217947   0.677  -5.663 -24.894
 5314SOL     OW17948   4.867   6.022   0.055
 5314SOL    HW117949   4.820  17.102   0.128
 5314SOL    HW217950   4.950   5.994  11.133
 5315SOL     OW17951   3.932  -0.597   0.018
 5315SOL    HW117952   3.880  -0.612  11.136
 5315SOL    HW217953   3.993  10.369   0.015
 5316SOL     OW17954   4.789   7.499   0.094
 5316SOL    HW117955  15.894   7.446  11.089
 5316SOL    HW217956   4.736  18.476 -10.896
 5317SOL     OW17957   0.068   5.944   2.445
 5317SOL    HW117958   0.046   5.889   2.521
 5317SOL    HW217959  -0.005   5.933   2.385
 5318SOL     OW17960   5.871   7.445   9.126
 5318SOL    HW117961  28.016 -25.622   9.172
 5318SOL    HW217962  16.961  29.455   9.082
 5319SOL     OW17963   0.422  13.349   1.814
 5319SOL    HW117964   0.348   2.276   1.864
 5319SOL    HW217965   0.388 -19.691   1.771
 5320SOL     OW17966   0.779   5.091   7.724
 5320SOL    HW117967   0.741   5.178  -3.300
 5320SOL    HW217968   0.768   5.077   7.630
 5321SOL     OW17969  10.387   9.391   8.350
 5321SOL    HW117970  10.370  31.528   8.276
 5321SOL    HW217971  10.349   9.435  19.465
 5322SOL     OW17972   8.937  10.175   5.627
 5322SOL    HW117973  42.019  10.263  -5.416
 5322SOL    HW217974   8.935  10.145  -5.504
 5323SOL     OW17975   8.953   2.584   4.311
 5323SOL    HW117976 -24.170  -8.524  37.497
 5323SOL    HW217977   9.047   2.594  37.413
 5324SOL     OW17978   5.004   8.144   1.038
 5324SOL    HW117979   4.991   8.126   0.945
 5324SOL    HW217980  -5.964   8.208  23.119
 5325SOL     OW17981  10.248   3.046   6.568
 5325SOL    HW117982  -0.698  -8.010   6.564
 5325SOL    HW217983  10.212   2.970  17.653
 5326SOL     OW17984   8.638   0.900   0.980
 5326SOL    HW117985   8.547  11.910 -10.051
 5326SOL    HW217986   8.678   0.881   1.064
 5327SOL     OW17987   5.938  10.695   0.186
 5327SOL    HW117988   5.973  10.639   0.116
 5327SOL    HW217989   5.879  10.638   0.235
 5328SOL     OW17990   1.996   7.051   3.505
 5328SOL    HW117991   1.924   7.111 -29.627
 5328SOL    HW217992  -9.071  29.049 -18.619
 5329SOL     OW17993   3.916   8.253   8.016
 5329SOL    HW117994   3.919  -2.865   8.070
 5329SOL    HW217995   3.991   8.245   7.957
 5330SOL     OW17996   1.547   5.953  10.985
 5330SOL    HW117997  -9.419   5.894  10.967
 5330SOL    HW217998   1.474   5.915  10.936
 5331SOL     OW17999   8.499   6.695   3.273
 5331SOL    HW118000   8.453  -4.289   3.337
 5331SOL    HW218001   8.451  28.787   3.191
 5332SOL     OW18002   3.045   1.926   3.591
 5332SOL    HW118003   3.074 -42.185  -7.370
 5332SOL    HW218004   3.030  12.876   3.622
 5333SOL     OW18005  11.032   2.559  10.495
 5333SOL    HW118006  11.097  -8.435  10.441
 5333SOL    HW218007  -0.019   2.474  10.452
 5334SOL     OW18008   8.708  -0.506   8.456
 5334SOL    HW118009  19.823  10.490  -2.544
 5334SOL    HW218010   8.651  -0.577   8.428
 5335SOL     OW18011   1.137   0.896   1.340
 5335SOL    HW118012   1.058   0.892   1.394
 5335SOL    HW218013   1.132   0.819   1.284
 5336SOL     OW18014  -0.968   7.039   9.421
 5336SOL    HW118015  10.002   7.014   9.482
 5336SOL    HW218016  10.056   6.985   9.343
 5337SOL     OW18017   7.987   6.107  10.962
 5337SOL    HW118018   7.899   6.091  -0.044
 5337SOL    HW218019   8.010   6.026  -0.123
 5338SOL     OW18020  10.678   1.753   4.629
 5338SOL    HW118021  10.703 -20.234   4.639
 5338SOL    HW218022  10.606   1.741   4.690
 5339SOL     OW18023   8.818   6.885   5.563
 5339SOL    HW118024   8.724   6.888   5.582
 5339SOL    HW218025 -24.270   6.974   5.578
 5340SOL     OW18026   4.298   5.457   5.824
 5340SOL    HW118027  -6.714   5.545  16.889
 5340SOL    HW218028 -39.788   5.400   5.853
 5341SOL     OW18029   6.606   6.818   3.487
 5341SOL    HW118030  -4.430   6.913   3.490
 5341SOL    HW218031   6.669   6.793  25.499
 5342SOL     OW18032  11.718   3.374   1.437
 5342SOL    HW118033 -10.391   3.338   1.354
 5342SOL    HW218034  11.748   3.298  -9.553
 5343SOL     OW18035   2.411   5.079  10.822
 5343SOL    HW118036   2.486   5.033  10.860
 5343SOL    HW218037  13.394   5.010  10.789
 5344SOL     OW18038   9.701   6.953   5.147
 5344SOL    HW118039 -12.295  28.985   5.157
 5344SOL    HW218040   9.648   6.896   5.092
 5345SOL     OW18041   0.927   7.128   2.140
 5345SOL    HW118042   0.857   7.188   2.116
 5345SOL    HW218043 -10.156   7.053  13.219
 5346SOL     OW18044   8.876   3.041   9.086
 5346SOL    HW118045  -2.232  -8.015   9.151
 5346SOL    HW218046   8.940   2.971 -24.020
 5347SOL     OW18047   8.679   2.929   6.887
 5347SOL    HW118048   8.688   2.909   6.794
 5347SOL    HW218049   8.691  -8.015   6.892
 5348SOL     OW18050   9.131   9.330   5.139
 5348SOL    HW118051   9.097   9.248   5.104
 5348SOL    HW218052 -13.015   9.395   5.117
 5349SOL     OW18053   9.196   4.084   2.121
 5349SOL    HW118054  -1.765   4.079   2.176
 5349SOL    HW218055  20.255 -17.926   2.058
 5350SOL     OW18056   2.065   1.809   8.796
 5350SOL    HW118057 -20.007 -20.242   8.705
 5350SOL    HW218058  24.092   1.728   8.792
 5351SOL     OW18059   7.577   4.395   8.377
 5351SOL    HW118060   7.666   4.398  -2.699
 5351SOL    HW218061   7.581   4.453   8.453
 5352SOL     OW18062   9.216   8.932  -1.497
 5352SOL    HW118063  20.288  20.044   9.488
 5352SOL    HW218064   9.171   8.974  20.654
 5353SOL     OW18065   8.150   3.676   0.516
 5353SOL    HW118066   8.191   3.622   0.583
 5353SOL    HW218067   8.068   3.631   0.495
 5354SOL     OW18068   5.110   7.699   2.239
 5354SOL    HW118069 -16.988   7.610 -19.871
 5354SOL    HW218070  -5.987   7.710   2.315
 5355SOL     OW18071   2.045   5.529   8.246
 5355SOL    HW118072  -8.908   5.520 -13.792
 5355SOL    HW218073 -20.027   5.607   8.191
 5356SOL     OW18074   0.669   3.457  -1.533
 5356SOL    HW118075   0.582   3.422  -1.555
 5356SOL    HW218076   0.725  14.468  31.513
 5357SOL     OW18077   1.884   2.302   6.818
 5357SOL    HW118078   1.952   2.274   6.879
 5357SOL    HW218079  -9.171   2.226   6.763
 5358SOL     OW18080   9.320   7.587   5.716
 5358SOL    HW118081   9.339  -3.370   5.759
 5358SOL    HW218082   9.239  18.642   5.668
 5359SOL     OW18083   4.287   4.754   0.832
 5359SOL    HW118084   4.274  15.870   0.889
 5359SOL    HW218085   4.253  15.720   0.883
 5360SOL     OW18086   3.979  -0.140   2.276
 5360SOL    HW118087  14.940  -0.089   2.296
 5360SOL    HW218088   3.949  10.832  -8.825
 5361SOL     OW18089   3.483   9.363   2.495
 5361SOL    HW118090   3.550   9.323   2.551
 5361SOL    HW218091   3.479   9.454  -8.515
 5362SOL     OW18092   3.571   2.952  10.776
 5362SOL    HW118093 -18.459   2.918  10.701
 5362SOL    HW218094   3.638  -8.057  10.837
 5363SOL     OW18095   8.783   5.994   9.073
 5363SOL    HW118096   8.823  16.947  -1.959
 5363SOL    HW218097  19.871   6.048   9.136
 5364SOL     OW18098   0.056   0.757   2.829
 5364SOL    HW118099 -11.015   0.841   2.864
 5364SOL    HW218100  11.085  22.845   2.734
 5365SOL     OW18101   7.806   2.295   6.052
 5365SOL    HW118102  -3.184  13.279   6.113
 5365SOL    HW218103   7.837   2.269   5.966
 5366SOL     OW18104   2.414   7.463   7.461
 5366SOL    HW118105   2.418   7.377   7.503
 5366SOL    HW218106  24.400   7.474   7.439
 5367SOL     OW18107  12.469   2.832   6.295
 5367SOL    HW118108   1.429   2.844   6.200
 5367SOL    HW218109  -9.703   2.821  17.357
 5368SOL     OW18110   1.380   9.800   9.505
 5368SOL    HW118111   1.371  -1.219   9.598
 5368SOL    HW218112   1.461   9.845   9.479
 5369SOL     OW18113   4.499   8.972   8.985
 5369SOL    HW118114   4.520   8.957   9.077
 5369SOL    HW218115   4.432  -2.133   8.965
 5370SOL     OW18116   6.091  10.614  11.924
 5370SOL    HW118117  17.220  10.637   0.907
 5370SOL    HW218118  -4.985  10.577   0.965
 5371SOL     OW18119   7.597   6.541   7.605
 5371SOL    HW118120   7.605  28.646   7.514
 5371SOL    HW218121   7.652   6.463   7.614
 5372SOL     OW18122   3.498  11.039  11.000
 5372SOL    HW118123   3.543  11.050  10.916
 5372SOL    HW218124 -29.672  10.959  10.990
 5373SOL     OW18125   6.597   4.364  12.300
 5373SOL    HW118126   6.620  26.533 -31.833
 5373SOL    HW218127   6.573   4.372  -9.872
 5374SOL     OW18128   9.576   4.528   2.393
 5374SOL    HW118129   9.484   4.536 -19.712
 5374SOL    HW218130 -12.455   4.579   2.329
 5375SOL     OW18131   0.174   9.510   7.590
 5375SOL    HW118132  22.240   9.522   7.496
 5375SOL    HW218133   0.139   9.589   7.630
 5376SOL     OW18134  10.195   4.363  10.216
 5376SOL    HW118135  10.264   4.365  10.282
 5376SOL    HW218136  21.261   4.292  10.156
 5377SOL     OW18137   4.759   5.552   1.551
 5377SOL    HW118138   4.729   5.641  23.646
 5377SOL    HW218139  -6.220  16.573  -9.416
 5378SOL     OW18140   0.035   9.468   9.667
 5378SOL    HW118141  -0.037   9.526   9.693
 5378SOL    HW218142   0.064   9.502   9.583
 5379SOL     OW18143   0.557   0.741   8.579
 5379SOL    HW118144   0.587   0.782  19.700
 5379SOL    HW218145  11.611  44.805   8.593
 5380SOL     OW18146   1.480   5.125  10.713
 5380SOL    HW118147   1.490 -17.014  10.639
 5380SOL    HW218148   1.411  -5.854  10.685
 5381SOL     OW18149  10.751   7.248   7.382
 5381SOL    HW118150  10.692   7.321   7.364
 5381SOL    HW218151 -11.241  18.327   7.383
 5382SOL     OW18152   3.598   2.189  11.161
 5382SOL    HW118153   3.641   2.249  11.100
 5382SOL    HW218154   3.669  13.180 -10.878
 5383SOL     OW18155   5.946   7.419   9.455
 5383SOL    HW118156   5.869  18.442   9.400
 5383SOL    HW218157  16.954   7.477  20.564
 5384SOL     OW18158   0.796   2.111   0.181
 5384SOL    HW118159 -10.159   2.077  11.250
 5384SOL    HW218160   0.732   2.068   0.238
 5385SOL     OW18161   2.775   7.574   0.816
 5385SOL    HW118162  24.814   7.641   0.760
 5385SOL    HW218163   2.744  29.674   0.904
 5386SOL     OW18164   0.652   7.191   8.652
 5386SOL    HW118165 -10.373   7.253  19.620
 5386SOL    HW218166   0.562  18.247   8.680
 5387SOL     OW18167  10.386   3.959  10.015
 5387SOL    HW118168  10.374   4.003   9.931
 5387SOL    HW218169  10.307  -7.133  10.026
 5388SOL     OW18170  11.069   0.326   6.184
 5388SOL    HW118171  11.019   0.391   6.234
 5388SOL    HW218172 -11.075   0.259  -4.880
 5389SOL     OW18173   6.757   6.910  10.902
 5389SOL    HW118174  17.742  28.911  10.911
 5389SOL    HW218175  28.813  40.064 -22.302
 5390SOL     OW18176   7.054   4.351   6.658
 5390SOL    HW118177   6.990   4.419   6.675
 5390SOL    HW218178 -14.947   4.379   6.707
 5391SOL     OW18179   4.544  10.686  10.286
 5391SOL    HW118180   4.525  10.601  10.245
 5391SOL    HW218181   4.468  10.703  10.341
 5392SOL     OW18182   4.950   9.171   2.957
 5392SOL    HW118183   4.900   9.174   2.876
 5392SOL    HW218184 -17.059   9.108   2.941
 5393SOL     OW18185   8.169   7.787   3.327
 5393SOL    HW118186   8.085   7.832   3.325
 5393SOL    HW218187  19.258  -3.214   3.255
 5394SOL     OW18188   2.668  10.023  -1.682
 5394SOL    HW118189   2.586  -0.988   9.318
 5394SOL    HW218190   2.732  10.089  20.371
 5395SOL     OW18191   6.408   5.148   1.747
 5395SOL    HW118192   6.406   5.130   1.653
 5395SOL    HW218193   6.436   5.065   1.787
 5396SOL     OW18194   4.551   6.410   3.300
 5396SOL    HW118195   4.639   6.433  14.367
 5396SOL    HW218196   4.531  17.369   3.347
 5397SOL     OW18197   5.875   9.622   2.202
 5397SOL    HW118198  -5.213  20.744   2.198
 5397SOL    HW218199   5.963   9.644  13.209
 5398SOL     OW18200   5.201   4.975   8.779
 5398SOL    HW118201   5.170   4.926   8.703
 5398SOL    HW218202   5.297   4.974  -2.268
 5399SOL     OW18203   1.395   0.643   4.097
 5399SOL    HW118204   1.411   0.737   4.104
 5399SOL    HW218205  12.518   0.606   4.067
 5400SOL     OW18206   8.538   3.949  -0.053
 5400SOL    HW118207  30.539   3.910  10.947
 5400SOL    HW218208  19.651 -18.174  10.944
 5401SOL     OW18209   5.026   2.931   3.083
 5401SOL    HW118210  -5.995  -8.031  25.215
 5401SOL    HW218211  -6.107  13.978   3.062
 5402SOL     OW18212   2.160   7.456   1.611
 5402SOL    HW118213   2.141   7.366  -9.456
 5402SOL    HW218214   2.155   7.507   1.531
 5403SOL     OW18215  10.536   5.450   2.329
 5403SOL    HW118216  10.623   5.465   2.292
 5403SOL    HW218217  10.517  16.569   2.379
 5404SOL     OW18218  -1.132   1.500   6.921
 5404SOL    HW118219  -1.099   1.558 -15.089
 5404SOL    HW218220  32.048   1.512   6.849
 5405SOL     OW18221   9.520   5.356  11.210
 5405SOL    HW118222   9.511  -5.668  11.116
 5405SOL    HW218223   9.434   5.325   0.199
 5406SOL     OW18224   5.689   3.273   2.647
 5406SOL    HW118225 -16.408   3.297   2.738
 5406SOL    HW218226   5.700  47.337   2.649
 5407SOL     OW18227  12.208   8.173   7.641
 5407SOL    HW118228 -20.979   8.142   7.699
 5407SOL    HW218229 -20.956   8.231   7.579
 5408SOL     OW18230   9.167   2.853   8.548
 5408SOL    HW118231  31.206   2.908   8.615
 5408SOL    HW218232   9.092   2.820   8.498
 5409SOL     OW18233   7.732  -0.249  -0.128
 5409SOL    HW118234   7.722  21.806  21.858
 5409SOL    HW218235   7.799  10.859  -0.128
 5410SOL     OW18236  10.411  10.974   8.988
 5410SOL    HW118237  10.331  -0.021   8.959
 5410SOL    HW218238  10.438  -0.018   9.066
 5411SOL     OW18239   5.578   7.061   4.123
 5411SOL    HW118240   5.516   7.019   4.183
 5411SOL    HW218241  -5.399 -15.087 -17.978
 5412SOL     OW18242   0.582   6.196   4.839
 5412SOL    HW118243   0.588   6.278   4.790
 5412SOL    HW218244   0.596   6.128  37.892
 5413SOL     OW18245   1.692   5.958   8.612
 5413SOL    HW118246   1.772   6.003   8.585
 5413SOL    HW218247   1.667   6.001 -13.385
 5414SOL     OW18248   3.436   5.239   8.255
 5414SOL    HW118249 -18.667 -27.912 -13.911
 5414SOL    HW218250 -18.593   5.318   8.238
 5415SOL     OW18251   5.991   8.654   8.653
 5415SOL    HW118252  -5.141 -13.414  -2.409
 5415SOL    HW218253 -16.087   8.579  -2.327
 5416SOL     OW18254  -0.860   7.135   3.223
 5416SOL    HW118255  32.244   7.088   3.141
 5416SOL    HW218256  21.149   7.200  -7.812
 5417SOL     OW18257   4.183   9.683   9.963
 5417SOL    HW118258  26.317   9.727  10.028
 5417SOL    HW218259   4.199  31.669   9.977
 5418SOL     OW18260   9.070   9.002   6.865
 5418SOL    HW118261   9.153   9.017   6.819
 5418SOL    HW218262   9.064   8.907   6.873
 5419SOL     OW18263   4.323   6.582   9.749
 5419SOL    HW118264   4.314   6.674   9.721
 5419SOL    HW218265  15.427   6.545   9.688
 5420SOL     OW18266   7.355   6.913  10.986
 5420SOL    HW118267   7.382   6.995  10.943
 5420SOL    HW218268   7.434   6.859 -11.093
 5421SOL     OW18269   4.173  10.007   7.747
 5421SOL    HW118270   4.134  10.047   7.824
 5421SOL    HW218271   4.233   9.941  -3.258
 5422SOL     OW18272   7.593   1.169   1.116
 5422SOL    HW118273   7.654  12.138  12.177
 5422SOL    HW218274   7.639   1.220   1.049
 5423SOL     OW18275   4.875   1.849  10.749
 5423SOL    HW118276   4.939 -20.261  10.813
 5423SOL    HW218277  48.999   1.930 -11.294
 5424SOL     OW18278   7.322   4.659   1.963
 5424SOL    HW118279   7.354   4.578   1.923
 5424SOL    HW218280  -3.791   4.631   2.018
 5425SOL     OW18281   8.040   3.737   7.808
 5425SOL    HW118282 -13.991   3.657   7.787
 5425SOL    HW218283   8.049  25.871  18.769
 5426SOL     OW18284   4.502   4.682   8.308
 5426SOL    HW118285   4.583   4.725  -2.757
 5426SOL    HW218286   4.524   4.630 -13.694
 5427SOL     OW18287   0.055   2.508  -0.271
 5427SOL    HW118288   0.074   2.415  21.818
 5427SOL    HW218289  22.147   2.525  -0.364
 5428SOL     OW18290   4.430  -0.499  11.936
 5428SOL    HW118291   4.496  -0.432  11.915
 5428SOL    HW218292   4.453  10.512 -21.094
 5429SOL     OW18293   4.919   8.807   1.304
 5429SOL    HW118294   4.832  30.873   1.266
 5429SOL    HW218295   4.962   8.722   1.294
 5430SOL     OW18296   4.429   5.166   6.931
 5430SOL    HW118297   4.519   5.176   6.900
 5430SOL    HW218298  -6.663   5.216   6.869
 5431SOL     OW18299   7.700   7.948   3.591
 5431SOL    HW118300   7.656   7.969   3.674
 5431SOL    HW218301  -3.379  -3.174   3.563
 5432SOL     OW18302   8.061   7.372   4.637
 5432SOL    HW118303  19.133   7.283 -17.437
 5432SOL    HW218304   8.014   7.386   4.719
 5433SOL     OW18305   2.448   3.796   5.012
 5433SOL    HW118306  13.450  -7.157   5.027
 5433SOL    HW218307  -8.510  14.836   5.061
 5434SOL     OW18308   0.357   3.082   6.200
 5434SOL    HW118309  11.438  47.163   6.239
 5434SOL    HW218310   0.401  36.213   6.116
 5435SOL     OW18311  11.789   7.597   8.929
 5435SOL    HW118312 -10.340   7.611  -2.191
 5435SOL    HW218313 -32.289 -25.565   8.901
 5436SOL     OW18314   9.216   3.876   5.683
 5436SOL    HW118315   9.228   3.922  27.679
 5436SOL    HW218316  20.344   3.868  16.758
 5437SOL     OW18317   8.294   6.344   6.377
 5437SOL    HW118318   8.215   6.383   6.342
 5437SOL    HW218319   8.270   6.252   6.394
 5438SOL     OW18320   4.972   9.146   1.908
 5438SOL    HW118321   4.970  -1.825  -9.065
 5438SOL    HW218322   4.972   9.194   1.825
 5439SOL     OW18323   0.481  -0.433   9.481
 5439SOL    HW118324  11.501  -0.440   9.387
 5439SOL    HW218325   0.441  10.529   9.520
 5440SOL     OW18326   2.835   7.406   2.883
 5440SOL    HW118327   2.881   7.455   2.814
 5440SOL    HW218328   2.854   7.314  13.903
 5441SOL     OW18329   2.706   7.227  -1.575
 5441SOL    HW118330   2.781   7.192  31.591
 5441SOL    HW218331 -19.348 -14.854   9.372
 5442SOL     OW18332   0.252   1.057   2.601
 5442SOL    HW118333   0.342  -9.960   2.576
 5442SOL    HW218334   0.237   1.108   2.681
 5443SOL     OW18335   5.594   4.151   9.266
 5443SOL    HW118336 -16.527  -6.956   9.319
 5443SOL    HW218337   5.593  15.269  20.361
 5444SOL     OW18338   8.446   6.415   6.180
 5444SOL    HW118339   8.463   6.329  17.182
 5444SOL    HW218340 -24.734  28.477  -4.788
 5445SOL     OW18341   0.229  10.536   8.927
 5445SOL    HW118342   0.216  10.630  19.955
 5445SOL    HW218343  11.291  10.504   8.840
 5446SOL     OW18344  10.307   7.177   4.073
 5446SOL    HW118345  10.374   7.246   4.077
 5446SOL    HW218346  10.353   7.098   4.102
 5447SOL     OW18347   5.382   3.155   6.658
 5447SOL    HW118348   5.331 -40.982   6.579
 5447SOL    HW218349   5.363   3.063  17.714
 5448SOL     OW18350  11.480   3.586   5.883
 5448SOL    HW118351 -10.605   3.551   5.972
 5448SOL    HW218352  11.425  14.703   5.884
 5449SOL     OW18353   3.628   4.917   6.273
 5449SOL    HW118354  14.759   4.937   6.296
 5449SOL    HW218355   3.608   4.976  28.279
 5450SOL     OW18356   2.667   7.614   7.925
 5450SOL    HW118357  13.642   7.615  30.074
 5450SOL    HW218358  24.707 -25.453   7.855
 5451SOL     OW18359   6.313   4.110   2.224
 5451SOL    HW118360   6.374   4.133   2.154
 5451SOL    HW218361   6.261   4.038   2.188
 5452SOL     OW18362   5.069   2.654   6.559
 5452SOL    HW118363   4.992  35.781  28.582
 5452SOL    HW218364   5.114  13.778  17.592
 5453SOL     OW18365  10.749   7.852   3.178
 5453SOL    HW118366  10.671   7.849  -7.917
 5453SOL    HW218367  10.719  18.861   3.264
 5454SOL     OW18368   9.764  -1.538   2.789
 5454SOL    HW118369   9.790  20.616   2.736
 5454SOL    HW218370   9.759   9.536   2.878
 5455SOL     OW18371   7.620   2.131   6.613
 5455SOL    HW118372   7.690  13.230   6.639
 5455SOL    HW218373  -3.449  13.204   6.528
 5456SOL     OW18374   1.203   6.481   9.812
 5456SOL    HW118375  23.339  17.594   9.788
 5456SOL    HW218376   1.143   6.519  -1.163
 5457SOL     OW18377   2.948   5.531   3.531
 5457SOL    HW118378  -8.085 -16.582  -7.598
 5457SOL    HW218379   2.964  -5.584   3.587
 5458SOL     OW18380  10.617   9.697  10.270
 5458SOL    HW118381  10.649   9.640  21.240
 5458SOL    HW218382  -0.516   9.709  10.250
 5459SOL     OW18383   8.488   8.696   4.058
 5459SOL    HW118384   8.462  -2.251   4.056
 5459SOL    HW218385   8.422   8.653   4.113
 5460SOL     OW18386   5.365   0.036   5.185
 5460SOL    HW118387   5.440   0.026   5.243
 5460SOL    HW218388  16.355  11.148   5.224
 5461SOL     OW18389   1.010   9.036   6.648
 5461SOL    HW118390 -10.009   9.021  39.859
 5461SOL    HW218391   1.075   8.985   6.600
 5462SOL     OW18392   5.057   8.725   3.527
 5462SOL    HW118393   5.147  -2.333   3.557
 5462SOL    HW218394   5.010   8.643   3.541
 5463SOL     OW18395   1.298   6.401   5.239
 5463SOL    HW118396  -9.793  39.600   5.230
 5463SOL    HW218397   1.387   6.430  16.294
 5464SOL     OW18398   1.741   4.843   8.063
 5464SOL    HW118399 -20.401 -17.298  -3.013
 5464SOL    HW218400   1.686   4.909  19.145
 5465SOL     OW18401   2.995   4.194  -0.248
 5465SOL    HW118402   2.997  -6.938  -0.222
 5465SOL    HW218403   2.911  -6.836  32.826
 5466SOL     OW18404  10.984   8.125   6.409
 5466SOL    HW118405  11.035  -2.990  39.555
 5466SOL    HW218406  10.898  19.151  17.489
 5467SOL     OW18407   0.870   6.508   7.802
 5467SOL    HW118408  11.936   6.523  18.751
 5467SOL    HW218409   0.931   6.560  29.933
 5468SOL     OW18410   4.100   9.645   3.731
 5468SOL    HW118411 -18.034   9.717 -29.357
 5468SOL    HW218412  15.079  20.611   3.723
 5469SOL     OW18413   6.401   3.556   5.869
 5469SOL    HW118414   6.331   3.568  38.923
 5469SOL    HW218415   6.390  14.505  27.978
 5470SOL     OW18416   9.640   7.211   6.761
 5470SOL    HW118417  20.628   7.279  -4.235
 5470SOL    HW218418   9.624   7.132   6.814
 5471SOL     OW18419   1.673   6.788   7.480
 5471SOL    HW118420   1.592  -4.202   7.492
 5471SOL    HW218421  -9.389  -4.340   7.510
 5472SOL     OW18422   2.921   0.660   1.426
 5472SOL    HW118423  -8.036   0.707   1.436
 5472SOL    HW218424   2.854  11.766   1.438
 5473SOL     OW18425   8.419   7.711   2.423
 5473SOL    HW118426   8.493   7.717  24.563
 5473SOL    HW218427  -2.680  18.687   2.464
 5474SOL     OW18428   1.785   3.767   6.676
 5474SOL    HW118429   1.765  -7.261  17.623
 5474SOL    HW218430  -9.198   3.841   6.698
 5475SOL     OW18431   9.515   7.385   6.957
 5475SOL    HW118432   9.423  29.481   6.976
 5475SOL    HW218433   9.539   7.313   7.016
 5476SOL     OW18434   7.174  10.229  10.602
 5476SOL    HW118435   7.191  -0.882  10.540
 5476SOL    HW218436   7.243  21.332  10.584
 5477SOL     OW18437   5.829   2.576   5.267
 5477SOL    HW118438   5.902   2.576 -16.875
 5477SOL    HW218439  16.792  24.633   5.215
 5478SOL     OW18440   7.411   7.757   2.288
 5478SOL    HW118441   7.458  -3.288   2.371
 5478SOL    HW218442   7.478 -14.304  35.341
 5479SOL     OW18443   4.349   2.291   0.954
 5479SOL    HW118444   4.378  13.420   0.935
 5479SOL    HW218445  15.408   2.243   0.873
 5480SOL     OW18446   4.790   4.649   8.531
 5480SOL    HW118447   4.725   4.702   8.578
 5480SOL    HW218448   4.872   4.664  30.658
 5481SOL     OW18449   6.165   0.875   8.968
 5481SOL    HW118450  17.218   0.912  19.920
 5481SOL    HW218451  -4.837   0.940   9.028
 5482SOL     OW18452   6.256   2.539   8.871
 5482SOL    HW118453 -15.906  24.667   8.876
 5482SOL    HW218454  17.318  24.599   8.962
 5483SOL     OW18455   4.439   8.332   0.089
 5483SOL    HW118456   4.515  30.377   0.044
 5483SOL    HW218457   4.465   8.336   0.181
 5484SOL     OW18458   4.090   5.363   9.576
 5484SOL    HW118459 -29.062   5.397   9.659
 5484SOL    HW218460 -18.042   5.285  20.599
 5485SOL     OW18461   7.163   7.489   0.951
 5485SOL    HW118462  18.229   7.460  23.117
 5485SOL    HW218463   7.108  29.498   0.918
 5486SOL     OW18464   8.336   5.943   5.810
 5486SOL    HW118465  19.468   5.961 -16.255
 5486SOL    HW218466   8.320  -5.180 -16.224
 5487SOL     OW18467   0.878   5.656   5.303
 5487SOL    HW118468  11.849 -16.399   5.366
 5487SOL    HW218469  11.979  -5.437   5.354
 5488SOL     OW18470   9.366  10.390   4.750
 5488SOL    HW118471 -12.789  10.339   4.724
 5488SOL    HW218472   9.361  10.470   4.699
 5489SOL     OW18473   1.875   1.206  10.151
 5489SOL    HW118474  -9.238   1.175  -0.836
 5489SOL    HW218475   1.837   1.272  10.093
 5490SOL     OW18476   4.280   3.747   6.689
 5490SOL    HW118477   4.323   3.662  28.757
 5490SOL    HW218478   4.206   3.730   6.747
 5491SOL     OW18479   1.583   8.378   2.240
 5491SOL    HW118480  12.574   8.370   2.159
 5491SOL    HW218481   1.581   8.471   2.261
 5492SOL     OW18482   4.235   1.816   3.667
 5492SOL    HW118483   4.280  -9.268  -7.301
 5492SOL    HW218484  15.344   1.840   3.605
 5493SOL     OW18485   0.561   5.162   2.997
 5493SOL    HW118486   0.515   5.128   2.921
 5493SOL    HW218487   0.562   5.089 -19.020
 5494SOL     OW18488   1.001   8.469  10.057
 5494SOL    HW118489   1.039   8.392  10.015
 5494SOL    HW218490  12.116  30.604  10.076
 5495SOL     OW18491   2.059   4.110   7.518
 5495SOL    HW118492   2.035  26.112   7.571
 5495SOL    HW218493   1.980  37.283   7.519
 5496SOL     OW18494  10.558   9.509   9.950
 5496SOL    HW118495  10.545   9.603   9.966
 5496SOL    HW218496  10.609 -12.600  10.026
 5497SOL     OW18497   9.853   8.204   1.964
 5497SOL    HW118498  -1.200  19.149  12.995
 5497SOL    HW218499   9.926  -2.816   1.906
 5498SOL     OW18500   3.553   5.687   1.664
 5498SOL    HW118501   3.526   5.776   1.686
 5498SOL    HW218502  14.594   5.641   1.748
 5499SOL     OW18503   7.338   6.483   7.675
 5499SOL    HW118504  18.469  17.540   7.652
 5499SOL    HW218505 -14.743   6.390   7.694
 5500SOL     OW18506   3.349   1.151   5.507
 5500SOL    HW118507   3.283  23.294  -5.508
 5500SOL    HW218508   3.432   1.197   5.515
 5501SOL     OW18509   5.219   8.415   6.136
 5501SOL    HW118510   5.267   8.336   6.161
 5501SOL    HW218511   5.153   8.384  -4.965
 5502SOL     OW18512   6.260   6.309   8.359
 5502SOL    HW118513   6.192   6.285   8.296
 5502SOL    HW218514   6.262   6.404  19.398
 5503SOL     OW18515   9.381   2.068   0.463
 5503SOL    HW118516   9.306   2.122   0.440
 5503SOL    HW218517   9.381   2.066   0.559
 5504SOL     OW18518   9.681   9.763   8.860
 5504SOL    HW118519   9.726  20.823   8.778
 5504SOL    HW218520   9.738  20.839   8.928
 5505SOL     OW18521   9.002   0.672   7.465
 5505SOL    HW118522   9.011  22.841   7.499
 5505SOL    HW218523   9.062   0.669   7.391
 5506SOL     OW18524   0.289   3.666   3.737
 5506SOL    HW118525   0.201   3.703   3.723
 5506SOL    HW218526   0.282   3.576   3.706
 5507SOL     OW18527   5.971   2.623   7.960
 5507SOL    HW118528   5.897   2.663 -14.165
 5507SOL    HW218529 -16.149  24.634  19.054
 5508SOL     OW18530   8.085   9.294   8.168
 5508SOL    HW118531   8.012   9.353   8.149
 5508SOL    HW218532   8.077   9.275  19.301
 5509SOL     OW18533   3.836   3.533   0.079
 5509SOL    HW118534   3.769   3.517   0.013
 5509SOL    HW218535  14.947   3.574   0.032
 5510SOL     OW18536   3.285   1.453   9.981
 5510SOL    HW118537   3.367  34.529   9.956
 5510SOL    HW218538   3.230  34.566   9.903
 5511SOL     OW18539   8.313   6.231   6.707
 5511SOL    HW118540   8.356  -4.883   6.665
 5511SOL    HW218541   8.307   6.206  28.878
 5512SOL     OW18542   1.028   4.416   3.689
 5512SOL    HW118543  12.021   4.445 -40.549
 5512SOL    HW218544   1.090   4.487  -7.334
 5513SOL     OW18545   1.908   2.751   7.251
 5513SOL    HW118546   1.850   2.825   7.273
 5513SOL    HW218547   1.951   2.729   7.334
 5514SOL     OW18548   2.508   8.345   8.968
 5514SOL    HW118549   2.479   8.255   8.952
 5514SOL    HW218550   2.583  19.376   9.027
 5515SOL     OW18551   0.776   4.357   9.453
 5515SOL    HW118552   0.784  15.419   9.545
 5515SOL    HW218553   0.766   4.262   9.451
 5516SOL     OW18554   1.246  10.282   1.731
 5516SOL    HW118555  12.363  10.333   1.751
 5516SOL    HW218556   1.189  21.333  12.847
 5517SOL     OW18557   7.277  10.409   6.852
 5517SOL    HW118558   7.205  10.458   6.892
 5517SOL    HW218559   7.351  10.470   6.850
 5518SOL     OW18560   8.850   7.539   7.874
 5518SOL    HW118561  31.011  29.587  29.914
 5518SOL    HW218562   8.823   7.612  18.857
 5519SOL     OW18563   3.978   9.567   2.722
 5519SOL    HW118564   3.951   9.601   2.808
 5519SOL    HW218565   3.954  -1.565   2.724
 5520SOL     OW18566   9.709   8.898   7.694
 5520SOL    HW118567  -1.330 -13.249   7.761
 5520SOL    HW218568  -1.331   8.850   7.611
 5521SOL     OW18569   0.731   2.876   3.018
 5521SOL    HW118570   0.774   2.905   2.938
 5521SOL    HW218571  22.765  13.993 -30.068
 5522SOL     OW18572   8.424   5.661   9.727
 5522SOL    HW118573   8.401   5.710   9.648
 5522SOL    HW218574   8.346   5.666   9.782
 5523SOL     OW18575  10.584   2.428   6.473
 5523SOL    HW118576  10.629   2.482  -4.632
 5523SOL    HW218577  10.507   2.480   6.497
 5524SOL     OW18578   4.614   9.198   6.219
 5524SOL    HW118579  15.696   9.218  39.254
 5524SOL    HW218580   4.678   9.144  17.305
 5525SOL     OW18581   8.404   0.500   2.817
 5525SOL    HW118582   8.406   0.579   2.762
 5525SOL    HW218583   8.486   0.505   2.867
 5526SOL     OW18584  10.084   6.824   6.735
 5526SOL    HW118585   9.993   6.853   6.741
 5526SOL    HW218586  10.103   6.782   6.819
 5527SOL     OW18587   1.498   7.844   2.081
 5527SOL    HW118588  23.667   7.863   2.108
 5527SOL    HW218589   1.483   7.901 -20.074
 5528SOL     OW18590   9.456   4.488   0.559
 5528SOL    HW118591   9.403  -6.611   0.505
 5528SOL    HW218592   9.501   4.544   0.495
 5529SOL     OW18593   1.513   4.238  11.299
 5529SOL    HW118594  12.565   4.221   0.166
 5529SOL    HW218595   1.455  26.393  11.302
 5530SOL     OW18596  -0.100   6.978   5.049
 5530SOL    HW118597  21.918   6.905   5.036
 5530SOL    HW218598  21.959   7.038   4.977
 5531SOL     OW18599   7.038   5.401   4.231
 5531SOL    HW118600   6.974   5.384   4.301
 5531SOL    HW218601   7.115   5.433   4.277
 5532SOL     OW18602   3.536   3.994   9.618
 5532SOL    HW118603   3.578   3.982   9.533
 5532SOL    HW218604  25.671   3.947   9.680
 5533SOL     OW18605   9.538   2.620   5.170
 5533SOL    HW118606   9.557   2.530   5.143
 5533SOL    HW218607  20.572  -8.424 -16.814
 5534SOL     OW18608   0.691  12.415   8.396
 5534SOL    HW118609   0.729   1.309   8.340
 5534SOL    HW218610   0.740  -9.671   8.479
 5535SOL     OW18611  10.196   7.355   6.387
 5535SOL    HW118612  10.208   7.380  17.518
 5535SOL    HW218613  10.230  18.305   6.382
 5536SOL     OW18614   4.334   4.931   5.773
 5536SOL    HW118615   4.336  27.001   5.678
 5536SOL    HW218616   4.249   4.898  16.839
 5537SOL     OW18617   4.551   0.444   8.532
 5537SOL    HW118618   4.458   0.458   8.548
 5537SOL    HW218619   4.558   0.437   8.437
 5538SOL     OW18620   9.193   1.807   1.933
 5538SOL    HW118621   9.222   1.777  -9.020
 5538SOL    HW218622   9.246  23.964  -9.124
 5539SOL     OW18623   4.262  11.017   1.222
 5539SOL    HW118624   4.299  10.965   1.150
 5539SOL    HW218625   4.208  10.954   1.270
 5540SOL     OW18626   2.812   5.287   8.983
 5540SOL    HW118627  -8.183  27.282 -24.137
 5540SOL    HW218628 -19.269   5.315   8.891
 5541SOL     OW18629   6.491   7.281   5.783
 5541SOL    HW118630 -37.724   7.219  -5.303
 5541SOL    HW218631 -15.547   7.229   5.852
 5542SOL     OW18632   1.035   9.697   8.630
 5542SOL    HW118633   1.001   9.650   8.554
 5542SOL    HW218634  12.007   9.762   8.650
 5543SOL     OW18635   2.535  11.388   8.871
 5543SOL    HW118636   2.614   0.389   8.907
 5543SOL    HW218637   2.553 -10.785   8.873
 5544SOL     OW18638   2.573   1.435   6.311
 5544SOL    HW118639  -8.451  23.508   6.216
 5544SOL    HW218640   2.479  12.489   6.319
 5545SOL     OW18641   9.015   9.725   9.282
 5545SOL    HW118642   9.058   9.792   9.335
 5545SOL    HW218643   9.065   9.645   9.299
 5546SOL     OW18644   5.924   3.546   7.982
 5546SOL    HW118645   5.884   3.614   7.929
 5546SOL    HW218646   5.862   3.531   8.053
 5547SOL     OW18647   6.045   7.114   1.659
 5547SOL    HW118648  17.060   7.111   1.567
 5547SOL    HW218649   6.018  -4.011  12.734
 5548SOL     OW18650   9.340   8.697   8.344
 5548SOL    HW118651  20.400   8.614   8.387
 5548SOL    HW218652   9.302   8.752   8.412
 5549SOL     OW18653   4.053   1.855   5.903
 5549SOL    HW118654   4.014  -9.098   5.892
 5549SOL    HW218655 -18.100   1.795 -27.224
 5550SOL     OW18656   1.837   2.512   4.448
 5550SOL    HW118657  -9.121  13.598   4.430
 5550SOL    HW218658   1.768   2.577   4.433
 5551SOL     OW18659   4.236   1.402   3.040
 5551SOL    HW118660   4.293   1.335   3.001
 5551SOL    HW218661   4.164   1.410 -19.101
 5552SOL     OW18662   9.853   6.465   7.089
 5552SOL    HW118663   9.843   6.491  -4.042
 5552SOL    HW218664   9.948 -37.699   7.102
 5553SOL     OW18665   3.010   6.986  11.479
 5553SOL    HW118666   2.951   6.942  11.540
 5553SOL    HW218667   3.062  -3.995   0.495
 5554SOL     OW18668   6.034   7.431   7.917
 5554SOL    HW118669   5.946   7.465  -3.106
 5554SOL    HW218670  28.129   7.451  -3.215
 5555SOL     OW18671   5.305   5.021   8.119
 5555SOL    HW118672   5.285   5.114  -2.911
 5555SOL    HW218673   5.348   5.014   8.034
 5556SOL     OW18674   3.093  -0.589   9.935
 5556SOL    HW118675  -8.000  10.371   9.929
 5556SOL    HW218676   3.050  -0.526  20.917
 5557SOL     OW18677   2.028   1.086   1.297
 5557SOL    HW118678  13.081   0.998   1.262
 5557SOL    HW218679   2.114  12.168   1.289
 5558SOL     OW18680  10.931   3.670   6.356
 5558SOL    HW118681  10.955  -7.384  -4.592
 5558SOL    HW218682  -0.043   3.622   6.306
 5559SOL     OW18683   5.888   5.280   9.665
 5559SOL    HW118684   5.862   5.198   9.705
 5559SOL    HW218685   5.889  16.301   9.571
 5560SOL     OW18686   8.328   0.911   4.005
 5560SOL    HW118687   8.299   1.001   3.992
 5560SOL    HW218688   8.354   0.881  -7.122
 5561SOL     OW18689   6.231   0.573  11.354
 5561SOL    HW118690  17.297   0.536  11.270
 5561SOL    HW218691  28.393   0.589   0.361
 5562SOL     OW18692   0.516   1.459  10.348
 5562SOL    HW118693  11.573   1.434  10.439
 5562SOL    HW218694  22.670   1.423  10.299
 5563SOL     OW18695   4.052   1.139   6.350
 5563SOL    HW118696   4.082  12.103   6.300
 5563SOL    HW218697  -6.965   1.214   6.295
 5564SOL     OW18698   0.853   5.862   0.118
 5564SOL    HW118699   0.818   5.777   0.145
 5564SOL    HW218700  11.939  -5.145   0.195
 5565SOL     OW18701   4.448   7.975   2.543
 5565SOL    HW118702   4.514   7.948   2.479
 5565SOL    HW218703  15.490  19.110   2.542
 5566SOL     OW18704   4.022   1.592   0.229
 5566SOL    HW118705   4.089   1.655   0.202
 5566SOL    HW218706   3.977   1.569   0.148
 5567SOL     OW18707   7.438   1.890   7.743
 5567SOL    HW118708   7.454   1.984   7.752
 5567SOL    HW218709   7.392   1.866  -3.216
 5568SOL     OW18710   4.698  10.917   5.481
 5568SOL    HW118711  -6.360  -0.029   5.485
 5568SOL    HW218712   4.614  10.877   5.456
 5569SOL     OW18713   6.055   6.077   5.454
 5569SOL    HW118714   6.012 -16.049   5.526
 5569SOL    HW218715  17.186  28.163  16.521
 5570SOL     OW18716   7.119   8.720   5.617
 5570SOL    HW118717  -3.889   8.807   5.594
 5570SOL    HW218718   7.188   8.660  -5.451
 5571SOL     OW18719   6.742  -0.168  10.417
 5571SOL    HW118720   6.711  21.865  10.495
 5571SOL    HW218721  -4.208  10.841  21.445
 5572SOL     OW18722  10.593   2.544   3.051
 5572SOL    HW118723  10.499   2.561 -30.058
 5572SOL    HW218724  10.624   2.615   2.996
 5573SOL     OW18725   7.348  10.214   0.813
 5573SOL    HW118726   7.277  -0.868   0.764
 5573SOL    HW218727   7.394  10.268   0.748
 5574SOL     OW18728   0.929   9.266   8.610
 5574SOL    HW118729   0.930  -1.723   8.691
 5574SOL    HW218730   0.850   9.295  30.643
 5575SOL     OW18731   7.817   5.600   2.521
 5575SOL    HW118732   7.881  -5.385 -30.644
 5575SOL    HW218733  -3.266  -5.490   2.452
 5576SOL     OW18734   7.677   4.074  10.831
 5576SOL    HW118735  18.633   4.054  10.874
 5576SOL    HW218736   7.736   4.004  10.859
 5577SOL     OW18737   0.329   6.792   6.714
 5577SOL    HW118738   0.365   6.797  17.842
 5577SOL    HW218739   0.334   6.882   6.681
 5578SOL     OW18740   6.010   5.588   5.640
 5578SOL    HW118741   6.058   5.578   5.558
 5578SOL    HW218742   6.002   5.683  27.731
 5579SOL     OW18743   9.337   7.113  -1.352
 5579SOL    HW118744  -1.614  -3.946   9.658
 5579SOL    HW218745 -12.778   7.029  31.794
 5580SOL     OW18746   1.933   8.636   0.166
 5580SOL    HW118747   1.908   8.704   0.228
 5580SOL    HW218748   1.858   8.628   0.107
 5581SOL     OW18749   4.828   1.009   1.707
 5581SOL    HW118750   4.877  23.096  34.908
 5581SOL    HW218751   4.854   0.925  23.750
 5582SOL     OW18752   9.516   9.875   0.898
 5582SOL    HW118753  20.525   9.850   0.985
 5582SOL    HW218754  20.644 -12.239   0.893
 5583SOL     OW18755  10.838   3.987   1.753
 5583SOL    HW118756  10.857   3.914  12.852
 5583SOL    HW218757  10.759 -18.052   1.789
 5584SOL     OW18758   7.351   1.412   0.814
 5584SOL    HW118759   7.337   1.506   0.828
 5584SOL    HW218760  -3.774   1.372  11.874
 5585SOL     OW18761   1.690   0.150   5.070
 5585SOL    HW118762   1.656  33.341   5.123
 5585SOL    HW218763  -9.340   0.187  16.022
 5586SOL     OW18764   4.353   1.021   9.876
 5586SOL    HW118765 -17.774  34.058   9.862
 5586SOL    HW218766   4.287   1.081  20.952
 5587SOL     OW18767   6.628   4.354   9.085
 5587SOL    HW118768  -4.465   4.347   9.005
 5587SOL    HW218769   6.636   4.448  -1.939
 5588SOL     OW18770   9.617   5.838   8.039
 5588SOL    HW118771   9.702   5.882 -14.039
 5588SOL    HW218772  -1.484  16.945   8.068
 5589SOL     OW18773   6.832  10.189   1.651
 5589SOL    HW118774   6.837  10.110   1.704
 5589SOL    HW218775   6.740  10.193   1.624
 5590SOL     OW18776   3.723   1.032  10.040
 5590SOL    HW118777 -18.296   1.081  10.096
 5590SOL    HW218778  14.683  12.062  10.092
 5591SOL     OW18779   9.243   5.116  11.016
 5591SOL    HW118780   9.150  -5.944  11.030
 5591SOL    HW218781   9.286   5.086   0.056
 5592SOL     OW18782  10.615   9.789  -1.088
 5592SOL    HW118783  -0.330   9.796  20.983
 5592SOL    HW218784  10.589   9.864  -1.035
 5593SOL     OW18785   5.291   8.091   2.112
 5593SOL    HW118786   5.357   8.103 -20.035
 5593SOL    HW218787   5.213  19.174   2.076
 5594SOL     OW18788   3.993   6.894   1.251
 5594SOL    HW118789 -18.152   6.937   1.196
 5594SOL    HW218790 -18.029 -15.230   1.189
 5595SOL     OW18791  -0.080   5.421   4.123
 5595SOL    HW118792  33.075   5.406   4.036
 5595SOL    HW218793 -22.204   5.339  26.224
 5596SOL     OW18794   7.566   3.916   3.207
 5596SOL    HW118795   7.603   3.996   3.244
 5596SOL    HW218796   7.558   3.856  36.400
 5597SOL     OW18797   7.468   7.762  10.069
 5597SOL    HW118798  -3.576  -3.245  -1.060
 5597SOL    HW218799  -3.662   7.739  10.091
 5598SOL     OW18800  11.226   1.770   7.802
 5598SOL    HW118801  11.136  -9.263   7.768
 5598SOL    HW218802   0.187   1.688  29.930
 5599SOL     OW18803   3.512   2.803   0.224
 5599SOL    HW118804   3.601   2.779   0.248
 5599SOL    HW218805   3.509  24.978   0.234
 5600SOL     OW18806   6.461   0.686  10.643
 5600SOL    HW118807   6.519   0.652  -0.465
 5600SOL    HW218808   6.521   0.720 -11.369
 5601SOL     OW18809   7.297   4.943   1.946
 5601SOL    HW118810  29.413  15.968   1.859
 5601SOL    HW218811   7.286   4.856   1.983
 5602SOL     OW18812   3.230   2.598   2.999
 5602SOL    HW118813   3.203 -19.502   2.910
 5602SOL    HW218814   3.273 -19.396   2.991
 5603SOL     OW18815   5.159   7.951   1.444
 5603SOL    HW118816   5.160   7.896   1.522
 5603SOL    HW218817   5.076  41.049   1.401
 5604SOL     OW18818  10.066   0.656   7.832
 5604SOL    HW118819  10.022   0.588   7.781
 5604SOL    HW218820  10.113   0.608  18.940
 5605SOL     OW18821   2.959  10.012  -1.421
 5605SOL    HW118822   2.936  10.067  20.584
 5605SOL    HW218823   2.878  10.006   9.669
 5606SOL     OW18824   7.424   4.195   7.984
 5606SOL    HW118825  18.530   4.219   7.920
 5606SOL    HW218826  18.499   4.117   8.028
 5607SOL     OW18827  10.975  -0.547   3.135
 5607SOL    HW118828  11.021  10.409   3.137
 5607SOL    HW218829  10.912  -0.553   3.206
 5608SOL     OW18830   6.722   8.277   2.869
 5608SOL    HW118831   6.741   8.185   2.848
 5608SOL    HW218832  17.787   8.286   2.961
 5609SOL     OW18833   9.447   1.599   0.767
 5609SOL    HW118834   9.515   1.622   0.830
 5609SOL    HW218835   9.484  12.664  11.721
 5610SOL     OW18836   1.915   8.982   4.608
 5610SOL    HW118837   1.913   8.886   4.608
 5610SOL    HW218838  -9.121   9.006   4.700
 5611SOL     OW18839   7.117   0.416   9.792
 5611SOL    HW118840   7.077   0.496   9.827
 5611SOL    HW218841  29.193   0.354   9.865
 5612SOL     OW18842   5.856   3.429   2.487
 5612SOL    HW118843   5.793 -18.719   2.509
 5612SOL    HW218844   5.938  14.423   2.472
 5613SOL     OW18845   3.058   4.032   7.831
 5613SOL    HW118846   3.037   3.942  18.896
 5613SOL    HW218847   3.058  15.120   7.913
 5614SOL     OW18848   8.814   1.559   3.622
 5614SOL    HW118849   8.910   1.569  -7.421
 5614SOL    HW218850  -2.259   1.645   3.599
 5615SOL     OW18851   8.904   4.236   2.008
 5615SOL    HW118852  19.849   4.238   1.994
 5615SOL    HW218853   8.916 -17.897   2.086
 5616SOL     OW18854   7.035   6.862   4.429
 5616SOL    HW118855   6.965  17.910  15.533
 5616SOL    HW218856   7.035   6.769  37.525
 5617SOL     OW18857   2.936   6.956   3.072
 5617SOL    HW118858   3.004   6.982   3.010
 5617SOL    HW218859   2.854   6.982 -19.049
 5618SOL     OW18860   3.842  10.184   7.405
 5618SOL    HW118861   3.817  10.246  18.376
 5618SOL    HW218862   3.937  10.191   7.409
 5619SOL     OW18863   1.835   6.505   1.378
 5619SOL    HW118864 -20.241   6.552  12.501
 5619SOL    HW218865  12.898   6.415   1.400
 5620SOL     OW18866   1.470   0.483   5.319
 5620SOL    HW118867   1.450   0.449  -5.807
 5620SOL    HW218868   1.521   0.414   5.361
 5621SOL     OW18869   5.111   7.155   6.130
 5621SOL    HW118870   5.096   7.250  -4.907
 5621SOL    HW218871   5.124   7.135   6.038
 5622SOL     OW18872   3.146   5.535  11.274
 5622SOL    HW118873  -7.847  16.643  11.226
 5622SOL    HW218874   3.132  -5.573   0.170
 5623SOL     OW18875   2.083   2.643   4.384
 5623SOL    HW118876   2.125   2.698   4.317
 5623SOL    HW218877   2.155   2.602   4.430
 5624SOL     OW18878   9.541   5.173   1.686
 5624SOL    HW118879  20.618   5.114 -20.328
 5624SOL    HW218880   9.527   5.255   1.733
 5625SOL     OW18881   3.830   2.076   3.823
 5625SOL    HW118882   3.840  13.153   3.736
 5625SOL    HW218883   3.736   2.062   3.833
 5626SOL     OW18884   3.931   9.749   1.333
 5626SOL    HW118885   3.893  -1.376   1.311
 5626SOL    HW218886   3.962  -1.301   1.423
 5627SOL     OW18887   7.650   0.634   6.997
 5627SOL    HW118888 -25.557  11.701   7.021
 5627SOL    HW218889   7.638   0.579  17.959
 5628SOL     OW18890   6.958   3.100  10.022
 5628SOL    HW118891   6.999  -7.866  -1.064
 5628SOL    HW218892  18.068   3.062 -12.006
 5629SOL     OW18893   0.734   9.014   3.321
 5629SOL    HW118894  11.738   9.103   3.323
 5629SOL    HW218895  11.864  -2.014   3.294
 5630SOL     OW18896   4.242   4.019   4.322
 5630SOL    HW118897  -6.735   3.952   4.350
 5630SOL    HW218898   4.233   4.077   4.398
 5631SOL     OW18899   7.667   7.714   1.233
 5631SOL    HW118900   7.731  -3.272   1.279
 5631SOL    HW218901   7.717   7.641   1.198
 5632SOL     OW18902   8.674   7.711   7.212
 5632SOL    HW118903   8.720   7.748   7.287
 5632SOL    HW218904  30.822   7.670   7.160
 5633SOL     OW18905   9.049   7.834   9.825
 5633SOL    HW118906  -2.018   7.925   9.837
 5633SOL    HW218907  31.198  -3.217   9.889
 5634SOL     OW18908   5.933   0.609  10.592
 5634SOL    HW118909  39.139   0.632  10.624
 5634SOL    HW218910  27.979   0.545  10.656
 5635SOL     OW18911   8.224   5.179  10.707
 5635SOL    HW118912 -13.841   5.085  10.720
 5635SOL    HW218913   8.307   5.210  10.671
 5636SOL     OW18914   5.613   7.494   9.249
 5636SOL    HW118915   5.700   7.488   9.209
 5636SOL    HW218916  27.671   7.405  -1.763
 5637SOL     OW18917   8.640  10.940   6.197
 5637SOL    HW118918   8.559  10.949   6.246
 5637SOL    HW218919  30.729  11.023   6.150
 5638SOL     OW18920   7.352   3.894   1.836
 5638SOL    HW118921  -3.600   3.896   1.875
 5638SOL    HW218922   7.366   3.866   1.746
 5639SOL     OW18923   4.983   1.351   4.992
 5639SOL    HW118924   5.005  -9.781   4.982
 5639SOL    HW218925  16.005   1.362  16.125
 5640SOL     OW18926   3.613   5.588   9.976
 5640SOL    HW118927   3.632   5.503 -12.143
 5640SOL    HW218928  -7.468   5.566  10.059
 5641SOL     OW18929   8.916   9.291   1.433
 5641SOL    HW118930 -13.129  20.353   1.346
 5641SOL    HW218931  -2.059   9.230   1.469
 5642SOL     OW18932   2.486  11.629   5.847
 5642SOL    HW118933   2.434   0.510   5.835
 5642SOL    HW218934   2.543 -21.486  27.849
 5643SOL     OW18935   5.332  10.725   5.410
 5643SOL    HW118936   5.391  32.734   5.384
 5643SOL    HW218937   5.338 -22.390   5.505
 5644SOL     OW18938   1.055  10.666   1.084
 5644SOL    HW118939   1.076  10.652  12.032
 5644SOL    HW218940   0.987  10.734   1.083
 5645SOL     OW18941   6.797   1.809   0.482
 5645SOL    HW118942  -4.221   1.740   0.545
 5645SOL    HW218943   6.847   1.787   0.404
 5646SOL     OW18944   3.590   2.486   4.568
 5646SOL    HW118945   3.577   2.511   4.476
 5646SOL    HW218946   3.502   2.468   4.600
 5647SOL     OW18947   6.145   7.523   5.942
 5647SOL    HW118948   6.131   7.485   6.029
 5647SOL    HW218949 -27.042   7.483   5.888
 5648SOL     OW18950   8.820  11.600   9.681
 5648SOL    HW118951   8.860 -10.500   9.766
 5648SOL    HW218952  19.825  11.688   9.692
 5649SOL     OW18953   6.981   8.002   8.045
 5649SOL    HW118954   6.957  -2.963   7.991
 5649SOL    HW218955  28.977   7.967 -14.002
 5650SOL     OW18956   5.281   9.230   1.900
 5650SOL    HW118957   5.310  20.205   1.964
 5650SOL    HW218958  -5.833  -1.766   1.941
 5651SOL     OW18959   6.319   3.869   7.086
 5651SOL    HW118960   6.331  26.037   7.053
 5651SOL    HW218961   6.227   3.849   7.068
 5652SOL     OW18962   8.169   5.292   3.746
 5652SOL    HW118963   8.132   5.222   3.799
 5652SOL    HW218964  -2.778   5.270 -18.341
 5653SOL     OW18965   8.230   2.142   7.062
 5653SOL    HW118966   8.136   2.145   7.043
 5653SOL    HW218967   8.240   2.194  -3.898
 5654SOL     OW18968   8.699   6.535   7.092
 5654SOL    HW118969   8.762   6.538 -14.916
 5654SOL    HW218970  30.726  28.536   7.110
 5655SOL     OW18971   5.894   9.582   0.595
 5655SOL    HW118972   5.961   9.555   0.531
 5655SOL    HW218973  -5.219   9.523   0.579
 5656SOL     OW18974   2.451   9.690   1.577
 5656SOL    HW118975 -19.673   9.771  12.644
 5656SOL    HW218976   2.384  -1.418   1.587
 5657SOL     OW18977   8.666   5.902   4.026
 5657SOL    HW118978   8.596   5.854   4.071
 5657SOL    HW218979   8.693   5.844   3.955
 5658SOL     OW18980   8.864   1.096   1.827
 5658SOL    HW118981   8.777   1.131 -20.270
 5658SOL    HW218982   8.904   1.162   1.885
 5659SOL     OW18983   0.795   5.854  10.604
 5659SOL    HW118984 -10.268   5.924  10.543
 5659SOL    HW218985   0.863   5.892 -11.420
 5660SOL     OW18986   9.635   8.654   4.383
 5660SOL    HW118987   9.707 -24.502  -6.709
 5660SOL    HW218988  20.716   8.682  -6.575
 5661SOL     OW18989   2.729   2.543   6.971
 5661SOL    HW118990   2.793   2.557   6.902
 5661SOL    HW218991   2.644   2.552  -4.111
 5662SOL     OW18992   3.889   1.803   7.503
 5662SOL    HW118993   3.796  -9.251  18.525
 5662SOL    HW218994   3.917   1.866   7.436
 5663SOL     OW18995   8.100  11.010  10.197
 5663SOL    HW118996   8.036  10.993 -11.813
 5663SOL    HW218997 -25.071   0.005  10.124
 5664SOL     OW18998   3.486  10.771   9.441
 5664SOL    HW118999   3.437  10.715   9.502
 5664SOL    HW219000   3.421  10.796   9.375
 5665SOL     OW19001   5.364   3.719   6.402
 5665SOL    HW119002   5.366  -7.248   6.340
 5665SOL    HW219003  27.350   3.695 -15.672
 5666SOL     OW19004   1.221   4.586   9.155
 5666SOL    HW119005   1.174   4.507   9.183
 5666SOL    HW219006   1.311   4.573   9.184
 5667SOL     OW19007  10.020   8.909   1.496
 5667SOL    HW119008  10.021   8.982   1.559
 5667SOL    HW219009   9.963   8.939   1.426
 5668SOL     OW19010   6.700   3.448  -1.554
 5668SOL    HW119011  17.690   3.470  31.486
 5668SOL    HW219012   6.695   3.528  -1.501
 5669SOL     OW19013   3.635   0.423   7.153
 5669SOL    HW119014   3.609   0.343   7.199
 5669SOL    HW219015   3.597   0.413  -3.974
 5670SOL     OW19016   5.029  10.017   8.654
 5670SOL    HW119017   5.082   9.952   8.608
 5670SOL    HW219018   4.940   9.983  -2.391
 5671SOL     OW19019  11.661  10.726   6.277
 5671SOL    HW119020 -10.366  10.705   6.355
 5671SOL    HW219021  11.582  -0.367  17.325
 5672SOL     OW19022   3.464   5.721   7.657
 5672SOL    HW119023   3.467   5.776   7.735
 5672SOL    HW219024   3.533   5.656   7.670
 5673SOL     OW19025   9.341   7.574   8.115
 5673SOL    HW119026   9.335   7.643   8.181
 5673SOL    HW219027   9.264   7.587   8.059
 5674SOL     OW19028   1.793   7.214   7.814
 5674SOL    HW119029   1.761  18.183  18.797
 5674SOL    HW219030   1.722  18.266   7.877
 5675SOL     OW19031   3.856   4.263   2.491
 5675SOL    HW119032   3.944   4.288  24.545
 5675SOL    HW219033   3.840   4.310  13.612
 5676SOL     OW19034   9.424   3.346   8.561
 5676SOL    HW119035   9.391   3.436  -2.485
 5676SOL    HW219036   9.351   3.297   8.599
 5677SOL     OW19037   2.317   6.176   2.200
 5677SOL    HW119038   2.347   6.258   2.238
 5677SOL    HW219039   2.233   6.158   2.242
 5678SOL     OW19040   5.900   0.551   5.854
 5678SOL    HW119041   5.825   0.610   5.852
 5678SOL    HW219042 -16.133   0.572  -5.104
 5679SOL     OW19043   3.020  10.526   8.210
 5679SOL    HW119044  25.106  10.477   8.292
 5679SOL    HW219045   3.031  10.617   8.236
 5680SOL     OW19046   1.182   1.351   5.037
 5680SOL    HW119047   1.243   1.295   4.989
 5680SOL    HW219048   1.226 -20.644   5.044
 5681SOL     OW19049   0.817   8.716   1.392
 5681SOL    HW119050   0.819   8.666   1.311
 5681SOL    HW219051   0.899  -2.275   1.393
 5682SOL     OW19052   0.547   0.508   3.497
 5682SOL    HW119053   0.608  11.616   3.525
 5682SOL    HW219054  22.555 -10.529   3.561
 5683SOL     OW19055  10.484   5.991  -0.525
 5683SOL    HW119056  10.478 -16.013  10.573
 5683SOL    HW219057  10.578  17.020  -0.540
 5684SOL     OW19058   4.913   9.363   7.860
 5684SOL    HW119059   4.949   9.276  -3.158
 5684SOL    HW219060   4.984   9.424  -3.159
 5685SOL     OW19061   6.181   8.760  10.640
 5685SOL    HW119062   6.199   8.801  10.724
 5685SOL    HW219063   6.258   8.780  10.586
 5686SOL     OW19064  10.311   9.813  10.151
 5686SOL    HW119065  10.335  20.935  10.109
 5686SOL    HW219066 -33.867   9.754  21.117
 5687SOL     OW19067   5.000   3.789   9.659
 5687SOL    HW119068   5.003  -7.263   9.564
 5687SOL    HW219069   5.066  -7.311   9.693
 5688SOL     OW19070   0.943   5.211   5.503
 5688SOL    HW119071   0.858  16.251   5.458
 5688SOL    HW219072   0.977   5.299   5.491
 5689SOL     OW19073   0.417   4.704   6.478
 5689SOL    HW119074   0.321   4.700  28.558
 5689SOL    HW219075   0.440  15.816   6.536
 5690SOL     OW19076   7.997   8.133   1.071
 5690SOL    HW119077  -3.042   8.039   1.089
 5690SOL    HW219078   7.919   8.147   1.018
 5691SOL     OW19079  13.220   3.581   4.542
 5691SOL    HW119080 -19.991   3.590   4.566
 5691SOL    HW219081   2.218   3.667   4.559
 5692SOL     OW19082   6.666   4.069   4.863
 5692SOL    HW119083  -4.305   4.079   4.929
 5692SOL    HW219084 -15.462   3.991  -6.149
 5693SOL     OW19085   8.530   3.250   5.835
 5693SOL    HW119086   8.481   3.176   5.798
 5693SOL    HW219087   8.618  25.294  -5.190
 5694SOL     OW19088   2.589   0.624   9.272
 5694SOL    HW119089 -19.467   0.540  20.272
 5694SOL    HW219090  -8.368  11.700 -12.776
 5695SOL     OW19091   0.670  11.792   9.622
 5695SOL    HW119092   0.728  11.722   9.592
 5695SOL    HW219093   0.678 -32.368   9.717
 5696SOL     OW19094   9.872   1.623   7.237
 5696SOL    HW119095   9.956   1.652   7.202
 5696SOL    HW219096  -1.156   1.530  -3.787
 5697SOL     OW19097   7.826   4.876   7.537
 5697SOL    HW119098  29.844 -17.144   7.582
 5697SOL    HW219099   7.888   4.935   7.494
 5698SOL     OW19100   5.357   2.880   7.756
 5698SOL    HW119101 -16.766  -8.212   7.688
 5698SOL    HW219102   5.366   2.967   7.716
 5699SOL     OW19103   7.309  10.010  10.175
 5699SOL    HW119104   7.302  10.082  10.112
 5699SOL    HW219105   7.296  20.971  10.123
 5700SOL     OW19106   1.273   8.023   8.289
 5700SOL    HW119107  -9.696   7.996   8.348
 5700SOL    HW219108   1.262   7.948   8.230
 5701SOL     OW19109   7.608   0.950   6.157
 5701SOL    HW119110  29.780   0.961  17.219
 5701SOL    HW219111  29.688   0.914   6.068
 5702SOL     OW19112  -0.052  11.600   4.418
 5702SOL    HW119113  11.075 -10.446  26.479
 5702SOL    HW219114  10.956 -10.510   4.332
 5703SOL     OW19115   7.790   2.349   6.356
 5703SOL    HW119116   7.857  13.435   6.305
 5703SOL    HW219117   7.831   2.333  -4.599
 5704SOL     OW19118   9.972   1.395   5.686
 5704SOL    HW119119  20.966  12.350   5.681
 5704SOL    HW219120   9.938   1.436   5.765
 5705SOL     OW19121   8.957   4.602   8.622
 5705SOL    HW119122   9.040  -6.434   8.669
 5705SOL    HW219123   8.981   4.568 -24.583
 5706SOL     OW19124   9.340   0.068   2.379
 5706SOL    HW119125  20.459  22.198   2.361
 5706SOL    HW219126   9.372  -0.010  -8.615
 5707SOL     OW19127   1.503   9.016   3.078
 5707SOL    HW119128   1.469  31.009  14.145
 5707SOL    HW219129   1.528   9.059  14.200
 5708SOL     OW19130   0.676   0.754  12.084
 5708SOL    HW119131   0.609   0.723  12.144
 5708SOL    HW219132  11.680   0.835 -21.072
 5709SOL     OW19133   9.419   7.805   5.849
 5709SOL    HW119134   9.401   7.899  16.885
 5709SOL    HW219135   9.511   7.797   5.823
 5710SOL     OW19136   5.996   6.468  10.860
 5710SOL    HW119137   6.011   6.423 -22.342
 5710SOL    HW219138   5.969   6.556  10.835
 5711SOL     OW19139   2.980   4.005   4.024
 5711SOL    HW119140   3.002   3.939   4.090
 5711SOL    HW219141   3.064   4.045 -18.078
 5712SOL     OW19142   4.215   4.275   8.298
 5712SOL    HW119143   4.187  -6.795   8.384
 5712SOL    HW219144   4.209   4.197 -13.837
 5713SOL     OW19145   0.122   4.483   6.643
 5713SOL    HW119146 -10.992  37.589   6.701
 5713SOL    HW219147  22.275   4.498 -15.378
 5714SOL     OW19148   9.636   5.498   1.040
 5714SOL    HW119149   9.558   5.445   1.034
 5714SOL    HW219150   9.639   5.527   1.132
 5715SOL     OW19151   2.342   3.749   1.696
 5715SOL    HW119152  -8.651   3.672   1.729
 5715SOL    HW219153  13.431   3.823   1.730
 5716SOL     OW19154   5.652   8.488   2.616
 5716SOL    HW119155   5.670   8.394  -8.415
 5716SOL    HW219156   5.625  -2.541  -8.514
 5717SOL     OW19157   8.403   6.759   5.934
 5717SOL    HW119158   8.497   6.749   5.920
 5717SOL    HW219159   8.369   6.784   5.849
 5718SOL     OW19160   2.522   8.440   1.870
 5718SOL    HW119161   2.489   8.350   1.872
 5718SOL    HW219162   2.458   8.487  12.855
 5719SOL     OW19163   4.917   9.067   1.190
 5719SOL    HW119164   4.967   9.128   1.244
 5719SOL    HW219165   4.909   8.988   1.245
 5720SOL     OW19166  -0.057   2.093   9.902
 5720SOL    HW119167  33.129   2.133  -1.193
 5720SOL    HW219168  -0.138   2.139   9.878
 5721SOL     OW19169   5.198  -0.854  13.036
 5721SOL    HW119170   5.229  -0.892   1.914
 5721SOL    HW219171  16.146  21.246 -20.099
 5722SOL     OW19172  -0.716  11.514   5.064
 5722SOL    HW119173  -0.794   0.531  16.108
 5722SOL    HW219174  21.359  11.473  38.096
 5723SOL     OW19175   7.871   0.747   9.897
 5723SOL    HW119176  -3.221   0.790   9.830
 5723SOL    HW219177   7.952   0.797   9.901
 5724SOL     OW19178   2.653   3.916   5.287
 5724SOL    HW119179  -8.322 -18.123  16.268
 5724SOL    HW219180   2.585  15.023   5.297
 5725SOL     OW19181  10.075   4.911   3.944
 5725SOL    HW119182  10.105 -17.210  -7.177
 5725SOL    HW219183  10.011   4.976   3.916
 5726SOL     OW19184   9.815   9.831   0.170
 5726SOL    HW119185  -1.214   9.917   0.210
 5726SOL    HW219186 -12.351   9.832   0.132
 5727SOL     OW19187   3.968   7.501   1.512
 5727SOL    HW119188  15.075  18.523   1.446
 5727SOL    HW219189   3.896   7.443  12.529
 5728SOL     OW19190   4.267   5.874   8.648
 5728SOL    HW119191  -6.863   5.904   8.651
 5728SOL    HW219192   4.264   5.792  -2.441
 5729SOL     OW19193  10.858   1.419  10.745
 5729SOL    HW119194  10.922  23.441  10.787
 5729SOL    HW219195 -11.169   1.486  10.701
 5730SOL     OW19196   9.536   9.129   2.790
 5730SOL    HW119197   9.489   9.210  13.850
 5730SOL    HW219198  20.508  20.107   2.763
 5731SOL     OW19199   7.968   5.552   8.969
 5731SOL    HW119200  18.925  -5.475   9.015
 5731SOL    HW219201 -14.104   5.627   8.911
 5732SOL     OW19202   2.982  10.224   4.531
 5732SOL    HW119203  25.065  10.302   4.587
 5732SOL    HW219204  14.090  10.239   4.466
 5733SOL     OW19205  10.223   7.427   1.420
 5733SOL    HW119206  21.333   7.487   1.446
 5733SOL    HW219207  10.162  -3.612   1.494
 5734SOL     OW19208   5.647   7.706  -0.087
 5734SOL    HW119209   5.560   7.686  10.988
 5734SOL    HW219210   5.665  -3.245  -0.054
 5735SOL     OW19211   1.151   0.646   3.784
 5735SOL    HW119212  12.273 -10.382  -7.303
 5735SOL    HW219213   1.100   0.585   3.730
 5736SOL     OW19214   6.117   4.923   8.020
 5736SOL    HW119215   6.158  37.978  30.039
 5736SOL    HW219216   6.044   4.875   8.058
 5737SOL     OW19217   7.875   9.330   1.362
 5737SOL    HW119218 -25.175  -1.649   1.391
 5737SOL    HW219219   7.843  -1.672  34.399
 5738SOL     OW19220   4.673  10.331   1.828
 5738SOL    HW119221  26.695  10.324   1.751
 5738SOL    HW219222   4.642 -11.817   1.887
 5739SOL     OW19223   3.819  10.226   6.495
 5739SOL    HW119224   3.771  10.224   6.578
 5739SOL    HW219225   3.869  10.307   6.498
 5740SOL     OW19226   9.718   6.672   3.999
 5740SOL    HW119227  -1.289   6.722   4.074
 5740SOL    HW219228   9.692  -4.452   4.035
 5741SOL     OW19229   6.724   2.192   5.019
 5741SOL    HW119230   6.796  -8.848   5.082
 5741SOL    HW219231  -4.276  -8.822   4.936
 5742SOL     OW19232   3.058   5.118   4.517
 5742SOL    HW119233   2.992  16.132   4.452
 5742SOL    HW219234  14.139   5.035   4.542
 5743SOL     OW19235   8.059   8.131   4.588
 5743SOL    HW119236   8.154 -13.943  15.634
 5743SOL    HW219237  -3.008   8.217   4.557
 5744SOL     OW19238   3.308   6.645   2.279
 5744SOL    HW119239   3.239  17.711   2.218
 5744SOL    HW219240   3.298  39.669  13.326
 5745SOL     OW19241   5.007   3.130   3.605
 5745SOL    HW119242  -6.075  -7.825  -7.420
 5745SOL    HW219243   5.015   3.093   3.693
 5746SOL     OW19244   7.733   7.383   3.192
 5746SOL    HW119245   7.763  -3.738  -7.808
 5746SOL    HW219246   7.649   7.360   3.151
 5747SOL     OW19247   8.185   3.142   6.444
 5747SOL    HW119248  30.192   3.185   6.399
 5747SOL    HW219249 -13.903  -7.872   6.535
 5748SOL     OW19250   5.691   3.502   4.680
 5748SOL    HW119251   5.648   3.421  -6.334
 5748SOL    HW219252   5.761   3.514 -28.374
 5749SOL     OW19253   9.286   1.288   5.972
 5749SOL    HW119254   9.231   1.210   5.981
 5749SOL    HW219255   9.367   1.266  17.059
 5750SOL     OW19256   6.672   8.309   9.267
 5750SOL    HW119257   6.592   8.355   9.241
 5750SOL    HW219258 -15.339 -35.781 -23.853
 5751SOL     OW19259   7.058   7.611   8.517
 5751SOL    HW119260   7.062  18.741   8.549
 5751SOL    HW219261   7.033   7.619   8.425
 5752SOL     OW19262   5.525   8.914   9.353
 5752SOL    HW119263   5.483   8.977   9.411
 5752SOL    HW219264  -5.452   8.868   9.409
 5753SOL     OW19265   9.108  10.400   7.449
 5753SOL    HW119266  -1.966  10.435   7.366
 5753SOL    HW219267   9.108  -0.735   7.436
 5754SOL     OW19268   6.775   5.237   3.484
 5754SOL    HW119269 -15.231   5.221  14.464
 5754SOL    HW219270  -4.324   5.164   3.470
 5755SOL     OW19271   8.364   5.753   3.675
 5755SOL    HW119272   8.286   5.797   3.639
 5755SOL    HW219273 -35.746   5.724   3.598
 5756SOL     OW19274   2.857   9.462   3.718
 5756SOL    HW119275   2.938   9.507   3.692
 5756SOL    HW219276  13.826   9.521   3.689
 5757SOL     OW19277   7.186   7.839   2.088
 5757SOL    HW119278   7.204   7.756   2.043
 5757SOL    HW219279   7.264 -25.227   2.074
 5758SOL     OW19280   1.691   1.529   6.964
 5758SOL    HW119281  12.736   1.482  18.087
 5758SOL    HW219282   1.651   1.613  18.026
 5759SOL     OW19283   7.664   2.575   8.520
 5759SOL    HW119284  18.713   2.536   8.608
 5759SOL    HW219285   7.622   2.506   8.468
 5760SOL     OW19286   2.343   0.982   7.207
 5760SOL    HW119287 -19.774  45.074   7.266
 5760SOL    HW219288   2.364   0.934   7.127
 5761SOL     OW19289   2.272   0.104   3.636
 5761SOL    HW119290   2.209   0.108  14.604
 5761SOL    HW219291   2.220  11.113  -7.328
 5762SOL     OW19292  10.681   7.814   6.259
 5762SOL    HW119293  -0.292   7.847   6.199
 5762SOL    HW219294 -11.430   7.734   6.216
 5763SOL     OW19295   0.042   7.733   8.917
 5763SOL    HW119296   0.107   7.802  19.968
 5763SOL    HW219297   0.023   7.734  19.862
 5764SOL     OW19298   1.914  13.860   9.380
 5764SOL    HW119299  -9.051  -8.159   9.385
 5764SOL    HW219300   1.930 -30.362  31.527
 5765SOL     OW19301   8.881   6.948   1.425
 5765SOL    HW119302   8.822   6.954 -20.729
 5765SOL    HW219303  19.929  -4.185   1.441
 5766SOL     OW19304   8.446   2.913   4.196
 5766SOL    HW119305   8.529 -19.123  15.258
 5766SOL    HW219306   8.471   2.846   4.132
 5767SOL     OW19307  12.221   1.114   6.928
 5767SOL    HW119308  -9.915  34.160   6.956
 5767SOL    HW219309  12.299   1.071   6.894
 5768SOL     OW19310   3.139   5.440   7.828
 5768SOL    HW119311   3.212   5.381   7.811
 5768SOL    HW219312   3.078  16.427   7.881
 5769SOL     OW19313   1.686   9.684   1.985
 5769SOL    HW119314   1.655   9.690   1.895
 5769SOL    HW219315  -9.382   9.765   2.027
 5770SOL     OW19316   4.607  -0.235   3.112
 5770SOL    HW119317   4.685  -0.182  25.177
 5770SOL    HW219318 -28.564  10.818   3.033
 5771SOL     OW19319  10.498   7.553  10.010
 5771SOL    HW119320  -0.592   7.477  -1.001
 5771SOL    HW219321 -11.623  29.659  20.968
 5772SOL     OW19322  -0.780   1.867   3.497
 5772SOL    HW119323  10.331   1.886 -18.521
 5772SOL    HW219324  10.303  12.878   3.417
 5773SOL     OW19325   6.926   2.653   6.326
 5773SOL    HW119326  17.914   2.648  17.446
 5773SOL    HW219327  -4.037   2.706 -15.729
 5774SOL     OW19328   5.651  10.080  10.531
 5774SOL    HW119329   5.742  10.092  10.559
 5774SOL    HW219330   5.655 -12.072  -0.571
 5775SOL     OW19331   5.000   6.586  13.339
 5775SOL    HW119332   5.012  17.669 -30.904
 5775SOL    HW219333   4.951   6.507  13.320
 5776SOL     OW19334   8.109   9.011   2.970
 5776SOL    HW119335  19.194  19.968   2.955
 5776SOL    HW219336   8.153   9.073   2.911
 5777SOL     OW19337   4.558   1.612   1.477
 5777SOL    HW119338 -17.612   1.605   1.505
 5777SOL    HW219339   4.603   1.654   1.550
 5778SOL     OW19340   9.564   3.000  10.342
 5778SOL    HW119341   9.590  13.957  10.303
 5778SOL    HW219342   9.646  36.169  10.350
 5779SOL     OW19343  10.366  -0.305   2.428
 5779SOL    HW119344  10.446  10.741   2.481
 5779SOL    HW219345  10.385  -0.373  -8.676
 5780SOL     OW19346  11.581   6.028   3.721
 5780SOL    HW119347  11.535   6.088   3.781
 5780SOL    HW219348   0.629   6.020  -7.281
 5781SOL     OW19349   9.841   9.815   1.267
 5781SOL    HW119350  -1.257  20.793   1.311
 5781SOL    HW219351   9.782   9.878 -20.855
 5782SOL     OW19352   1.912   9.465  10.994
 5782SOL    HW119353  13.034   9.476  10.945
 5782SOL    HW219354   1.846   9.503  10.936
 5783SOL     OW19355  10.499   4.777   4.656
 5783SOL    HW119356  10.591   4.765  15.673
 5783SOL    HW219357  10.452   4.717   4.599
 5784SOL     OW19358   7.237   0.563  12.316
 5784SOL    HW119359 -14.785   0.486 -31.842
 5784SOL    HW219360   7.182   0.552  12.393
 5785SOL     OW19361   1.786   0.523   4.818
 5785SOL    HW119362  23.822  22.570   4.739
 5785SOL    HW219363  23.880   0.616 -28.317
 5786SOL     OW19364   1.360   8.530   0.905
 5786SOL    HW119365  -9.739   8.511   0.978
 5786SOL    HW219366   1.385   8.621   0.918
 5787SOL     OW19367   3.009  10.029   3.011
 5787SOL    HW119368   3.032  21.161   3.023
 5787SOL    HW219369   2.923  10.020   3.052
 5788SOL     OW19370   9.090   4.339   1.613
 5788SOL    HW119371   9.139  15.455   1.643
 5788SOL    HW219372  -2.022   4.375 -20.518
 5789SOL     OW19373   4.461   2.175   4.448
 5789SOL    HW119374   4.445   2.086   4.477
 5789SOL    HW219375   4.479   2.224   4.529
 5790SOL     OW19376   6.322   3.591   3.593
 5790SOL    HW119377   6.320   3.512   3.646
 5790SOL    HW219378  -4.625  14.643 -18.508
 5791SOL     OW19379   1.732   5.366   5.875
 5791SOL    HW119380  12.863  -5.702   5.879
 5791SOL    HW219381  12.760   5.421 -27.167
 5792SOL     OW19382   9.544   8.095   4.728
 5792SOL    HW119383   9.635   8.095  -6.280
 5792SOL    HW219384   9.544   8.035   4.654
 5793SOL     OW19385   9.166   2.565   5.011
 5793SOL    HW119386   9.080  -8.489   5.049
 5793SOL    HW219387   9.159   2.535   4.921
 5794SOL     OW19388   2.401   5.461   7.290
 5794SOL    HW119389   2.325   5.413  -3.716
 5794SOL    HW219390   2.475  16.443  18.349
 5795SOL     OW19391  10.036   1.132   5.184
 5795SOL    HW119392  10.113   1.180   5.152
 5795SOL    HW219393  -1.076  34.312   5.172
 5796SOL     OW19394   3.498   1.763   4.315
 5796SOL    HW119395   3.568   1.700  48.456
 5796SOL    HW219396   3.519   1.799  26.481
 5797SOL     OW19397   2.477   0.258  -0.339
 5797SOL    HW119398   2.553   0.203  21.758
 5797SOL    HW219399   2.446   0.285  -0.252
 5798SOL     OW19400   3.119  10.973   0.616
 5798SOL    HW119401   3.048  10.919   0.651
 5798SOL    HW219402  25.235  11.017   0.693
 5799SOL     OW19403   2.856   9.528  -1.636
 5799SOL    HW119404 -30.273   9.621   9.421
 5799SOL    HW219405  -8.207   9.485  31.565
 5800SOL     OW19406   7.105   7.183  10.275
 5800SOL    HW119407   7.088   7.230  -0.683
 5800SOL    HW219408   7.059   7.099  10.287
 5801SOL     OW19409   0.186   4.505   2.892
 5801SOL    HW119410   0.199  15.633   2.927
 5801SOL    HW219411   0.129   4.517   2.816
 5802SOL     OW19412   0.455   4.999   2.770
 5802SOL    HW119413   0.519  49.204   2.716
 5802SOL    HW219414   0.464   4.907   2.744
 5803SOL     OW19415   9.900   2.416   6.821
 5803SOL    HW119416   9.951  -8.702   6.839
 5803SOL    HW219417 -12.233   2.392   6.745
 5804SOL     OW19418   2.312   8.848  13.905
 5804SOL    HW119419   2.367   8.771 -19.199
 5804SOL    HW219420   2.371   8.912  -8.214
 5805SOL     OW19421   4.135   9.447   6.522
 5805SOL    HW119422   4.218   9.470   6.563
 5805SOL    HW219423   4.073   9.441   6.594
 5806SOL     OW19424   4.442   5.747   3.105
 5806SOL    HW119425  26.482   5.660   3.108
 5806SOL    HW219426  15.576  -5.307  14.147
 5807SOL     OW19427  11.226   7.559  11.203
 5807SOL    HW119428   0.215  -3.507  11.291
 5807SOL    HW219429   0.113   7.618   0.179
 5808SOL     OW19430   8.473   2.610   8.425
 5808SOL    HW119431 -24.658   2.693   8.379
 5808SOL    HW219432   8.506   2.549  -2.681
 5809SOL     OW19433  -1.176   3.908   7.020
 5809SOL    HW119434  -1.106  14.968   6.959
 5809SOL    HW219435  20.947  14.904   7.094
 5810SOL     OW19436   3.899   7.618   2.893
 5810SOL    HW119437   3.828   7.557   2.916
 5810SOL    HW219438   3.954  18.608  13.871
 5811SOL     OW19439   1.026   3.352   5.186
 5811SOL    HW119440   1.093   3.410  -5.888
 5811SOL    HW219441   1.032   3.273  38.250
 5812SOL     OW19442  10.166   4.926   4.944
 5812SOL    HW119443  -0.917   4.987  15.924
 5812SOL    HW219444  10.248  16.010   4.967
 5813SOL     OW19445   3.720   2.916   7.279
 5813SOL    HW119446   3.687  24.906   7.287
 5813SOL    HW219447   3.808   2.906   7.241
 5814SOL     OW19448   1.421   3.522   3.923
 5814SOL    HW119449   1.371   3.524   4.005
 5814SOL    HW219450  12.552   3.512   3.951
 5815SOL     OW19451   9.822   2.953   5.164
 5815SOL    HW119452   9.911   2.926   5.140
 5815SOL    HW219453   9.766   2.880  16.178
 5816SOL     OW19454   7.893   7.084  11.038
 5816SOL    HW119455   7.953   7.033  10.984
 5816SOL    HW219456   7.924   7.071   0.088
 5817SOL     OW19457   8.012   8.987   8.131
 5817SOL    HW119458   7.994  20.120   8.134
 5817SOL    HW219459   8.012   8.966  19.077
 5818SOL     OW19460   2.752   1.854   6.565
 5818SOL    HW119461  -8.238   1.873   6.645
 5818SOL    HW219462  13.701  12.880  17.635
 5819SOL     OW19463   1.678   6.681   1.978
 5819SOL    HW119464  -9.276  -4.381   2.015
 5819SOL    HW219465   1.657  -4.274   2.017
 5820SOL     OW19466   6.970   3.570   1.907
 5820SOL    HW119467   6.994  36.775   1.874
 5820SOL    HW219468   6.880   3.580  12.975
 5821SOL     OW19469   6.174   2.044  11.022
 5821SOL    HW119470  17.202 -20.128  11.046
 5821SOL    HW219471  17.263   2.041  10.940
 5822SOL     OW19472   6.377   8.675   9.748
 5822SOL    HW119473  -4.748  -2.406   9.744
 5822SOL    HW219474 -15.700 -35.441  20.874
 5823SOL     OW19475   6.085   4.702   2.044
 5823SOL    HW119476   6.097   4.633  -9.061
 5823SOL    HW219477 -27.111  15.789   2.014
 5824SOL     OW19478   2.200  -0.323   5.805
 5824SOL    HW119479   2.235  -0.284   5.725
 5824SOL    HW219480  35.326  10.622  27.871
 5825SOL     OW19481   9.203   3.671  10.553
 5825SOL    HW119482  -1.821   3.593  10.500
 5825SOL    HW219483  20.316   3.673  10.615
 5826SOL     OW19484   1.400   1.449   8.452
 5826SOL    HW119485  -9.700 -31.596  -2.581
 5826SOL    HW219486   1.441  12.482 -13.541
 5827SOL     OW19487   4.874  -2.292   5.271
 5827SOL    HW119488  49.099  19.839  16.266
 5827SOL    HW219489  15.962  19.717   5.315
 5828SOL     OW19490   9.749   7.051   3.010
 5828SOL    HW119491  20.856   7.051   3.077
 5828SOL    HW219492   9.673 -14.987  -7.988
 5829SOL     OW19493   5.739   4.765   5.961
 5829SOL    HW119494   5.690   4.823   5.904
 5829SOL    HW219495   5.804   4.821  17.043
 5830SOL     OW19496   6.042   9.434  10.415
 5830SOL    HW119497   6.018  20.493  21.546
 5830SOL    HW219498   5.971   9.472  10.363
 5831SOL     OW19499   0.894   4.078   9.175
 5831SOL    HW119500   0.924   4.004  20.267
 5831SOL    HW219501   0.799  26.155  20.224
 5832SOL     OW19502   5.856   4.213   5.956
 5832SOL    HW119503   5.833   4.301   5.926
 5832SOL    HW219504   5.881   4.224   6.048
 5833SOL     OW19505  10.589   1.666   6.016
 5833SOL    HW119506 -11.499  -9.367  28.000
 5833SOL    HW219507 -22.615  -9.405  17.086
 5834SOL     OW19508   2.425   8.761   8.014
 5834SOL    HW119509   2.426   8.666   8.030
 5834SOL    HW219510   2.445  -2.240   8.099
 5835SOL     OW19511   9.673   6.744   5.339
 5835SOL    HW119512   9.585   6.763   5.370
 5835SOL    HW219513   9.708  17.869  16.353
 5836SOL     OW19514   9.405   3.477   2.700
 5836SOL    HW119515   9.434   3.453   2.612
 5836SOL    HW219516   9.432  14.608   2.710
 5837SOL     OW19517   7.208   6.295   3.665
 5837SOL    HW119518  18.177   6.279   3.729
 5837SOL    HW219519   7.249   6.209   3.653
 5838SOL     OW19520   5.788   7.993  10.147
 5838SOL    HW119521   5.713   8.012  10.203
 5838SOL    HW219522   5.752   7.987  -0.981
 5839SOL     OW19523   3.930  13.271   0.037
 5839SOL    HW119524   3.917  -8.750  11.001
 5839SOL    HW219525  15.006 -19.928  -0.001
 5840SOL     OW19526  -0.094   6.806   1.134
 5840SOL    HW119527  10.880   6.850   1.081
 5840SOL    HW219528  -0.015   6.859   1.123
 5841SOL     OW19529   9.964  11.025   5.161
 5841SOL    HW119530  20.952  10.964   5.214
 5841SOL    HW219531  10.046  11.034   5.208
 5842SOL     OW19532   5.699   3.589   3.563
 5842SOL    HW119533   5.772   3.571   3.505
 5842SOL    HW219534  -5.414 -18.541   3.527
 5843SOL     OW19535   8.052   4.908   0.322
 5843SOL    HW119536  19.029  15.878  11.343
 5843SOL    HW219537  19.122   4.937   0.236
 5844SOL     OW19538   6.512   3.662   2.179
 5844SOL    HW119539  17.498   3.699   2.249
 5844SOL    HW219540   6.450 -18.431  24.186
 5845SOL     OW19541   7.807   7.541   9.756
 5845SOL    HW119542   7.825   7.487   9.833
 5845SOL    HW219543  -3.225   7.631  31.867
 5846SOL     OW19544   3.913   2.879   3.597
 5846SOL    HW119545   3.880  -8.240   3.555
 5846SOL    HW219546   3.834   2.930  -7.423
 5847SOL     OW19547   2.087  -0.777   5.543
 5847SOL    HW119548  13.113  54.485  16.512
 5847SOL    HW219549 -31.025  21.355   5.623
 5848SOL     OW19550   7.397  10.199   9.948
 5848SOL    HW119551   7.450  10.238  10.017
 5848SOL    HW219552   7.369  10.274   9.895
 5849SOL     OW19553   2.210   4.087  10.145
 5849SOL    HW119554   2.304   4.094  10.160
 5849SOL    HW219555   2.190   4.157  10.083
 5850SOL     OW19556  11.583   3.225  10.679
 5850SOL    HW119557 -32.496   3.174  -0.378
 5850SOL    HW219558  11.537  -7.813  10.594
 5851SOL     OW19559   7.283   0.822   0.369
 5851SOL    HW119560  18.316   0.791   0.279
 5851SOL    HW219561   7.345   0.761   0.411
 5852SOL     OW19562   5.604   2.771   4.703
 5852SOL    HW119563  16.690   2.701 -28.462
 5852SOL    HW219564 -16.555  -8.310   4.736
 5853SOL     OW19565   6.665   5.662   0.617
 5853SOL    HW119566   6.676  -5.284  22.681
 5853SOL    HW219567  -4.456 -16.440  22.651
 5854SOL     OW19568   5.385   4.288   3.922
 5854SOL    HW119569   5.450  -6.682   3.910
 5854SOL    HW219570  27.407   4.320  -7.048
 5855SOL     OW19571   1.508   8.657  10.902
 5855SOL    HW119572   1.427 -13.417  10.952
 5855SOL    HW219573   1.482 -13.461  10.818
 5856SOL     OW19574   3.115   3.705   4.977
 5856SOL    HW119575  25.145   3.772   4.929
 5856SOL    HW219576 -18.872 -18.349   4.965
 5857SOL     OW19577   8.962  12.603   2.691
 5857SOL    HW119578  19.949  -9.488   2.770
 5857SOL    HW219579   8.941   1.651  13.699
 5858SOL     OW19580  10.536   3.067   3.995
 5858SOL    HW119581  10.493   3.005   4.054
 5858SOL    HW219582  10.619   3.089   4.038
 5859SOL     OW19583  10.844   2.573   5.974
 5859SOL    HW119584  10.817 -19.571  -5.000
 5859SOL    HW219585  -0.277  13.654   5.947
 5860SOL     OW19586   1.719   8.861   3.826
 5860SOL    HW119587  -9.271   8.930  14.821
 5860SOL    HW219588   1.754   8.779   3.790
 5861SOL     OW19589  10.473   2.764   8.866
 5861SOL    HW119590 -44.674   2.687  -2.145
 5861SOL    HW219591  10.534   2.814 -13.267
 5862SOL     OW19592   2.508   0.540   4.945
 5862SOL    HW119593   2.545   0.532   4.857
 5862SOL    HW219594  13.595   0.614   4.984
 5863SOL     OW19595   7.484   0.206   9.044
 5863SOL    HW119596   7.504   0.187   9.136
 5863SOL    HW219597   7.568   0.202   8.999
 5864SOL     OW19598   8.478   0.452   9.266
 5864SOL    HW119599   8.565  22.548  -1.810
 5864SOL    HW219600  19.458   0.490   9.202
 5865SOL     OW19601   4.317   3.036   1.456
 5865SOL    HW119602  -6.676   3.116   1.480
 5865SOL    HW219603   4.350   2.970  12.556
 5866SOL     OW19604   2.809   3.577   8.707
 5866SOL    HW119605   2.822   3.493  30.742
 5866SOL    HW219606   2.752  -7.483  19.820
 5867SOL     OW19607   7.257   7.313   9.324
 5867SOL    HW119608  18.216   7.310  20.415
 5867SOL    HW219609   7.256   7.232  20.312
 5868SOL     OW19610   7.839   6.770   8.018
 5868SOL    HW119611   7.788   6.690   8.011
 5868SOL    HW219612   7.823   6.816   7.935
 5869SOL     OW19613   6.055  -0.063   8.297
 5869SOL    HW119614   6.111  10.970   8.374
 5869SOL    HW219615   6.050  21.927   8.263
 5870SOL     OW19616   1.087   5.080  11.198
 5870SOL    HW119617   1.101  16.028   0.132
 5870SOL    HW219618  12.045   5.078  11.249
 5871SOL     OW19619   7.954   0.099   7.726
 5871SOL    HW119620 -14.167   0.138   7.649
 5871SOL    HW219621   7.924  11.047   7.725
 5872SOL     OW19622   9.857  11.226   0.560
 5872SOL    HW119623 -23.202   0.191   0.486
 5872SOL    HW219624   9.782  11.177   0.527
 5873SOL     OW19625   4.405   5.436   1.042
 5873SOL    HW119626   4.419   5.453  23.214
 5873SOL    HW219627  -6.547   5.414   1.008
 5874SOL     OW19628   8.379   1.670   3.574
 5874SOL    HW119629   8.380  -9.399   3.665
 5874SOL    HW219630 -24.671  -9.304  25.647
 5875SOL     OW19631   8.139   5.163   1.467
 5875SOL    HW119632  19.093   5.152   1.508
 5875SOL    HW219633  19.241   5.157  12.578
 5876SOL     OW19634   3.299   3.934   5.068
 5876SOL    HW119635  -7.693  14.893   5.089
 5876SOL    HW219636  -7.720   3.993   5.140
 5877SOL     OW19637   5.999   9.157   7.489
 5877SOL    HW119638   5.931  -1.947  -3.535
 5877SOL    HW219639  17.007 -34.949   7.416
 5878SOL     OW19640   4.639   1.716   7.385
 5878SOL    HW119641  -6.420   1.675   7.301
 5878SOL    HW219642 -17.474   1.655   7.450
 5879SOL     OW19643   3.857   4.173   8.408
 5879SOL    HW119644   3.871   4.264   8.437
 5879SOL    HW219645   3.942 -17.949   8.422
 5880SOL     OW19646   8.741   1.838   7.016
 5880SOL    HW119647   8.678  34.945   6.945
 5880SOL    HW219648 -24.316   1.903  -4.057
 5881SOL     OW19649   4.080   3.489   9.119
 5881SOL    HW119650   4.059 -18.567  -2.011
 5881SOL    HW219651   4.168   3.450   9.114
 5882SOL     OW19652   8.522   4.146  11.154
 5882SOL    HW119653  19.644  15.234  11.153
 5882SOL    HW219654  19.575   4.075   0.052
 5883SOL     OW19655   9.923   1.995   0.587
 5883SOL    HW119656  21.016 -20.004   0.585
 5883SOL    HW219657   9.838   2.023   0.622
 5884SOL     OW19658   4.477   2.337   6.703
 5884SOL    HW119659   4.471   2.249  28.820
 5884SOL    HW219660  -6.488  -8.707  28.723
 5885SOL     OW19661   1.615   1.642   5.251
 5885SOL    HW119662   1.702   1.608   5.274
 5885SOL    HW219663   1.564   1.564   5.229
 5886SOL     OW19664   7.230   9.861   2.830
 5886SOL    HW119665  18.224   9.860 -30.374
 5886SOL    HW219666   7.281   9.780   2.831
 5887SOL     OW19667  -1.798   1.788   2.225
 5887SOL    HW119668  20.239  12.905   2.262
 5887SOL    HW219669   9.335   1.810   2.224
 5888SOL     OW19670   9.078   7.119   6.493
 5888SOL    HW119671   8.988   7.124  17.567
 5888SOL    HW219672   9.092   7.204  17.490
 5889SOL     OW19673   2.113  12.636  -0.441
 5889SOL    HW119674   2.054 -20.430  -0.388
 5889SOL    HW219675  13.217  12.699  10.564
 5890SOL     OW19676   3.748   9.636   2.893
 5890SOL    HW119677   3.704   9.553   2.913
 5890SOL    HW219678   3.731 -23.427  25.047
 5891SOL     OW19679   4.518   1.054   9.463
 5891SOL    HW119680  15.473   1.033  -1.538
 5891SOL    HW219681   4.499  34.240   9.398
 5892SOL     OW19682  10.909   8.274   1.529
 5892SOL    HW119683  10.954   8.359  -9.509
 5892SOL    HW219684  10.942   8.232   1.450
 5893SOL     OW19685   3.534   4.071   0.833
 5893SOL    HW119686   3.442   4.092   0.849
 5893SOL    HW219687   3.537   3.976   0.828
 5894SOL     OW19688   7.632   8.245   1.514
 5894SOL    HW119689   7.675   8.203  12.479
 5894SOL    HW219690  29.741   8.195  56.788
 5895SOL     OW19691   3.612   2.644   7.440
 5895SOL    HW119692  14.563 -19.418  18.448
 5895SOL    HW219693  25.685   2.652   7.535
 5896SOL     OW19694   8.057   7.158   7.800
 5896SOL    HW119695   8.016   7.172   7.886
 5896SOL    HW219696  19.023  18.192   7.740
 5897SOL     OW19697   6.902   7.416   5.138
 5897SOL    HW119698   6.809   7.422  16.198
 5897SOL    HW219699   6.942   7.489   5.184
 5898SOL     OW19700   9.672   8.032   1.575
 5898SOL    HW119701   9.582   8.005   1.596
 5898SOL    HW219702   9.727   7.969   1.621
 5899SOL     OW19703   8.998   5.482   6.056
 5899SOL    HW119704   8.938   5.470   5.983
 5899SOL    HW219705   8.972 -27.553   6.095
 5900SOL     OW19706   8.457   1.389   6.140
 5900SOL    HW119707   8.387 -20.741  17.139
 5900SOL    HW219708   8.516   1.323   6.178
 5901SOL     OW19709   1.351   6.341   2.250
 5901SOL    HW119710   1.428  17.324   2.254
 5901SOL    HW219711   1.348  39.490 -19.920
 5902SOL     OW19712   5.614   0.489   5.078
 5902SOL    HW119713   5.674  22.551   5.150
 5902SOL    HW219714  16.647   0.584   5.074
 5903SOL     OW19715   6.901  11.141  10.916
 5903SOL    HW119716  -4.094 -10.859  10.949
 5903SOL    HW219717  -4.209  11.175  10.861
 5904SOL     OW19718  -1.696   1.124   7.061
 5904SOL    HW119719   9.385  12.150   7.146
 5904SOL    HW219720  20.413   1.210   7.033
 5905SOL     OW19721   2.167   5.150  10.239
 5905SOL    HW119722   2.196  -5.843  10.317
 5905SOL    HW219723  13.281   5.094  10.215
 5906SOL     OW19724   2.390  11.798   2.274
 5906SOL    HW119725  13.357  11.857   2.297
 5906SOL    HW219726  13.439 -10.272  13.219
 5907SOL     OW19727   6.810   4.913   9.355
 5907SOL    HW119728   6.794 -17.140   9.265
 5907SOL    HW219729  -4.300   4.851   9.375
 5908SOL     OW19730   9.258   0.332   4.391
 5908SOL    HW119731   9.278   0.326  15.524
 5908SOL    HW219732   9.201   0.257   4.374
 5909SOL     OW19733  10.697   2.868   8.694
 5909SOL    HW119734  10.769   2.821   8.735
 5909SOL    HW219735  10.704  -8.083   8.730
 5910SOL     OW19736  13.687   1.004   6.713
 5910SOL    HW119737  -8.380   1.046   6.627
 5910SOL    HW219738 -19.449   0.913   6.692
 5911SOL     OW19739   0.672   0.369   3.270
 5911SOL    HW119740   0.584   0.336   3.250
 5911SOL    HW219741 -10.379   0.420   3.350
 5912SOL     OW19742   2.565   9.255   3.061
 5912SOL    HW119743   2.554  -1.876   3.086
 5912SOL    HW219744  -8.553   9.276   3.010
 5913SOL     OW19745  10.692   9.853   8.074
 5913SOL    HW119746  10.687   9.775   8.128
 5913SOL    HW219747  10.706   9.925   8.136
 5914SOL     OW19748   9.828   1.296   5.172
 5914SOL    HW119749   9.843  -9.649  16.215
 5914SOL    HW219750   9.762   1.280  16.279
 5915SOL     OW19751   1.925   9.733   9.465
 5915SOL    HW119752  -9.194   9.704   9.510
 5915SOL    HW219753  12.948   9.715   9.372
 5916SOL     OW19754  10.759   0.563   0.017
 5916SOL    HW119755  10.718   0.505  -0.047
 5916SOL    HW219756  10.687   0.595   0.070
 5917SOL     OW19757   3.382   8.159  10.764
 5917SOL    HW119758   3.447 -13.975  -0.321
 5917SOL    HW219759   3.430  -2.843 -11.241
 5918SOL     OW19760   1.665   8.614  11.128
 5918SOL    HW119761   1.635   8.624  -0.001
 5918SOL    HW219762   1.619   8.682  11.177
 5919SOL     OW19763   4.382   0.602   7.949
 5919SOL    HW119764   4.367   0.558   7.866
 5919SOL    HW219765   4.295   0.619   7.984
 5920SOL     OW19766   6.797   8.448   8.972
 5920SOL    HW119767  -4.148   8.462   8.969
 5920SOL    HW219768   6.787   8.353  -2.059
 5921SOL     OW19769   1.893   0.032   3.130
 5921SOL    HW119770 -31.160   0.097  25.187
 5921SOL    HW219771   1.936  11.015   3.195
 5922SOL     OW19772   3.319   9.057   9.989
 5922SOL    HW119773   3.304  31.073  21.099
 5922SOL    HW219774  14.355   9.005   9.909
 5923SOL     OW19775   7.502   2.356  10.296
 5923SOL    HW119776   7.592   2.375 -11.810
 5923SOL    HW219777  -3.592   2.390 -11.854
 5924SOL     OW19778   1.212   9.931   3.583
 5924SOL    HW119779  12.215   9.870   3.647
 5924SOL    HW219780  23.238 -12.069   3.591
 5925SOL     OW19781   2.596   7.909   8.072
 5925SOL    HW119782   2.502  18.956   8.088
 5925SOL    HW219783   2.603   7.868   7.986
 5926SOL     OW19784   5.087   7.983   5.943
 5926SOL    HW119785   5.177   8.014   5.935
 5926SOL    HW219786   5.034   8.054   5.906
 5927SOL     OW19787   9.226   1.662   8.291
 5927SOL    HW119788   9.315  12.736  19.337
 5927SOL    HW219789  20.210   1.734  41.439
 5928SOL     OW19790   1.612   3.454   6.345
 5928SOL    HW119791   1.535   3.506  -4.670
 5928SOL    HW219792  12.654   3.383   6.409
 5929SOL     OW19793   1.181   5.937   9.223
 5929SOL    HW119794  23.315   5.861  20.281
 5929SOL    HW219795   1.222   6.009   9.270
 5930SOL     OW19796   9.512   5.087   8.616
 5930SOL    HW119797  20.604  -5.924   8.541
 5930SOL    HW219798   9.516 -17.087  -2.427
 5931SOL     OW19799   8.916   5.162   6.665
 5931SOL    HW119800   8.949  16.115 -15.440
 5931SOL    HW219801   8.840   5.143   6.720
 5932SOL     OW19802  12.198   3.055   0.517
 5932SOL    HW119803  12.287  -7.978   0.553
 5932SOL    HW219804 -20.914   2.987   0.450
 5933SOL     OW19805   7.201   7.375   2.657
 5933SOL    HW119806  -3.856   7.406   2.746
 5933SOL    HW219807   7.143  29.379   2.647
 5934SOL     OW19808   3.037   0.183   8.745
 5934SOL    HW119809   3.102  11.209  19.716
 5934SOL    HW219810  47.209 -10.766   8.774
 5935SOL     OW19811   4.903   0.898  -1.139
 5935SOL    HW119812  -6.176   0.925   9.818
 5935SOL    HW219813   4.901   0.977   9.955
 5936SOL     OW19814   5.344  10.377   5.831
 5936SOL    HW119815   5.249  10.362   5.834
 5936SOL    HW219816   5.373  10.365   5.921
 5937SOL     OW19817  10.387   9.865   3.159
 5937SOL    HW119818  10.470   9.817   3.161
 5937SOL    HW219819  10.408   9.947  25.193
 5938SOL     OW19820   7.817   7.646   5.945
 5938SOL    HW119821  18.789   7.591   5.907
 5938SOL    HW219822   7.770  -3.335   6.004
 5939SOL     OW19823   1.558   6.489   5.247
 5939SOL    HW119824   1.567   6.471 -27.778
 5939SOL    HW219825   1.600  17.614   5.235
 5940SOL     OW19826   5.656   3.870   0.772
 5940SOL    HW119827   5.582   3.828 -10.223
 5940SOL    HW219828   5.617 -18.138  11.761
 5941SOL     OW19829   8.220   1.906   5.823
 5941SOL    HW119830   8.222   1.818  27.941
 5941SOL    HW219831   8.129   1.917   5.794
 5942SOL     OW19832   7.989   2.081   9.553
 5942SOL    HW119833  18.966  57.299   9.484
 5942SOL    HW219834   8.046   2.157   9.556
 5943SOL     OW19835   7.515   3.864   7.274
 5943SOL    HW119836  -3.465   3.841   7.202
 5943SOL    HW219837  18.469  14.873   7.245
 5944SOL     OW19838   4.664   0.260   1.952
 5944SOL    HW119839   4.572  33.373   1.981
 5944SOL    HW219840   4.676  11.392   1.930
 5945SOL     OW19841   2.851   2.350   2.530
 5945SOL    HW119842   2.859   2.292   2.455
 5945SOL    HW219843   2.885   2.434   2.499
 5946SOL     OW19844   2.997   1.956   9.702
 5946SOL    HW119845   2.999   1.901   9.780
 5946SOL    HW219846  -8.085   2.037   9.732
 5947SOL     OW19847   4.627   6.071   4.083
 5947SOL    HW119848   4.652   6.162   4.099
 5947SOL    HW219849   4.544  -4.979   4.129
 5948SOL     OW19850  10.899  -1.513   0.901
 5948SOL    HW119851  -0.090  31.541   0.850
 5948SOL    HW219852  10.915  20.541   0.992
 5949SOL     OW19853   3.551   4.561   1.074
 5949SOL    HW119854   3.569  -6.411   1.140
 5949SOL    HW219855   3.630  -6.532   1.071
 5950SOL     OW19856   6.720   2.891  10.977
 5950SOL    HW119857   6.799   2.848  10.944
 5950SOL    HW219858   6.658   2.819  10.991
 5951SOL     OW19859   1.487   4.884   8.283
 5951SOL    HW119860 -20.660   4.845  30.308
 5951SOL    HW219861   1.450   4.888  30.450
 5952SOL     OW19862   7.493   4.119   6.306
 5952SOL    HW119863   7.546   4.196   6.329
 5952SOL    HW219864   7.415   4.155   6.264
 5953SOL     OW19865   7.578   3.367   9.030
 5953SOL    HW119866  -3.485  25.460   8.939
 5953SOL    HW219867   7.612   3.277   9.033
 5954SOL     OW19868   2.276   0.630  10.886
 5954SOL    HW119869   2.365   0.641 -33.306
 5954SOL    HW219870   2.220   0.670 -22.298
 5955SOL     OW19871   4.916   5.495   9.996
 5955SOL    HW119872   5.008   5.490 -12.056
 5955SOL    HW219873   4.918   5.483  20.941
 5956SOL     OW19874   8.304   8.030  -1.000
 5956SOL    HW119875  19.335 -13.964  21.035
 5956SOL    HW219876   8.398  -3.017  -0.980
 5957SOL     OW19877   8.720   0.531   5.678
 5957SOL    HW119878   8.674   0.534 -16.485
 5957SOL    HW219879 -13.421   0.487  16.776
 5958SOL     OW19880   8.872   2.388   6.644
 5958SOL    HW119881  19.921   2.397   6.739
 5958SOL    HW219882 -13.143   2.449   6.608
 5959SOL     OW19883   2.539   7.426   5.488
 5959SOL    HW119884 -19.549 -14.570   5.535
 5959SOL    HW219885   2.612   7.440   5.428
 5960SOL     OW19886   9.076   2.442   4.023
 5960SOL    HW119887  31.202  13.442   4.097
 5960SOL    HW219888   9.145  13.516   3.966
 5961SOL     OW19889  10.056   0.456   0.586
 5961SOL    HW119890  10.067   0.361   0.589
 5961SOL    HW219891   9.962   0.469  11.614
 5962SOL     OW19892   1.093   5.303   4.300
 5962SOL    HW119893  12.061   5.365  26.395
 5962SOL    HW219894  -9.867  27.433  48.475
 5963SOL     OW19895   6.185   4.874   5.451
 5963SOL    HW119896  17.215   4.962   5.488
 5963SOL    HW219897  17.196   4.815  27.600
 5964SOL     OW19898   6.014   8.200   3.837
 5964SOL    HW119899  -5.086   8.211  25.843
 5964SOL    HW219900   6.052  -2.926   3.824
 5965SOL     OW19901   4.810  10.934   8.652
 5965SOL    HW119902 -17.190  10.905   8.607
 5965SOL    HW219903  -6.197  10.978   8.731
 5966SOL     OW19904   3.310   3.883   2.478
 5966SOL    HW119905  25.300   3.916  13.527
 5966SOL    HW219906   3.322   3.825  13.593
 5967SOL     OW19907   6.705   3.346   2.039
 5967SOL    HW119908   6.660  14.363  -9.083
 5967SOL    HW219909   6.798   3.335  -9.021
 5968SOL     OW19910   4.301  -0.305   6.574
 5968SOL    HW119911   4.254  -0.369   6.628
 5968SOL    HW219912  -6.806  10.782   6.527
 5969SOL     OW19913   8.052   6.988   5.097
 5969SOL    HW119914  -2.932   6.910   5.103
 5969SOL    HW219915   7.964   6.953   5.079
 5970SOL     OW19916   1.623   3.320  10.934
 5970SOL    HW119917   1.601   3.365  10.852
 5970SOL    HW219918   1.605   3.384  11.002
 5971SOL     OW19919   3.063   8.473  10.824
 5971SOL    HW119920 -19.100   8.510  10.796
 5971SOL    HW219921 -19.036   8.425  10.904
 5972SOL     OW19922   2.062   8.032   5.583
 5972SOL    HW119923  13.050   8.047  16.544
 5972SOL    HW219924   2.153   8.032   5.553
 5973SOL     OW19925   9.365   1.175  11.922
 5973SOL    HW119926   9.301   1.217   0.826
 5973SOL    HW219927   9.340   1.082   0.882
 5974SOL     OW19928  12.240   8.006   4.545
 5974SOL    HW119929  -9.753  -3.006   4.576
 5974SOL    HW219930  12.196  -2.952  26.600
 5975SOL     OW19931   3.824   5.243   2.037
 5975SOL    HW119932 -18.312   5.299  13.129
 5975SOL    HW219933 -18.314   5.195   1.979
 5976SOL     OW19934  -0.948   0.914   6.562
 5976SOL    HW119935  -0.969   0.888   6.472
 5976SOL    HW219936  32.086   0.925   6.605
 5977SOL     OW19937   8.891   1.956   5.414
 5977SOL    HW119938   8.925   1.870  16.429
 5977SOL    HW219939   8.796  24.024   5.415
 5978SOL     OW19940   9.854   5.978   2.958
 5978SOL    HW119941   9.870   5.889  -8.052
 5978SOL    HW219942   9.942  -5.023  13.988
 5979SOL     OW19943  10.406   8.954   6.429
 5979SOL    HW119944  21.449  -2.035   6.347
 5979SOL    HW219945  10.328   8.899   6.419
 5980SOL     OW19946   2.422   0.201   1.972
 5980SOL    HW119947  35.609   0.135 -31.141
 5980SOL    HW219948  13.399   0.178   2.041
 5981SOL     OW19949   5.976   4.959   1.503
 5981SOL    HW119950   6.033   4.903  23.634
 5981SOL    HW219951   5.977   4.919   1.416
 5982SOL     OW19952   7.837   5.755   9.631
 5982SOL    HW119953  -3.264   5.760  20.743
 5982SOL    HW219954   7.896   5.683   9.654
 5983SOL     OW19955  10.913   2.567   6.860
 5983SOL    HW119956  -0.113  -8.558   6.819
 5983SOL    HW219957  -0.145   2.626  28.865
 5984SOL     OW19958  -0.444   6.633  11.334
 5984SOL    HW119959  21.544  -4.385  11.312
 5984SOL    HW219960  10.616   6.556   0.241
 5985SOL     OW19961   1.187   5.905   2.762
 5985SOL    HW119962  23.246   5.891   2.854
 5985SOL    HW219963   1.102   5.919  13.760
 5986SOL     OW19964  10.009   4.803   9.310
 5986SOL    HW119965   9.943  26.907   9.245
 5986SOL    HW219966  10.032  37.832  20.326
 5987SOL     OW19967   2.959   7.224   6.921
 5987SOL    HW119968  13.999   7.158   6.851
 5987SOL    HW219969   2.926  29.382   6.879
 5988SOL     OW19970   4.674   7.407  11.363
 5988SOL    HW119971 -17.495   7.437  11.347
 5988SOL    HW219972  -6.360   7.322 -10.761
 5989SOL     OW19973   3.900   6.030   8.407
 5989SOL    HW119974   3.935   5.980   8.481
 5989SOL    HW219975   3.949   6.112 -13.670
 5990SOL     OW19976   2.980   9.795   6.262
 5990SOL    HW119977   2.996   9.727   6.197
 5990SOL    HW219978   2.934   9.750   6.333
 5991SOL     OW19979   2.871   4.563   5.958
 5991SOL    HW119980 -19.173  -6.566  16.989
 5991SOL    HW219981  -8.261   4.555   5.934
 5992SOL     OW19982   4.320   8.577   2.766
 5992SOL    HW119983   4.298  30.731  13.749
 5992SOL    HW219984   4.235 -35.616  24.873
 5993SOL     OW19985   5.375   0.557   9.408
 5993SOL    HW119986   5.449   0.535 -23.654
 5993SOL    HW219987   5.301  11.552 -12.632
 5994SOL     OW19988   5.699   4.331   0.096
 5994SOL    HW119989  -5.282   4.377   0.157
 5994SOL    HW219990  -5.415   4.390   0.086
 5995SOL     OW19991   4.402  -1.059  10.928
 5995SOL    HW119992   4.395  10.068  10.888
 5995SOL    HW219993 -28.748   9.993  11.017
 5996SOL     OW19994   9.349   9.877   9.517
 5996SOL    HW119995   9.415   9.808 -23.608
 5996SOL    HW219996   9.307  20.918   9.432
 5997SOL     OW19997   5.093   7.214   8.463
 5997SOL    HW119998   5.073   7.267 -13.539
 5997SOL    HW219999   5.035   7.138   8.470
 5998SOL     OW20000   1.391   5.859   8.215
 5998SOL    HW120001   1.306  -5.149   8.245
 5998SOL    HW220002   1.397   5.771   8.250
 5999SOL     OW20003   5.474   4.504   5.672
 5999SOL    HW120004   5.547  26.581  27.689
 5999SOL    HW220005   5.515   4.521  49.915
 6000SOL     OW20006   4.098   9.585   7.403
 6000SOL    HW120007 -17.933   9.659   7.441
 6000SOL    HW220008   4.160   9.546   7.341
 6001SOL     OW20009   1.682   3.205   0.999
 6001SOL    HW120010   1.634 -41.036  12.039
 6001SOL    HW220011   1.691  -7.812 -10.133
 6002SOL     OW20012   0.226   2.059   0.906
 6002SOL    HW120013   0.223   1.973   0.863
 6002SOL    HW220014   0.267  13.156   0.842
 6003SOL     OW20015  10.045   0.569   1.621
 6003SOL    HW120016  -1.008   0.602   1.709
 6003SOL    HW220017  10.027  33.594   1.627
 6004SOL     OW20018   6.452   7.454   3.860
 6004SOL    HW120019   6.435   7.365   3.830
 6004SOL    HW220020   6.540   7.450   3.897
 6005SOL     OW20021   7.096  -1.264   7.953
 6005SOL    HW120022   7.170   9.781   7.892
 6005SOL    HW220023   7.044  42.821   7.922
 6006SOL     OW20024   6.886   4.058   3.597
 6006SOL    HW120025 -15.203  -7.036   3.518
 6006SOL    HW220026  17.945   4.146  14.602
 6007SOL     OW20027   1.732   3.946   3.504
 6007SOL    HW120028   1.639   3.970  14.549
 6007SOL    HW220029   1.775   4.024  25.549
 6008SOL     OW20030   0.150  -0.332   7.619
 6008SOL    HW120031   0.125  43.788   7.534
 6008SOL    HW220032   0.133  10.801   7.609
 6009SOL     OW20033   8.263   5.312   4.097
 6009SOL    HW120034  19.370   5.341 -18.043
 6009SOL    HW220035   8.278  16.405   4.175
 6010SOL     OW20036   3.743   6.478  10.343
 6010SOL    HW120037  -7.300  -4.468  10.363
 6010SOL    HW220038   3.763   6.475  10.249
 6011SOL     OW20039   1.262  10.968   4.427
 6011SOL    HW120040  12.340 -11.172   4.489
 6011SOL    HW220041   1.170  10.945   4.423
 6012SOL     OW20042   4.836   6.640   0.833
 6012SOL    HW120043   4.773   6.573   0.862
 6012SOL    HW220044  15.958   6.613 -10.168
 6013SOL     OW20045  10.948   1.382   0.215
 6013SOL    HW120046  10.995   1.464  22.279
 6013SOL    HW220047  10.863   1.394   0.173
 6014SOL     OW20048  10.310   2.589   0.299
 6014SOL    HW120049  10.370   2.592   0.373
 6014SOL    HW220050  -0.796   2.526   0.324
 6015SOL     OW20051   9.594  11.900   7.190
 6015SOL    HW120052   9.603   0.911   7.108
 6015SOL    HW220053   9.641 -10.127   7.255
 6016SOL     OW20054   2.506   1.264   8.182
 6016SOL    HW120055   2.468   1.338   8.136
 6016SOL    HW220056   2.489  23.268 -13.954
 6017SOL     OW20057   4.386   4.158   6.590
 6017SOL    HW120058   4.462   4.215   6.579
 6017SOL    HW220059   4.419   4.084   6.640
 6018SOL     OW20060   2.417   3.043   5.715
 6018SOL    HW120061  -8.654  25.075  -5.247
 6018SOL    HW220062   2.344  25.118  16.693
 6019SOL     OW20063   7.591   2.526   3.807
 6019SOL    HW120064 -14.394  -8.528   3.794
 6019SOL    HW220065   7.566   2.585   3.736
 6020SOL     OW20066   3.089   8.613   0.636
 6020SOL    HW120067   3.049  30.606   0.632
 6020SOL    HW220068   3.181   8.596   0.656
 6021SOL     OW20069   7.349   7.692   0.618
 6021SOL    HW120070   7.298   7.693   0.698
 6021SOL    HW220071   7.438  29.794  11.685
 6022SOL     OW20072  -0.603   9.140   5.862
 6022SOL    HW120073  10.499   9.198   5.820
 6022SOL    HW220074  -0.686  20.196   5.818
 6023SOL     OW20075   8.980   0.448   4.201
 6023SOL    HW120076   8.935  11.564   4.165
 6023SOL    HW220077  -2.083   0.449   4.294
 6024SOL     OW20078   5.767   2.812   7.026
 6024SOL    HW120079   5.724   2.744   6.975
 6024SOL    HW220080   5.846  24.911   6.976
 6025SOL     OW20081   9.306  -0.247   1.912
 6025SOL    HW120082   9.384  10.738  12.968
 6025SOL    HW220083 -12.743  -0.179   1.853
 6026SOL     OW20084   8.340   0.504  -0.948
 6026SOL    HW120085   8.261   0.527  -0.997
 6026SOL    HW220086  -2.644   0.459  43.146
 6027SOL     OW20087   5.859   0.801   1.773
 6027SOL    HW120088   5.822   0.858   1.841
 6027SOL    HW220089  -5.159   0.720  12.858
 6028SOL     OW20090  10.614   3.616   3.673
 6028SOL    HW120091 -11.374  14.679  14.734
 6028SOL    HW220092  21.601   3.676  36.845
 6029SOL     OW20093   7.688   7.163   0.243
 6029SOL    HW120094  -3.404  29.185   0.299
 6029SOL    HW220095   7.774  18.206   0.285
 6030SOL     OW20096   8.790   2.447   5.740
 6030SOL    HW120097   8.831  24.452   5.695
 6030SOL    HW220098   8.864   2.494   5.780
 6031SOL     OW20099   2.390   6.809   9.699
 6031SOL    HW120100  -8.696   6.811   9.615
 6031SOL    HW220101   2.468   6.757   9.681
 6032SOL     OW20102   2.583  -1.818   9.110
 6032SOL    HW120103   2.539   9.273   9.177
 6032SOL    HW220104   2.631  20.325   9.058
 6033SOL     OW20105   7.562   5.483   0.341
 6033SOL    HW120106   7.515   5.507   0.421
 6033SOL    HW220107 -25.616   5.423   0.295
 6034SOL     OW20108   4.628   9.241   6.780
 6034SOL    HW120109  15.744   9.188   6.759
 6034SOL    HW220110  26.662   9.192   6.848
 6035SOL     OW20111   3.634   7.900   9.574
 6035SOL    HW120112   3.717   7.936  -1.436
 6035SOL    HW220113  36.772   7.808   9.555
 6036SOL     OW20114   6.620   2.670   7.302
 6036SOL    HW120115   6.536   2.635  18.371
 6036SOL    HW220116   6.630 -19.328   7.352
 6037SOL     OW20117   9.153   1.939   4.615
 6037SOL    HW120118  -1.816   1.882   4.585
 6037SOL    HW220119   9.188   1.981   4.694
 6038SOL     OW20120  11.525   5.046   1.655
 6038SOL    HW120121  11.577   5.124   1.675
 6038SOL    HW220122   0.396   5.077   1.648
 6039SOL     OW20123   4.834   8.908   4.182
 6039SOL    HW120124  -6.163   8.993   4.193
 6039SOL    HW220125   4.899   8.854   4.137
 6040SOL     OW20126   5.962   7.565   8.592
 6040SOL    HW120127   5.971   7.469 -13.484
 6040SOL    HW220128   6.034   7.597 -13.432
 6041SOL     OW20129   7.707   8.517   5.715
 6041SOL    HW120130   7.689   8.424   5.698
 6041SOL    HW220131   7.621   8.558  -5.324
 6042SOL     OW20132   7.019   2.309   3.144
 6042SOL    HW120133 -15.049   2.344   3.055
 6042SOL    HW220134   6.942   2.353  -7.862
 6043SOL     OW20135   1.282   0.796  12.084
 6043SOL    HW120136   1.239   0.881 -21.028
 6043SOL    HW220137   1.236   0.740  12.146
 6044SOL     OW20138   1.842   4.657   5.219
 6044SOL    HW120139   1.786   4.582   5.236
 6044SOL    HW220140   1.913   4.649  60.482
 6045SOL     OW20141   9.891   2.680  -0.161
 6045SOL    HW120142 -12.170  13.663  10.804
 6045SOL    HW220143  -1.079  24.738  -0.098
 6046SOL     OW20144   9.795   2.980   6.663
 6046SOL    HW120145   9.801  13.967  -4.456
 6046SOL    HW220146   9.743   2.927   6.723
 6047SOL     OW20147   8.023  -2.175   5.486
 6047SOL    HW120148   8.101  30.900 -16.627
 6047SOL    HW220149   7.978   8.798   5.538
 6048SOL     OW20150   7.638   5.358   2.618
 6048SOL    HW120151   7.711 -16.679  13.702
 6048SOL    HW220152   7.657   5.369  13.564
 6049SOL     OW20153  -0.433   4.996  10.859
 6049SOL    HW120154  -0.527  16.045  10.874
 6049SOL    HW220155  21.668   5.065  10.796
 6050SOL     OW20156   2.360   7.471  10.467
 6050SOL    HW120157   2.442  18.461  10.461
 6050SOL    HW220158   2.292  18.444  10.474
 6051SOL     OW20159   5.882   8.170   1.931
 6051SOL    HW120160  16.973   8.158   2.011
 6051SOL    HW220161   5.862   8.264  -9.110
 6052SOL     OW20162   2.963   9.311  10.779
 6052SOL    HW120163   2.921   9.233  10.744
 6052SOL    HW220164   2.960   9.299  10.874
 6053SOL     OW20165   6.568   5.724   4.177
 6053SOL    HW120166   6.608   5.687   4.098
 6053SOL    HW220167   6.635   5.780   4.214
 6054SOL     OW20168   7.870   8.365   7.490
 6054SOL    HW120169 -14.239  19.494   7.505
 6054SOL    HW220170  18.866   8.313   7.558
 6055SOL     OW20171   0.978   4.631   0.509
 6055SOL    HW120172   1.053  26.724   0.567
 6055SOL    HW220173   0.987   4.540   0.481
 6056SOL     OW20174   2.899   1.730  10.973
 6056SOL    HW120175  24.900   1.772 -11.072
 6056SOL    HW220176  -8.173 -20.430  10.933
 6057SOL     OW20177   1.566   5.126   4.473
 6057SOL    HW120178   1.577   5.149   4.381
 6057SOL    HW220179   1.572 -17.049   4.475
 6058SOL     OW20180   4.311  -0.701  10.672
 6058SOL    HW120181  26.405  -0.715  10.766
 6058SOL    HW220182   4.369  21.317  10.628
 6059SOL     OW20183   0.569   5.465   9.765
 6059SOL    HW120184  11.517  16.477  20.808
 6059SOL    HW220185   0.588  16.536   9.853
 6060SOL     OW20186   6.968   4.353   0.623
 6060SOL    HW120187   6.874   4.358   0.637
 6060SOL    HW220188  -4.044  15.483   0.611
 6061SOL     OW20189   1.848   7.686   6.413
 6061SOL    HW120190  12.930 -14.326  -4.681
 6061SOL    HW220191  12.922   7.702   6.501
 6062SOL     OW20192   2.071   6.306   8.314
 6062SOL    HW120193   2.043   6.376   8.373
 6062SOL    HW220194 -20.016  17.266   8.366
 6063SOL     OW20195   5.523  10.600  11.297
 6063SOL    HW120196   5.459  10.558  11.353
 6063SOL    HW220197   5.520  10.692   0.281
 6064SOL     OW20198  -0.233   8.486   7.053
 6064SOL    HW120199 -11.361   8.521   7.062
 6064SOL    HW220200  21.855   8.425   7.126
 6065SOL     OW20201   2.135   3.485   5.817
 6065SOL    HW120202   2.117  14.472   5.739
 6065SOL    HW220203  13.095   3.536   5.832
 6066SOL     OW20204   1.137   1.148  10.355
 6066SOL    HW120205  12.152   1.056  10.365
 6066SOL    HW220206   1.210   1.145  10.292
 6067SOL     OW20207   4.001   1.197   3.940
 6067SOL    HW120208   4.015   1.247  -7.019
 6067SOL    HW220209   3.972   1.111   3.970
 6068SOL     OW20210   7.226   0.623   5.249
 6068SOL    HW120211   7.247   0.629   5.342
 6068SOL    HW220212  18.175   0.590   5.246
 6069SOL     OW20213   3.629   9.135   3.078
 6069SOL    HW120214   3.543  20.213   3.095
 6069SOL    HW220215  -7.428   9.064 -19.063
 6070SOL     OW20216  12.592   4.150  11.026
 6070SOL    HW120217  -9.410   4.161  10.971
 6070SOL    HW220218  -9.560   4.149  10.964
 6071SOL     OW20219   1.476   3.535   8.605
 6071SOL    HW120220   1.500  -7.543   8.521
 6071SOL    HW220221   1.414   3.474   8.644
 6072SOL     OW20222   4.263  10.914   4.199
 6072SOL    HW120223  -6.822  10.900   4.282
 6072SOL    HW220224   4.250  10.832  -6.889
 6073SOL     OW20225   7.059  10.497  10.082
 6073SOL    HW120226   7.042  10.585  10.118
 6073SOL    HW220227 -26.045  10.442  10.159
 6074SOL     OW20228   4.766   6.556  10.371
 6074SOL    HW120229   4.855   6.591  10.378
 6074SOL    HW220230   4.734   6.555  10.461
 6075SOL     OW20231   5.585  -0.324   7.884
 6075SOL    HW120232   5.506  32.845   7.901
 6075SOL    HW220233   5.603  -0.370   7.966
 6076SOL     OW20234   2.462   9.918   8.457
 6076SOL    HW120235   2.524 -12.113   8.403
 6076SOL    HW220236  13.544   9.911   8.542
 6077SOL     OW20237   6.222   6.943   4.042
 6077SOL    HW120238   6.271  18.003   3.963
 6077SOL    HW220239   6.284   6.954   4.114
 6078SOL     OW20240   3.796   2.349   9.048
 6078SOL    HW120241   3.735   2.374   8.978
 6078SOL    HW220242   3.781  -8.785 -13.019
 6079SOL     OW20243   9.508  10.083   1.821
 6079SOL    HW120244   9.524  -0.949   1.727
 6079SOL    HW220245   9.413  10.089  -9.210
 6080SOL     OW20246   7.596   9.747   7.977
 6080SOL    HW120247   7.576   9.804  18.943
 6080SOL    HW220248  18.571   9.771   8.044
 6081SOL     OW20249   3.634  10.295   8.590
 6081SOL    HW120250   3.540  10.278  -2.439
 6081SOL    HW220251  14.707  10.217   8.545
 6082SOL     OW20252   9.309   3.588   8.487
 6082SOL    HW120253  31.336   3.570   8.408
 6082SOL    HW220254 -12.727   3.671   8.468
 6083SOL     OW20255   1.090   4.064   2.338
 6083SOL    HW120256   1.089   4.128   2.409
 6083SOL    HW220257   1.143   4.106  -8.770
 6084SOL     OW20258   4.534   9.346   7.532
 6084SOL    HW120259   4.530   9.413   7.463
 6084SOL    HW220260   4.458 -12.788   7.516
 6085SOL     OW20261   8.077  12.246  10.378
 6085SOL    HW120262   8.019  -9.757  10.384
 6085SOL    HW220263   8.037  12.192  10.310
 6086SOL     OW20264   6.899   3.278   7.290
 6086SOL    HW120265  -4.190   3.200   7.265
 6086SOL    HW220266   6.858   3.308  -3.669
 6087SOL     OW20267   6.391   9.517   8.732
 6087SOL    HW120268  -4.621   9.551  19.686
 6087SOL    HW220269   6.395  -1.617   8.723
 6088SOL     OW20270   5.362   1.786  11.431
 6088SOL    HW120271   5.294   1.728   0.359
 6088SOL    HW220272   5.421   1.729 -21.638
 6089SOL     OW20273   1.343   0.022   1.992
 6089SOL    HW120274   1.412 -10.952   1.997
 6089SOL    HW220275   1.343  11.033   1.901
 6090SOL     OW20276   3.708   6.904   7.120
 6090SOL    HW120277   3.765   6.829  -3.937
 6090SOL    HW220278  25.725   6.871 -14.894
 6091SOL     OW20279   7.767   2.352  10.307
 6091SOL    HW120280   7.819   2.431  10.322
 6091SOL    HW220281  18.810   2.305  10.390
 6092SOL     OW20282   7.773  11.407   2.519
 6092SOL    HW120283   7.705 -10.641  24.538
 6092SOL    HW220284   7.766  11.464   2.595
 6093SOL     OW20285   1.821   9.033   4.870
 6093SOL    HW120286   1.728   9.035   4.890
 6093SOL    HW220287   1.859  31.183  15.961
 6094SOL     OW20288   2.854  -0.257   7.980
 6094SOL    HW120289 -19.310  -0.250  -3.102
 6094SOL    HW220290   2.906  10.726  -3.117
 6095SOL     OW20291   4.351   1.157   4.235
 6095SOL    HW120292  -6.755   1.093   4.210
 6095SOL    HW220293   4.424   1.141   4.176
 6096SOL     OW20294   2.870   2.886   5.401
 6096SOL    HW120295   2.783   2.881  49.517
 6096SOL    HW220296 -30.268   2.896   5.494
 6097SOL     OW20297   6.365   4.265   7.734
 6097SOL    HW120298   6.449 -17.819   7.686
 6097SOL    HW220299   6.320 -17.739  40.813
 6098SOL     OW20300   9.043   0.164   4.205
 6098SOL    HW120301   9.048   0.259 -28.908
 6098SOL    HW220302  19.988  22.225   4.205
 6099SOL     OW20303   2.544  10.633   4.146
 6099SOL    HW120304   2.482  10.706   4.141
 6099SOL    HW220305   2.504  -0.475   4.094
 6100SOL     OW20306  11.021  10.261   5.401
 6100SOL    HW120307  11.018  10.330  16.374
 6100SOL    HW220308  10.970  10.296  16.514
 6101SOL     OW20309   3.511   2.938  -1.553
 6101SOL    HW120310   3.544  14.062   9.520
 6101SOL    HW220311   3.517   2.946  20.431
 6102SOL     OW20312   7.456   9.657   5.631
 6102SOL    HW120313   7.504  20.733   5.556
 6102SOL    HW220314   7.408   9.582   5.594
 6103SOL     OW20315   6.938   9.724   7.013
 6103SOL    HW120316   6.876  -1.258   6.969
 6103SOL    HW220317   7.004  31.784   6.946
 6104SOL     OW20318   5.263   6.336   6.484
 6104SOL    HW120319  -5.692   6.354   6.443
 6104SOL    HW220320   5.215  17.324   6.419
 6105SOL     OW20321   5.921   6.068   7.903
 6105SOL    HW120322   5.876 -15.935   7.867
 6105SOL    HW220323   6.014   6.090   7.898
 6106SOL     OW20324   7.790   3.252   4.045
 6106SOL    HW120325  29.962   3.236   4.063
 6106SOL    HW220326  18.814   3.209   3.961
 6107SOL     OW20327   6.385   4.018   2.492
 6107SOL    HW120328   6.367   4.077   2.565
 6107SOL    HW220329   6.408   4.076  13.459
 6108SOL     OW20330   5.865  10.034   1.833
 6108SOL    HW120331   5.841   9.942  34.935
 6108SOL    HW220332  -5.254 -12.005   1.869
 6109SOL     OW20333   5.350   6.977  11.069
 6109SOL    HW120334   5.284 -15.130  11.132
 6109SOL    HW220335   5.431 -15.094 -10.960
 6110SOL     OW20336   7.968   0.885   1.570
 6110SOL    HW120337  -3.159   0.847   1.562
 6110SOL    HW220338  -3.013   0.818   1.535
 6111SOL     OW20339   0.620   9.283   5.089
 6111SOL    HW120340  11.688   9.358   5.142
 6111SOL    HW220341  22.679   9.321   5.004
 6112SOL     OW20342   1.233   0.768   0.334
 6112SOL    HW120343   1.169  22.870   0.266
 6112SOL    HW220344   1.308  44.892  11.325
 6113SOL     OW20345   7.789   7.495   0.837
 6113SOL    HW120346   7.841  18.616 -10.200
 6113SOL    HW220347  29.931  -3.612   0.811
 6114SOL     OW20348   0.229   3.766  10.283
 6114SOL    HW120349   0.136  25.868  10.277
 6114SOL    HW220350  33.350   3.690  10.341
 6115SOL     OW20351   8.685   9.699   7.992
 6115SOL    HW120352   8.684   9.623   7.934
 6115SOL    HW220353   8.684   9.774   7.934
 6116SOL     OW20354   8.738   1.267  11.010
 6116SOL    HW120355   8.696   1.199  10.956
 6116SOL    HW220356   8.809  -9.740  -0.084
 6117SOL     OW20357   7.804   1.884  10.558
 6117SOL    HW120358   7.850   1.885  -0.398
 6117SOL    HW220359   7.761   1.798  10.556
 6118SOL     OW20360   2.267   6.231   3.376
 6118SOL    HW120361   2.253   6.186   3.460
 6118SOL    HW220362   2.362   6.235   3.366
 6119SOL     OW20363  12.065   8.118   2.674
 6119SOL    HW120364  -9.955   8.093   2.603
 6119SOL    HW220365  12.103   8.198  -8.330
 6120SOL     OW20366   7.373  10.652   0.498
 6120SOL    HW120367   7.404  10.606  11.460
 6120SOL    HW220368   7.386 -11.489  11.609
 6121SOL     OW20369   3.180   6.653   9.535
 6121SOL    HW120370 -18.879   6.721   9.471
 6121SOL    HW220371   3.084   6.645  31.612
 6122SOL     OW20372   0.320   0.315   7.829
 6122SOL    HW120373  11.450   0.283   7.828
 6122SOL    HW220374  22.351   0.252   7.775
 6123SOL     OW20375   3.608   7.015   7.698
 6123SOL    HW120376   3.666  -3.956   7.732
 6123SOL    HW220377   3.582   7.046   7.612
 6124SOL     OW20378   3.322   9.271   8.754
 6124SOL    HW120379   3.289   9.304   8.837
 6124SOL    HW220380  14.445   9.229   8.776
 6125SOL     OW20381   3.226   9.202   2.805
 6125SOL    HW120382   3.269  20.202  -8.159
 6125SOL    HW220383   3.227   9.296  -8.215
 6126SOL     OW20384  -0.772   8.990   2.624
 6126SOL    HW120385  21.363  19.952 -30.488
 6126SOL    HW220386  -0.852  19.997  -8.458
 6127SOL     OW20387  10.718   6.264   8.504
 6127SOL    HW120388  10.627 -15.793   8.523
 6127SOL    HW220389  10.735   6.304  -2.621
 6128SOL     OW20390   9.728   4.331   2.945
 6128SOL    HW120391   9.781 -17.669  -8.106
 6128SOL    HW220392   9.641   4.363  -8.070
 6129SOL     OW20393   5.658   0.454  10.419
 6129SOL    HW120394   5.568   0.477  10.397
 6129SOL    HW220395   5.702  11.578  10.432
 6130SOL     OW20396   3.508   4.380   1.355
 6130SOL    HW120397   3.491   4.354   1.264
 6130SOL    HW220398   3.521   4.475  12.391
 6131SOL     OW20399   5.090   8.884   1.944
 6131SOL    HW120400  38.162  -2.074  -9.113
 6131SOL    HW220401   5.074  -2.209   1.866
 6132SOL     OW20402  10.132  11.524   7.270
 6132SOL    HW120403  10.113  11.433   7.295
 6132SOL    HW220404  -0.993 -10.517 -14.828
 6133SOL     OW20405   8.147   6.521  -1.817
 6133SOL    HW120406   8.240   6.506  53.394
 6133SOL    HW220407   8.139 -15.531  31.210
 6134SOL     OW20408   5.241  -0.313   7.367
 6134SOL    HW120409   5.165  10.773   7.331
 6134SOL    HW220410   5.291  -0.341   7.291
 6135SOL     OW20411   7.370   0.872   8.191
 6135SOL    HW120412   7.376   0.809   8.119
 6135SOL    HW220413   7.457   0.912  19.234
 6136SOL     OW20414   2.530   2.108   9.683
 6136SOL    HW120415   2.562 -30.988   9.770
 6136SOL    HW220416   2.519   2.193  20.679
 6137SOL     OW20417   1.160   7.000   7.173
 6137SOL    HW120418  12.217  18.082   7.257
 6137SOL    HW220419   1.067   6.976   7.178
 6138SOL     OW20420   6.059   0.039   6.799
 6138SOL    HW120421   5.977   0.070   6.837
 6138SOL    HW220422  -4.992   0.049  -4.335
 6139SOL     OW20423   3.182   6.814   0.056
 6139SOL    HW120424   3.137   6.897   0.072
 6139SOL    HW220425 -29.998  17.804   0.002
 6140SOL     OW20426   7.050   7.200   6.771
 6140SOL    HW120427   7.031  29.188  -4.249
 6140SOL    HW220428   6.967   7.245   6.782
 6141SOL     OW20429   0.748   5.400   7.504
 6141SOL    HW120430   0.689   5.431   7.437
 6141SOL    HW220431   0.696   5.340  18.596
 6142SOL     OW20432   5.872  11.941   1.303
 6142SOL    HW120433 -16.258  11.943   1.383
 6142SOL    HW220434   5.833 -10.070   1.248
 6143SOL     OW20435   6.643   4.124   2.323
 6143SOL    HW120436   6.678  15.250  -8.695
 6143SOL    HW220437  28.681   4.135   2.237
 6144SOL     OW20438  10.282   4.700  10.859
 6144SOL    HW120439 -11.856   4.700  10.784
 6144SOL    HW220440  10.298   4.607 -11.202
 6145SOL     OW20441   7.642   0.927   1.418
 6145SOL    HW120442   7.574  33.995   1.373
 6145SOL    HW220443   7.683  34.097   1.348
 6146SOL     OW20444   7.554   6.817   7.644
 6146SOL    HW120445  -3.507   6.724   7.633
 6146SOL    HW220446   7.622  17.874   7.578
 6147SOL     OW20447   3.019   1.615   8.676
 6147SOL    HW120448   3.079   1.577  30.691
 6147SOL    HW220449   2.933   1.581   8.651
 6148SOL     OW20450   9.872   1.025   8.832
 6148SOL    HW120451   9.836  -9.945   8.777
 6148SOL    HW220452   9.803   0.959   8.838
 6149SOL     OW20453   7.957   9.037   4.082
 6149SOL    HW120454  19.073   8.995  15.161
 6149SOL    HW220455   7.976   9.040   3.988
 6150SOL     OW20456   1.446   2.585   4.177
 6150SOL    HW120457   1.459   2.671  -6.901
 6150SOL    HW220458   1.353   2.582   4.199
 6151SOL     OW20459   3.703   6.752   8.613
 6151SOL    HW120460   3.732   6.808   8.685
 6151SOL    HW220461  14.684   6.807 -13.517
 6152SOL     OW20462   4.853   4.853   8.323
 6152SOL    HW120463   4.873  -6.224   8.237
 6152SOL    HW220464   4.870   4.782   8.385
 6153SOL     OW20465   8.133   1.350   8.081
 6153SOL    HW120466   8.121   1.265 -13.955
 6153SOL    HW220467   8.129   1.414   8.152
 6154SOL     OW20468   5.668   6.305   4.980
 6154SOL    HW120469   5.739   6.241   4.992
 6154SOL    HW220470   5.713 -15.693   4.956
 6155SOL     OW20471  -0.450   7.568   6.115
 6155SOL    HW120472  21.603   7.607   6.032
 6155SOL    HW220473  -0.517 -14.576  39.252
 6156SOL     OW20474   3.089   3.461   1.862
 6156SOL    HW120475  14.088   3.509  -9.105
 6156SOL    HW220476  14.143   3.527   1.794
 6157SOL     OW20477   6.920   2.095   2.743
 6157SOL    HW120478 -15.212   2.020  -8.270
 6157SOL    HW220479   7.003  24.164  -8.251
 6158SOL     OW20480   0.874   7.317   1.550
 6158SOL    HW120481   0.923   7.393   1.518
 6158SOL    HW220482  22.991  18.338   1.636
 6159SOL     OW20483   3.785   4.806   6.609
 6159SOL    HW120484  -7.282   4.894   6.584
 6159SOL    HW220485   3.727  -6.257   6.682
 6160SOL     OW20486   3.353   6.386   4.407
 6160SOL    HW120487   3.316   6.328   4.341
 6160SOL    HW220488   3.443   6.401   4.379
 6161SOL     OW20489   5.281   9.878   1.955
 6161SOL    HW120490  16.380   9.805  -9.063
 6161SOL    HW220491   5.282   9.881   1.860
 6162SOL     OW20492   7.385   9.251  14.090
 6162SOL    HW120493   7.314  -1.774 -19.091
 6162SOL    HW220494   7.436   9.179  -8.028
 6163SOL     OW20495   2.258   7.754   4.930
 6163SOL    HW120496   2.258  18.700  15.989
 6163SOL    HW220497 -19.907   7.770  26.970
 6164SOL     OW20498   7.056   3.286   0.702
 6164SOL    HW120499   7.116   3.359   0.711
 6164SOL    HW220500   7.113   3.211   0.684
 6165SOL     OW20501   5.829   7.201   1.006
 6165SOL    HW120502   5.794   7.274 -10.085
 6165SOL    HW220503   5.754  -3.895   1.021
 6166SOL     OW20504   4.899  11.577   2.600
 6166SOL    HW120505  15.911 -10.560  13.568
 6166SOL    HW220506   4.896  11.522   2.678
 6167SOL     OW20507   2.378   6.823   2.547
 6167SOL    HW120508   2.287   6.853   2.549
 6167SOL    HW220509   2.400  17.857   2.454
 6168SOL     OW20510   3.058   8.838   2.299
 6168SOL    HW120511   2.967  19.848  -8.742
 6168SOL    HW220512   3.065   8.893   2.377
 6169SOL     OW20513   8.059   3.768   9.376
 6169SOL    HW120514   8.012   3.686  20.405
 6169SOL    HW220515  30.184   3.780  20.332
 6170SOL     OW20516   0.662   5.991   5.763
 6170SOL    HW120517  22.678   5.960   5.828
 6170SOL    HW220518   0.747 -16.101   5.805
 6171SOL     OW20519   9.193   4.585   8.734
 6171SOL    HW120520  -1.812  -6.529  -2.256
 6171SOL    HW220521  -1.828   4.661  -2.250
 6172SOL     OW20522   3.106   1.975   7.340
 6172SOL    HW120523  -7.994   1.982   7.415
 6172SOL    HW220524 -29.929   1.950   7.379
 6173SOL     OW20525   2.461  -0.197   4.715
 6173SOL    HW120526   2.422  10.765   4.755
 6173SOL    HW220527   2.390  21.923   4.666
 6174SOL     OW20528   6.481   1.638   1.707
 6174SOL    HW120529   6.524  34.817   1.646
 6174SOL    HW220530   6.549   1.575   1.731
 6175SOL     OW20531   1.137   8.359   9.198
 6175SOL    HW120532   1.103  19.310   9.184
 6175SOL    HW220533  34.224   8.383   9.285
 6176SOL     OW20534   0.332   7.687   2.970
 6176SOL    HW120535   0.348 -14.351   3.055
 6176SOL    HW220536   0.322  -3.445  -8.049
 6177SOL     OW20537  10.184   3.404   0.597
 6177SOL    HW120538  21.308  -7.619   0.639
 6177SOL    HW220539  10.200   3.330   0.539
 6178SOL     OW20540   7.597   7.438   2.567
 6178SOL    HW120541  -3.515   7.491  35.653
 6178SOL    HW220542   7.675  -3.563  46.685
 6179SOL     OW20543   3.678   8.930   5.372
 6179SOL    HW120544  14.807   8.899  16.426
 6179SOL    HW220545   3.685 -13.088   5.299
 6180SOL     OW20546   3.212   5.646   0.953
 6180SOL    HW120547  -7.768   5.577  12.020
 6180SOL    HW220548  -7.773   5.725   0.949
 6181SOL     OW20549   8.235   7.148   6.777
 6181SOL    HW120550   8.276   7.150  -4.176
 6181SOL    HW220551  -2.753   7.083  -4.311
 6182SOL     OW20552   0.308   4.318   5.703
 6182SOL    HW120553   0.350  15.444   5.698
 6182SOL    HW220554   0.377   4.257  16.718
 6183SOL     OW20555   6.735   8.988   6.844
 6183SOL    HW120556   6.652  31.028  28.949
 6183SOL    HW220557  39.896   9.011  -4.113
 6184SOL     OW20558   6.039   1.913   6.503
 6184SOL    HW120559   6.123  24.032   6.481
 6184SOL    HW220560   6.005  24.044   6.576
 6185SOL     OW20561   1.158   4.272   6.913
 6185SOL    HW120562   1.172  26.363   6.819
 6185SOL    HW220563   1.063  15.306   6.923
 6186SOL     OW20564   9.656   2.413   1.247
 6186SOL    HW120565   9.727   2.360   1.210
 6186SOL    HW220566   9.683   2.504   1.232
 6187SOL     OW20567  10.242   5.329   2.248
 6187SOL    HW120568  10.326   5.342   2.293
 6187SOL    HW220569 -11.900   5.377   2.301
 6188SOL     OW20570   4.854   0.687   3.616
 6188SOL    HW120571  38.036  11.742   3.685
 6188SOL    HW220572   4.856  11.806   3.563
 6189SOL     OW20573   5.955   3.907   8.066
 6189SOL    HW120574   6.018   3.954 -13.958
 6189SOL    HW220575   5.984   3.816   8.069
 6190SOL     OW20576   7.362   2.174   1.975
 6190SOL    HW120577   7.426  46.263   1.961
 6190SOL    HW220578  -3.662  24.315   1.904
 6191SOL     OW20579   4.822   1.829   6.196
 6191SOL    HW120580  -6.225   1.783  -4.760
 6191SOL    HW220581   4.878   1.773   6.143
 6192SOL     OW20582   8.721   4.094   4.347
 6192SOL    HW120583   8.632   4.126   4.329
 6192SOL    HW220584   8.767   4.170  15.422
 6193SOL     OW20585   7.003  10.991  11.126
 6193SOL    HW120586   6.986  11.068  11.072
 6193SOL    HW220587  17.971  10.991   0.150
 6194SOL     OW20588   8.536   2.611   6.289
 6194SOL    HW120589   8.473   2.611  -4.678
 6194SOL    HW220590   8.570   2.701   6.287
 6195SOL     OW20591   7.449   7.754   2.967
 6195SOL    HW120592   7.541   7.733   2.948
 6195SOL    HW220593   7.416   7.791   2.886
 6196SOL     OW20594   4.779   5.938   1.355
 6196SOL    HW120595  26.869  17.003  -9.776
 6196SOL    HW220596   4.867   5.944   1.393
 6197SOL     OW20597   7.812  -1.039   6.571
 6197SOL    HW120598   7.752  -1.067   6.641
 6197SOL    HW220599  18.921  32.014   6.572
 6198SOL     OW20600  12.573   1.918   3.294
 6198SOL    HW120601 -42.647  13.004   3.214
 6198SOL    HW220602  12.614   1.985  25.429
 6199SOL     OW20603   5.551   4.846   4.616
 6199SOL    HW120604  16.628  26.885   4.538
 6199SOL    HW220605   5.479   4.900   4.582
 6200SOL     OW20606   6.514   7.103   6.804
 6200SOL    HW120607   6.514   7.097  -4.140
 6200SOL    HW220608   6.583  29.122  -4.263
 6201SOL     OW20609   2.670   5.241   6.916
 6201SOL    HW120610   2.605   5.300  -4.085
 6201SOL    HW220611   2.618   5.174   6.871
 6202SOL     OW20612   5.863   4.786   8.071
 6202SOL    HW120613  16.873  26.798   8.009
 6202SOL    HW220614  -5.247  26.929  -2.967
 6203SOL     OW20615   9.984   7.348   0.491
 6203SOL    HW120616   9.945   7.324   0.407
 6203SOL    HW220617  10.078  -3.694  11.514
 6204SOL     OW20618   4.710   7.003   4.548
 6204SOL    HW120619  15.745   7.033  15.678
 6204SOL    HW220620   4.644   7.055  26.581
 6205SOL     OW20621  10.687   6.474   9.116
 6205SOL    HW120622  10.762   6.530 -12.983
 6205SOL    HW220623  10.619  17.574   9.147
 6206SOL     OW20624   3.996   4.326   3.041
 6206SOL    HW120625  15.069   4.245 -19.000
 6206SOL    HW220626  15.032   4.308  -8.093
 6207SOL     OW20627   7.501  10.528   1.104
 6207SOL    HW120628   7.471 -22.611   1.192
 6207SOL    HW220629   7.422  10.547   1.055
 6208SOL     OW20630   6.984   8.967   7.812
 6208SOL    HW120631  18.094  19.984  -3.167
 6208SOL    HW220632  -4.120   9.012   7.867
 6209SOL     OW20633   7.191   1.121   2.349
 6209SOL    HW120634   7.115   1.141   2.404
 6209SOL    HW220635   7.185   1.027 -19.745
 6210SOL     OW20636   0.639   0.332   5.923
 6210SOL    HW120637   0.686  11.394   6.003
 6210SOL    HW220638 -10.361   0.250   5.893
 6211SOL     OW20639   9.831   1.878   1.420
 6211SOL    HW120640   9.875  12.846   1.465
 6211SOL    HW220641   9.901   1.925   1.375
 6212SOL     OW20642   9.544   7.095   3.970
 6212SOL    HW120643   9.613   7.089  -7.136
 6212SOL    HW220644  31.592  18.045   3.981
 6213SOL     OW20645   3.367   4.444   3.989
 6213SOL    HW120646   3.293   4.397   3.950
 6213SOL    HW220647   3.386   4.397   4.070
 6214SOL     OW20648   6.245   1.232   7.097
 6214SOL    HW120649   6.321  -9.855   7.130
 6214SOL    HW220650 -15.815  12.287 -15.075
 6215SOL     OW20651   7.225  10.239   1.266
 6215SOL    HW120652   7.270  10.156  -9.761
 6215SOL    HW220653   7.270  10.300   1.324
 6216SOL     OW20654   7.001   1.908  10.787
 6216SOL    HW120655  -3.954  -9.095  10.814
 6216SOL    HW220656  -4.085   1.894  10.870
 6217SOL     OW20657   2.084   7.325   5.891
 6217SOL    HW120658   2.103  18.279   5.853
 6217SOL    HW220659   1.994  18.383  -5.175
 6218SOL     OW20660   5.687   7.388   9.562
 6218SOL    HW120661  -5.379   7.382   9.654
 6218SOL    HW220662   5.736  29.386   9.546
 6219SOL     OW20663   2.684   0.604   1.692
 6219SOL    HW120664  13.636   0.569   1.674
 6219SOL    HW220665   2.743   0.543  23.726
 6220SOL     OW20666   0.056  10.994   5.768
 6220SOL    HW120667   0.049  11.084  27.881
 6220SOL    HW220668  11.010  10.975   5.732
 6221SOL     OW20669   9.227   5.278   2.313
 6221SOL    HW120670   9.143   5.305   2.275
 6221SOL    HW220671   9.214   5.186  24.414
 6222SOL     OW20672  10.061   8.110   4.095
 6222SOL    HW120673   9.976   8.152   4.087
 6222SOL    HW220674  10.117   8.158 -18.046
 6223SOL     OW20675  12.011  10.748   7.995
 6223SOL    HW120676  12.059  10.793  18.965
 6223SOL    HW220677 -21.179  10.808   8.017
 6224SOL     OW20678   0.626   2.268   6.718
 6224SOL    HW120679   0.567  -8.696   6.713
 6224SOL    HW220680   0.701   2.293   6.663
 6225SOL     OW20681   1.051   1.663   6.023
 6225SOL    HW120682   0.959   1.658   6.047
 6225SOL    HW220683   1.060  12.787   5.978
 6226SOL     OW20684   5.618  10.262   2.395
 6226SOL    HW120685  16.640  10.350   2.361
 6226SOL    HW220686  -5.440  10.268   2.488
 6227SOL     OW20687   4.151   7.120   3.549
 6227SOL    HW120688  15.232   7.154   3.469
 6227SOL    HW220689   4.200   7.040 -40.590
 6228SOL     OW20690   6.800   7.433   1.138
 6228SOL    HW120691   6.798  -3.662   1.060
 6228SOL    HW220692  -4.322 -25.704   1.183
 6229SOL     OW20693   5.608   1.333   5.310
 6229SOL    HW120694   5.689   1.308   5.355
 6229SOL    HW220695   5.584   1.417  16.389
 6230SOL     OW20696   2.880   9.396   9.151
 6230SOL    HW120697  -8.182   9.426   9.239
 6230SOL    HW220698   2.883   9.301   9.158
 6231SOL     OW20699   5.009   8.667   4.147
 6231SOL    HW120700   4.979   8.576   4.137
 6231SOL    HW220701   5.010   8.682  15.281
 6232SOL     OW20702   1.793   0.253   1.575
 6232SOL    HW120703   1.829  22.363   1.658
 6232SOL    HW220704   1.747   0.172  -9.441
 6233SOL     OW20705   0.702   9.982   6.563
 6233SOL    HW120706  11.834  21.044  -4.485
 6233SOL    HW220707   0.701  -1.154   6.561
 6234SOL     OW20708   3.550   8.537   9.608
 6234SOL    HW120709   3.639   8.502   9.613
 6234SOL    HW220710   3.548  -2.453   9.526
 6235SOL     OW20711  10.141  10.644   8.413
 6235SOL    HW120712  10.181  10.727   8.388
 6235SOL    HW220713  10.052  10.668   8.439
 6236SOL     OW20714   1.461   1.800   5.995
 6236SOL    HW120715  -9.612   1.828   6.081
 6236SOL    HW220716  -9.657   1.786 -16.137
 6237SOL     OW20717   3.301   7.157   8.365
 6237SOL    HW120718  14.418  18.235 -13.672
 6237SOL    HW220719  -7.759   7.217   8.293
 6238SOL     OW20720   4.320   4.655  10.945
 6238SOL    HW120721  -6.736   4.579  10.889
 6238SOL    HW220722  15.345  15.663  11.034
 6239SOL     OW20723   6.619   4.274   3.866
 6239SOL    HW120724 -15.455  15.328  36.890
 6239SOL    HW220725   6.531   4.239  25.960
 6240SOL     OW20726   8.101   6.755   2.364
 6240SOL    HW120727  -2.956  17.887   2.347
 6240SOL    HW220728   8.181   6.755   2.417
 6241SOL     OW20729  11.413   9.057  11.033
 6241SOL    HW120730   0.287   9.064  -0.047
 6241SOL    HW220731 -10.625   8.982  10.990
 6242SOL     OW20732   1.862   5.507   2.140
 6242SOL    HW120733  23.897  -5.504  13.100
 6242SOL    HW220734   1.955   5.513   2.120
 6243SOL     OW20735   9.077   4.251   2.915
 6243SOL    HW120736   9.132   4.306   2.859
 6243SOL    HW220737   9.133  -6.809   2.990
 6244SOL     OW20738   3.597   3.897   6.501
 6244SOL    HW120739 -29.437   3.885  28.623
 6244SOL    HW220740   3.535  14.888   6.556
 6245SOL     OW20741  10.730   9.469  10.159
 6245SOL    HW120742  10.818   9.458 -11.955
 6245SOL    HW220743  10.730 -34.737  10.242
 6246SOL     OW20744   5.645  10.961   7.660
 6246SOL    HW120745   5.696  10.893   7.703
 6246SOL    HW220746   5.634  10.930   7.570
 6247SOL     OW20747   3.281   3.158   2.160
 6247SOL    HW120748   3.309   3.094  13.265
 6247SOL    HW220749   3.278  25.187   2.078
 6248SOL     OW20750   2.878  10.213   9.305
 6248SOL    HW120751   2.918  10.294  -1.766
 6248SOL    HW220752   2.929  10.143  -1.777
 6249SOL     OW20753   8.749   7.783   1.933
 6249SOL    HW120754   8.810   7.809   2.002
 6249SOL    HW220755  -2.306  18.730  12.988
 6250SOL     OW20756  10.390   6.603   2.859
 6250SOL    HW120757  10.346   6.630   2.778
 6250SOL    HW220758  -0.585   6.538  13.869
 6251SOL     OW20759   6.936  10.387   4.129
 6251SOL    HW120760   7.019  10.393   4.177
 6251SOL    HW220761  -4.170  10.408   4.194
 6252SOL     OW20762   7.224   0.330   7.397
 6252SOL    HW120763   7.246  11.448   7.346
 6252SOL    HW220764  -3.888   0.290   7.349
 6253SOL     OW20765   7.029  -0.331   2.328
 6253SOL    HW120766   6.956  -0.299   2.381
 6253SOL    HW220767   7.027  10.763  -8.791
 6254SOL     OW20768   8.020   2.002   3.999
 6254SOL    HW120769 -14.050   2.097  -7.031
 6254SOL    HW220770  -2.930   1.969   3.998
 6255SOL     OW20771  11.296  10.022   9.595
 6255SOL    HW120772  11.391  10.035  20.638
 6255SOL    HW220773 -21.834  -1.112   9.601
 6256SOL     OW20774   1.813   8.838   0.317
 6256SOL    HW120775  -9.319  19.880   0.295
 6256SOL    HW220776   1.816   8.858   0.411
 6257SOL     OW20777   2.303   1.857   7.769
 6257SOL    HW120778  13.393   1.872   7.849
 6257SOL    HW220779  -8.828   1.856   7.798
 6258SOL     OW20780   9.567   9.217   3.134
 6258SOL    HW120781   9.648   9.195  -7.952
 6258SOL    HW220782  20.543 -23.888   3.065
 6259SOL     OW20783   2.151   0.066   1.718
 6259SOL    HW120784   2.197   0.147  -9.300
 6259SOL    HW220785   2.209  -0.004   1.748
 6260SOL     OW20786   5.754   4.338   3.128
 6260SOL    HW120787   5.827  15.424  14.208
 6260SOL    HW220788   5.794   4.283   3.061
 6261SOL     OW20789   8.030   1.791   5.007
 6261SOL    HW120790   8.007   1.728  -6.101
 6261SOL    HW220791   8.114   1.827   4.981
 6262SOL     OW20792   9.722   7.583   6.888
 6262SOL    HW120793  20.688 -14.557   6.897
 6262SOL    HW220794   9.788   7.550   6.949
 6263SOL     OW20795   8.937   5.854   2.635
 6263SOL    HW120796   9.010   5.912   2.658
 6263SOL    HW220797   8.973  -5.243 -30.552
 6264SOL     OW20798   9.913   0.676   2.246
 6264SOL    HW120799   9.976   0.734   2.203
 6264SOL    HW220800   9.925   0.693   2.339
 6265SOL     OW20801   4.667   8.774   6.117
 6265SOL    HW120802   4.727   8.755   6.045
 6265SOL    HW220803   4.655 -13.390   6.160
 6266SOL     OW20804   7.316   5.473   3.441
 6266SOL    HW120805 -25.758   5.556   3.425
 6266SOL    HW220806  -3.694   5.417   3.369
 6267SOL     OW20807   9.624   1.742   1.276
 6267SOL    HW120808   9.691   1.782   1.332
 6267SOL    HW220809   9.622   1.798   1.198
 6268SOL     OW20810   7.579   2.127  10.434
 6268SOL    HW120811   7.532   2.189 -11.701
 6268SOL    HW220812   7.649   2.093  10.378
 6269SOL     OW20813   7.097   8.797  11.073
 6269SOL    HW120814  -3.879   8.781   0.103
 6269SOL    HW220815  18.135   8.892  11.062
 6270SOL     OW20816   8.260  11.616   7.520
 6270SOL    HW120817   8.179 -21.529   7.564
 6270SOL    HW220818  19.270  33.752 -25.670
 6271SOL     OW20819   4.051  10.793   0.230
 6271SOL    HW120820   4.061  10.721   0.292
 6271SOL    HW220821   4.049  -0.168   0.284
 6272SOL     OW20822   2.992   7.903   8.004
 6272SOL    HW120823  -7.972   7.878   7.951
 6272SOL    HW220824  -8.107   7.945  18.981
 6273SOL     OW20825   8.541   2.367   8.147
 6273SOL    HW120826   8.572   2.372  -2.983
 6273SOL    HW220827   8.446   2.373 -13.939
 6274SOL     OW20828   4.309   9.490   6.751
 6274SOL    HW120829   4.275   9.468  39.957
 6274SOL    HW220830   4.291   9.584   6.742
 6275SOL     OW20831   2.742   1.151   9.794
 6275SOL    HW120832   2.757   1.056   9.792
 6275SOL    HW220833   2.740  -9.862  -1.337
 6276SOL     OW20834   6.381  12.055   5.494
 6276SOL    HW120835   6.362   0.922   5.484
 6276SOL    HW220836   6.327 -43.100   5.427
 6277SOL     OW20837   7.477  -1.180   1.139
 6277SOL    HW120838  18.587 -12.248   1.197
 6277SOL    HW220839   7.522  31.980  12.105
 6278SOL     OW20840   4.081  10.253  10.159
 6278SOL    HW120841 -17.992  10.243  10.064
 6278SOL    HW220842  -7.035  -0.840  10.184
 6279SOL     OW20843   9.323   6.512  10.822
 6279SOL    HW120844  20.391   6.427  10.856
 6279SOL    HW220845   9.342 -15.506  10.893
 6280SOL     OW20846  11.179   5.179   9.707
 6280SOL    HW120847  11.261   5.172  20.697
 6280SOL    HW220848   0.072 -50.005   9.641
 6281SOL     OW20849   2.676   4.499   4.746
 6281SOL    HW120850  46.790   4.499   4.831
 6281SOL    HW220851  24.685   4.479   4.683
 6282SOL     OW20852   7.415   2.566   4.443
 6282SOL    HW120853   7.399  -8.387   4.408
 6282SOL    HW220854   7.432   2.580  15.576
 6283SOL     OW20855   0.950  -1.078   2.756
 6283SOL    HW120856   0.962  -1.009   2.690
 6283SOL    HW220857   0.987  31.962  24.795
 6284SOL     OW20858   2.238   6.597   8.544
 6284SOL    HW120859   2.326   6.572   8.518
 6284SOL    HW220860  24.289  28.608  19.644
 6285SOL     OW20861  10.791   4.479   0.809
 6285SOL    HW120862  10.776  37.667   0.744
 6285SOL    HW220863  10.877   4.500   0.846
 6286SOL     OW20864   5.163   4.539   4.792
 6286SOL    HW120865   5.204   4.625   4.783
 6286SOL    HW220866   5.236   4.479  15.849
 6287SOL     OW20867   6.475   7.268  12.139
 6287SOL    HW120868   6.537   7.200  12.112
 6287SOL    HW220869   6.462   7.253  -9.846
 6288SOL     OW20870   3.966   7.277   5.958
 6288SOL    HW120871  15.041   7.215   6.022
 6288SOL    HW220872   3.873   7.282   5.978
 6289SOL     OW20873   5.688   9.131   3.271
 6289SOL    HW120874   5.602   9.095   3.249
 6289SOL    HW220875  -5.357   9.152   3.364
 6290SOL     OW20876   6.722   6.662   1.260
 6290SOL    HW120877   6.651   6.598   1.252
 6290SOL    HW220878   6.741  -4.351  12.210
 6291SOL     OW20879   4.968   7.631   3.308
 6291SOL    HW120880  15.922   7.639   3.267
 6291SOL    HW220881   4.957   7.562 -18.706
 6292SOL     OW20882   7.904   9.777   9.595
 6292SOL    HW120883   7.856  -1.248   9.676
 6292SOL    HW220884  29.988   9.863   9.554
 6293SOL     OW20885   2.119   7.717   3.694
 6293SOL    HW120886   2.130   7.776  -7.270
 6293SOL    HW220887   2.207   7.707 -18.421
 6294SOL     OW20888   7.387   3.258   8.384
 6294SOL    HW120889  -3.628  -7.851  19.363
 6294SOL    HW220890   7.419   3.339   8.343
 6295SOL     OW20891   4.268  10.402   8.753
 6295SOL    HW120892  -6.845  21.437   8.815
 6295SOL    HW220893   4.238  10.460   8.684
 6296SOL     OW20894   8.072   0.379   7.245
 6296SOL    HW120895  -2.941  22.499   7.328
 6296SOL    HW220896  19.111   0.451  18.222
 6297SOL     OW20897   3.065   3.905   0.861
 6297SOL    HW120898   3.036  14.924  33.891
 6297SOL    HW220899   2.991   3.951   0.901
 6298SOL     OW20900   4.856   8.765   6.474
 6298SOL    HW120901   4.871   8.671   6.480
 6298SOL    HW220902   4.850  19.834  -4.475
 6299SOL     OW20903   4.646  -0.375   8.586
 6299SOL    HW120904   4.616  -0.464   8.565
 6299SOL    HW220905   4.741  21.695  -2.444
 6300SOL     OW20906  -0.001   4.962  10.033
 6300SOL    HW120907   0.054   5.031   9.996
 6300SOL    HW220908  22.002   5.008  10.067
 6301SOL     OW20909   6.532   2.548   1.543
 6301SOL    HW120910  -4.479   2.626   1.589
 6301SOL    HW220911  -4.563   2.581   1.472
 6302SOL     OW20912   2.639  13.442   8.364
 6302SOL    HW120913   2.593  -8.638   8.448
 6302SOL    HW220914   2.571  -8.663  41.419
 6303SOL     OW20915   1.308  11.378   2.898
 6303SOL    HW120916   1.319   0.294  13.854
 6303SOL    HW220917   1.249  11.451  -8.161
 6304SOL     OW20918   6.955  13.008   9.584
 6304SOL    HW120919  -4.055 -20.068  20.543
 6304SOL    HW220920 -15.172  -9.004   9.631
 6305SOL     OW20921   9.825   9.183   6.926
 6305SOL    HW120922  20.770   9.172   6.933
 6305SOL    HW220923   9.851   9.128   6.853
 6306SOL     OW20924  -0.494   6.996   0.236
 6306SOL    HW120925  21.665   6.949   0.217
 6306SOL    HW220926  10.476   6.931   0.229
 6307SOL     OW20927   4.813  -0.122   4.579
 6307SOL    HW120928  37.892  -0.128   4.493
 6307SOL    HW220929   4.885  21.894   4.577
 6308SOL     OW20930   3.899   7.317   7.535
 6308SOL    HW120931   3.930  18.267   7.523
 6308SOL    HW220932   3.829  40.427  29.679
 6309SOL     OW20933  10.186   7.801   4.440
 6309SOL    HW120934  10.156   7.819   4.351
 6309SOL    HW220935  10.202  18.746   4.441
 6310SOL     OW20936   8.951   1.230   9.729
 6310SOL    HW120937   8.986  -9.778   9.646
 6310SOL    HW220938  19.959   1.142  -1.328
 6311SOL     OW20939   9.856   2.892   4.317
 6311SOL    HW120940   9.917  -8.148   4.391
 6311SOL    HW220941   9.830   2.801 -39.852
 6312SOL     OW20942   1.537   2.038   4.757
 6312SOL    HW120943   1.511   2.073  15.882
 6312SOL    HW220944   1.569   1.950  -6.263
 6313SOL     OW20945   8.303  10.866   3.854
 6313SOL    HW120946  -2.651  10.904  25.913
 6313SOL    HW220947   8.322  -0.248   3.911
 6314SOL     OW20948   3.657   4.005  11.048
 6314SOL    HW120949  -7.451   3.938 -11.035
 6314SOL    HW220950   3.735  -7.079 -11.064
 6315SOL     OW20951   8.007  10.299   5.081
 6315SOL    HW120952   7.969  10.354   5.149
 6315SOL    HW220953  -3.101  10.292   5.015
 6316SOL     OW20954   6.534   1.744   5.210
 6316SOL    HW120955   6.574   1.827   5.187
 6316SOL    HW220956  17.497   1.736  -5.887
 6317SOL     OW20957   2.765   5.111   7.709
 6317SOL    HW120958  13.806   5.074  40.739
 6317SOL    HW220959   2.762   5.034  -3.273
 6318SOL     OW20960  10.624   9.448   9.278
 6318SOL    HW120961  10.691   9.463  -1.694
 6318SOL    HW220962  10.622  -1.511   9.227
 6319SOL     OW20963   7.207  10.640   2.104
 6319SOL    HW120964   7.141  10.642   2.173
 6319SOL    HW220965   7.290  10.655   2.149
 6320SOL     OW20966   8.034   8.126   5.813
 6320SOL    HW120967 -14.099 -14.032   5.805
 6320SOL    HW220968  -2.964 -47.063   5.727
 6321SOL     OW20969   2.329   4.244   3.933
 6321SOL    HW120970   2.324  -6.876  37.103
 6321SOL    HW220971  13.416   4.305   3.988
 6322SOL     OW20972   8.049   0.959   5.631
 6322SOL    HW120973   8.051   0.879   5.683
 6322SOL    HW220974  19.050   1.024   5.689
 6323SOL     OW20975   2.501   9.626  10.651
 6323SOL    HW120976   2.415   9.649  -0.423
 6323SOL    HW220977  13.578   9.709  10.682
 6324SOL     OW20978   4.115   7.988   1.162
 6324SOL    HW120979   4.129   8.056   1.227
 6324SOL    HW220980 -18.026   8.026   1.100
 6325SOL     OW20981   0.418   2.179   2.181
 6325SOL    HW120982  22.535   2.262   2.151
 6325SOL    HW220983   0.328   2.202   2.204
 6326SOL     OW20984   3.909   6.966   3.554
 6326SOL    HW120985   3.995   7.001  25.659
 6326SOL    HW220986  -7.182   6.967   3.634
 6327SOL     OW20987   3.915  11.050   0.623
 6327SOL    HW120988   3.962  11.057   0.540
 6327SOL    HW220989   3.840   0.069   0.612
 6328SOL     OW20990   4.761   5.451   0.218
 6328SOL    HW120991   4.849   5.430  55.447
 6328SOL    HW220992   4.766   5.542   0.189
 6329SOL     OW20993   3.871   3.223   7.678
 6329SOL    HW120994   3.963   3.201   7.667
 6329SOL    HW220995   3.830   3.198   7.595
 6330SOL     OW20996  -0.779   1.057   9.823
 6330SOL    HW120997 -11.868   1.130  20.900
 6330SOL    HW220998  32.301   0.979   9.863
 6331SOL     OW20999  11.385   7.054   9.038
 6331SOL    HW121000 -10.697  29.219   8.998
 6331SOL    HW221001  11.313  40.173   9.102
 6332SOL     OW21002  10.257   7.538   4.369
 6332SOL    HW121003  -0.843  -3.559   4.321
 6332SOL    HW221004  10.313  18.518  -6.621
 6333SOL     OW21005   4.904   1.772   7.468
 6333SOL    HW121006   4.822   1.763   7.420
 6333SOL    HW221007   4.947   1.687   7.458
 6334SOL     OW21008   0.565  11.579   9.824
 6334SOL    HW121009   0.601   0.464   9.872
 6334SOL    HW221010   0.627   0.610   9.840
 6335SOL     OW21011   7.295   0.559   2.501
 6335SOL    HW121012   7.211   0.573  -8.583
 6335SOL    HW221013   7.318   0.645   2.537
 6336SOL     OW21014   3.448   6.498   7.076
 6336SOL    HW121015 -18.653   6.550   7.154
 6336SOL    HW221016   3.428   6.557  29.082
 6337SOL     OW21017   2.499   2.612   7.835
 6337SOL    HW121018   2.542   2.650   7.758
 6337SOL    HW221019   2.410   2.592   7.805
 6338SOL     OW21020   0.984   8.136   2.122
 6338SOL    HW121021 -10.050   8.111   2.030
 6338SOL    HW221022   1.013   8.059   2.170
 6339SOL     OW21023  -0.828   2.299  -0.461
 6339SOL    HW121024  -0.803   2.211  10.550
 6339SOL    HW221025  21.238   2.290  -0.366
 6340SOL     OW21026   7.027   7.457   6.514
 6340SOL    HW121027   6.956 -25.668   6.577
 6340SOL    HW221028  -3.969   7.372   6.518
 6341SOL     OW21029   5.069   4.780   1.531
 6341SOL    HW121030  16.090  15.902  -9.555
 6341SOL    HW221031  16.115   4.805   1.623
 6342SOL     OW21032   5.735   9.276   2.485
 6342SOL    HW121033   5.749   9.367   2.457
 6342SOL    HW221034  -5.369   9.241  -8.616
 6343SOL     OW21035   2.544   7.541   8.778
 6343SOL    HW121036  13.549   7.455  30.881
 6343SOL    HW221037   2.638  -3.505  -2.247
 6344SOL     OW21038   3.767   2.039   0.638
 6344SOL    HW121039   3.828  13.030   0.694
 6344SOL    HW221040   3.775  13.170  11.708
 6345SOL     OW21041   5.675   7.538   6.381
 6345SOL    HW121042   5.685   7.632   6.397
 6345SOL    HW221043   5.761   7.501   6.397
 6346SOL     OW21044   8.899   5.912   5.211
 6346SOL    HW121045 -24.221  16.874   5.268
 6346SOL    HW221046   8.896  -5.163   5.123
 6347SOL     OW21047   1.585   1.903  10.838
 6347SOL    HW121048   1.633   1.897  10.921
 6347SOL    HW221049   1.528  -9.213  10.838
 6348SOL     OW21050   3.099   9.052   6.816
 6348SOL    HW121051   3.193  42.154   6.808
 6348SOL    HW221052   3.060   9.006   6.741
 6349SOL     OW21053   1.713   4.571   7.712
 6349SOL    HW121054   1.649   4.523  -3.380
 6349SOL    HW221055   1.738   4.510   7.782
 6350SOL     OW21056   2.580   1.912   1.282
 6350SOL    HW121057  13.540   1.867   1.311
 6350SOL    HW221058   2.581   1.903   1.187
 6351SOL     OW21059   1.910   4.712   5.713
 6351SOL    HW121060  13.033   4.664  38.829
 6351SOL    HW221061   1.908   4.761   5.631
 6352SOL     OW21062   3.891  10.316   5.412
 6352SOL    HW121063   3.937  10.290  -5.707
 6352SOL    HW221064   3.872  10.409   5.400
 6353SOL     OW21065   9.589   9.686   9.745
 6353SOL    HW121066  -1.376   9.654 -12.385
 6353SOL    HW221067   9.512   9.650   9.701
 6354SOL     OW21068  10.967   2.391   9.777
 6354SOL    HW121069  10.965  -8.658  -1.358
 6354SOL    HW221070  11.047  -8.599  31.874
 6355SOL     OW21071   4.595   1.863   0.459
 6355SOL    HW121072  -6.524  -9.134  11.465
 6355SOL    HW221073   4.590   1.773   0.426
 6356SOL     OW21074   6.654   2.932   0.607
 6356SOL    HW121075  -4.357   2.994   0.674
 6356SOL    HW221076   6.721   2.864   0.607
 6357SOL     OW21077   1.152   5.573   5.189
 6357SOL    HW121078  34.271   5.662  16.265
 6357SOL    HW221079  12.098   5.554  -5.863
 6358SOL     OW21080   6.455   6.932   6.267
 6358SOL    HW121081 -15.540   6.971   6.247
 6358SOL    HW221082   6.391   6.989  50.383
 6359SOL     OW21083   6.840   6.126   7.445
 6359SOL    HW121084  28.948   6.055  -3.651
 6359SOL    HW221085   6.750   6.103  -3.570
 6360SOL     OW21086   8.652   6.899   5.313
 6360SOL    HW121087  -2.371   6.880   5.405
 6360SOL    HW221088  30.639   6.923   5.310
 6361SOL     OW21089   4.217   4.617   3.937
 6361SOL    HW121090   4.228   4.663   4.020
 6361SOL    HW221091  -6.910 -17.500  14.981
 6362SOL     OW21092   2.400   9.818   2.759
 6362SOL    HW121093  -8.622   9.822   2.853
 6362SOL    HW221094   2.321 -23.355   2.752
 6363SOL     OW21095   7.378   8.386   6.100
 6363SOL    HW121096   7.284  -2.665   6.116
 6363SOL    HW221097   7.421   8.333   6.167
 6364SOL     OW21098  10.056   0.794   1.475
 6364SOL    HW121099  10.043   0.702  12.538
 6364SOL    HW221100  10.133   0.794  12.458
 6365SOL     OW21101   9.949   2.078   5.178
 6365SOL    HW121102   9.859   2.050  16.200
 6365SOL    HW221103  -1.045   2.065   5.095
 6366SOL     OW21104   9.019   1.287   3.853
 6366SOL    HW121105  31.146   1.206   3.869
 6366SOL    HW221106   9.059   1.322   3.773
 6367SOL     OW21107   9.998   7.668   0.227
 6367SOL    HW121108  10.038   7.754  11.254
 6367SOL    HW221109   9.934   7.661   0.155
 6368SOL     OW21110   0.448   2.200   1.211
 6368SOL    HW121111   0.412   2.234   1.293
 6368SOL    HW221112   0.491   2.275   1.171
 6369SOL     OW21113   1.848   8.722  10.413
 6369SOL    HW121114   1.884   8.807  10.438
 6369SOL    HW221115   1.888   8.703  21.368
 6370SOL     OW21116   0.849   5.063  10.492
 6370SOL    HW121117   0.928   5.073 -11.534
 6370SOL    HW221118  11.818   5.057 -11.523
 6371SOL     OW21119   5.549   8.177   8.308
 6371SOL    HW121120   5.506   8.160  19.264
 6371SOL    HW221121   5.479  19.244 -24.752
 6372SOL     OW21122   2.371   2.388   7.558
 6372SOL    HW121123   2.352   2.294   7.558
 6372SOL    HW221124   2.448   2.397  18.542
 6373SOL     OW21125   9.240   6.324   1.303
 6373SOL    HW121126   9.287   6.407  -9.734
 6373SOL    HW221127 -12.841   6.301  -9.830
 6374SOL     OW21128   9.110  -0.115   2.232
 6374SOL    HW121129   9.201  10.919   2.203
 6374SOL    HW221130  20.147  -0.038   2.288
 6375SOL     OW21131   6.371  10.865   3.304
 6375SOL    HW121132  17.337  10.833   3.252
 6375SOL    HW221133 -15.631  10.822   3.267
 6376SOL     OW21134   5.960   4.242   6.227
 6376SOL    HW121135   6.055   4.240   6.217
 6376SOL    HW221136  16.977   4.153  17.295
 6377SOL     OW21137   5.792   2.045   4.536
 6377SOL    HW121138   5.718   2.087  15.533
 6377SOL    HW221139   5.789   1.954   4.505
 6378SOL     OW21140   4.845   3.463   6.628
 6378SOL    HW121141  -6.271  14.516  17.723
 6378SOL    HW221142   4.917   3.505   6.674
 6379SOL     OW21143   0.030   1.051   6.765
 6379SOL    HW121144  33.088   0.991  -4.230
 6379SOL    HW221145  22.124   1.011 -15.399
 6380SOL     OW21146   2.087   9.952  -0.059
 6380SOL    HW121147   2.126  10.020  21.965
 6380SOL    HW221148  13.176   9.873  -0.080
 6381SOL     OW21149   7.924   3.219   7.032
 6381SOL    HW121150   7.850  14.240 -15.105
 6381SOL    HW221151   7.948  25.214   7.069
 6382SOL     OW21152   7.847   5.538   1.174
 6382SOL    HW121153  -3.102   5.568   1.173
 6382SOL    HW221154 -14.230 -16.619   1.230
 6383SOL     OW21155   3.131   0.807   1.455
 6383SOL    HW121156   3.171   0.874   1.400
 6383SOL    HW221157  -7.854 -10.234   1.534
 6384SOL     OW21158   6.224   5.264   2.772
 6384SOL    HW121159   6.129   5.265  13.823
 6384SOL    HW221160  28.336   5.217   2.849
 6385SOL     OW21161   4.378   8.736  10.978
 6385SOL    HW121162   4.349   8.756  11.067
 6385SOL    HW221163   4.467   8.771  10.974
 6386SOL     OW21164   7.221   0.927   5.947
 6386SOL    HW121165 -14.898   0.974   5.875
 6386SOL    HW221166   7.202   0.980   6.025
 6387SOL     OW21167   5.279   0.891   7.665
 6387SOL    HW121168   5.209   0.882   7.730
 6387SOL    HW221169   5.282  23.064   7.645
 6388SOL     OW21170   1.471   7.825   3.482
 6388SOL    HW121171  -9.532  -3.247   3.565
 6388SOL    HW221172   1.547   7.857 -18.646
 6389SOL     OW21173  10.663   8.768   7.958
 6389SOL    HW121174  10.754   8.786   7.984
 6389SOL    HW221175  10.661   8.674   7.942
 6390SOL     OW21176   5.479   9.401   1.804
 6390SOL    HW121177   5.406  31.421   1.823
 6390SOL    HW221178  16.597   9.346  -9.227
 6391SOL     OW21179   9.894  11.476  12.252
 6391SOL    HW121180   9.937   0.447  12.168
 6391SOL    HW221181  20.998  11.432 -31.851
 6392SOL     OW21182   5.611  12.198   3.836
 6392SOL    HW121183   5.700 -20.939   3.806
 6392SOL    HW221184  27.701 -20.892  -7.113
 6393SOL     OW21185   7.208  10.932   4.207
 6393SOL    HW121186  -3.746  10.951   4.169
 6393SOL    HW221187  -3.859  10.851   4.165
 6394SOL     OW21188   1.607   7.465   2.939
 6394SOL    HW121189   1.537  18.476   2.998
 6394SOL    HW221190   1.679   7.403  -8.084
 6395SOL     OW21191   9.963   7.779   2.617
 6395SOL    HW121192   9.980   7.685   2.608
 6395SOL    HW221193  10.047   7.816   2.642
 6396SOL     OW21194   3.255   2.439   6.969
 6396SOL    HW121195  14.322   2.450   6.878
 6396SOL    HW221196   3.229  13.387  -4.064
 6397SOL     OW21197   7.585   2.158   1.607
 6397SOL    HW121198  18.708   2.114   1.624
 6397SOL    HW221199  18.632  -8.798   1.652
 6398SOL     OW21200   6.872   7.332   8.349
 6398SOL    HW121201   6.862   7.314  19.295
 6398SOL    HW221202   6.806   7.400   8.367
 6399SOL     OW21203   7.199   5.819   2.464
 6399SOL    HW121204   7.146   5.885   2.419
 6399SOL    HW221205  18.225   5.739   2.413
 6400SOL     OW21206   9.835   5.953   8.579
 6400SOL    HW121207   9.793   6.016   8.520
 6400SOL    HW221208   9.864   6.006   8.653
 6401SOL     OW21209   2.387   4.920   3.311
 6401SOL    HW121210 -41.811   4.981  -7.791
 6401SOL    HW221211  24.405  15.958   3.385
 6402SOL     OW21212   7.008   7.038   9.738
 6402SOL    HW121213   7.000   7.103   9.668
 6402SOL    HW221214   7.100   7.043  -1.275
 6403SOL     OW21215   1.390   3.871   9.251
 6403SOL    HW121216  -9.644   3.818  -1.709
 6403SOL    HW221217   1.421   3.957   9.278
 6404SOL     OW21218  -0.752   5.132   1.859
 6404SOL    HW121219  10.294 -17.012   1.788
 6404SOL    HW221220  21.316   5.216   1.814
 6405SOL     OW21221   8.191   8.120  11.875
 6405SOL    HW121222   8.245   8.106 -21.166
 6405SOL    HW221223   8.104  41.257  11.910
 6406SOL     OW21224   1.069   7.527   6.920
 6406SOL    HW121225   0.981   7.513   6.886
 6406SOL    HW221226   1.056   7.543   7.013
 6407SOL     OW21227   1.887   7.007   0.744
 6407SOL    HW121228   1.975   7.042   0.731
 6407SOL    HW221229   1.842   7.026   0.662
 6408SOL     OW21230   5.066   2.415  10.658
 6408SOL    HW121231  16.076   2.486  10.714
 6408SOL    HW221232  27.064  13.414  10.626
 6409SOL     OW21233   8.263   5.417  -0.537
 6409SOL    HW121234 -13.725  -5.598  10.519
 6409SOL    HW221235  -2.807   5.478  -0.604
 6410SOL     OW21236   5.091   2.763   5.908
 6410SOL    HW121237   5.043   2.737   5.830
 6410SOL    HW221238  -5.856  -8.282   5.883
 6411SOL     OW21239   0.899   2.635   1.840
 6411SOL    HW121240   0.950   2.580  12.819
 6411SOL    HW221241   0.818   2.653   1.792
 6412SOL     OW21242   8.363   4.196   9.823
 6412SOL    HW121243   8.400  -6.928  20.889
 6412SOL    HW221244   8.274   4.175   9.796
 6413SOL     OW21245  12.347  10.869  10.268
 6413SOL    HW121246  -9.686 -11.261  10.335
 6413SOL    HW221247   1.371 -11.144  10.241
 6414SOL     OW21248   9.487   7.445   9.933
 6414SOL    HW121249   9.409   7.425  -1.055
 6414SOL    HW221250   9.473   7.535  -1.137
 6415SOL     OW21251   2.408   1.497  10.696
 6415SOL    HW121252   2.419   1.581  10.651
 6415SOL    HW221253   2.433   1.431 -11.448
 6416SOL     OW21254   1.273   1.119   7.852
 6416SOL    HW121255   1.355   1.070   7.845
 6416SOL    HW221256   1.246  12.148   7.943
 6417SOL     OW21257   7.311   0.070   7.731
 6417SOL    HW121258   7.287   0.140   7.670
 6417SOL    HW221259 -14.698   0.108   7.784
 6418SOL     OW21260   9.012  10.971   0.521
 6418SOL    HW121261   8.970  10.886   0.516
 6418SOL    HW221262   9.102  10.952   0.547
 6419SOL     OW21263   8.551   9.633  10.028
 6419SOL    HW121264   8.583   9.628  10.118
 6419SOL    HW221265  19.665   9.668  -1.061
 6420SOL     OW21266   2.924   7.190   0.291
 6420SOL    HW121267   2.895   7.278   0.313
 6420SOL    HW221268  14.020  -3.876   0.364
 6421SOL     OW21269   5.709   2.288  -0.122
 6421SOL    HW121270  -5.264   2.319  -0.062
 6421SOL    HW221271   5.649   2.363  10.908
 6422SOL     OW21272   9.352   9.316   3.440
 6422SOL    HW121273   9.441   9.343 -29.654
 6422SOL    HW221274  -1.676   9.237   3.388
 6423SOL     OW21275   8.390   3.490   1.358
 6423SOL    HW121276   8.423  14.485   1.280
 6423SOL    HW221277   8.379   3.420   1.422
 6424SOL     OW21278   9.459   6.161   9.211
 6424SOL    HW121279  -1.635   6.171   9.289
 6424SOL    HW221280   9.490  17.289   9.192
 6425SOL     OW21281   3.469  12.138   3.942
 6425SOL    HW121282   3.379   1.070   3.926
 6425SOL    HW221283  14.537  -9.904  -7.181
 6426SOL     OW21284   8.624   9.805   6.987
 6426SOL    HW121285   8.639  -1.286   7.067
 6426SOL    HW221286   8.529   9.817   6.985
 6427SOL     OW21287  12.680  10.998   9.564
 6427SOL    HW121288   1.630  11.065   9.632
 6427SOL    HW221289  -9.322  11.026  31.594
 6428SOL     OW21290   6.285   2.257   3.894
 6428SOL    HW121291 -15.817   2.258   3.986
 6428SOL    HW221292   6.295   2.349   3.870
 6429SOL     OW21293   2.778   6.278   2.576
 6429SOL    HW121294   2.696   6.259   2.622
 6429SOL    HW221295   2.843  28.364   2.646
 6430SOL     OW21296   4.398   1.321  10.111
 6430SOL    HW121297   4.303  12.353  10.097
 6430SOL    HW221298  37.553  23.413  -1.016
 6431SOL     OW21299   9.504   4.625   3.870
 6431SOL    HW121300   9.508   4.668  -7.084
 6431SOL    HW221301   9.571   4.669   3.818
 6432SOL     OW21302   9.323   9.383   9.497
 6432SOL    HW121303 -12.672 -12.729   9.464
 6432SOL    HW221304   9.282   9.308   9.539
 6433SOL     OW21305   7.783   0.734   5.977
 6433SOL    HW121306  29.820   0.649 -16.088
 6433SOL    HW221307  18.816   0.749   5.883
 6434SOL     OW21308  10.486   1.886   2.354
 6434SOL    HW121309  10.528   1.933   2.281
 6434SOL    HW221310  10.415   1.837   2.313
 6435SOL     OW21311   4.348   4.228   2.005
 6435SOL    HW121312   4.434 -28.925   2.031
 6435SOL    HW221313   4.361   4.323   2.004
 6436SOL     OW21314   5.668   1.407   3.289
 6436SOL    HW121315   5.646   1.424   3.381
 6436SOL    HW221316   5.739   1.344  36.411
 6437SOL     OW21317   3.507   0.673   9.008
 6437SOL    HW121318   3.521   0.744   8.945
 6437SOL    HW221319   3.540 -10.332  20.131
 6438SOL     OW21320   3.014   2.621   3.736
 6438SOL    HW121321   3.022   2.551  14.841
 6438SOL    HW221322   3.053   2.585   3.657
 6439SOL     OW21323   7.507   1.850  10.502
 6439SOL    HW121324  29.623   1.886  10.421
 6439SOL    HW221325   7.528   1.914  10.569
 6440SOL     OW21326   6.821  10.837   2.483
 6440SOL    HW121327  -4.209 -11.226  24.656
 6440SOL    HW221328  -4.217  10.924   2.443
 6441SOL     OW21329  10.051   9.588   5.271
 6441SOL    HW121330  -1.002  20.722   5.261
 6441SOL    HW221331  10.132   9.581   5.322
 6442SOL     OW21332   0.039   6.675  -2.627
 6442SOL    HW121333  -0.015   6.652  19.528
 6442SOL    HW221334   0.027   6.770  30.482
 6443SOL     OW21335   7.463   1.096   2.464
 6443SOL    HW121336 -14.568   1.158   2.409
 6443SOL    HW221337   7.373   1.098   2.429
 6444SOL     OW21338   4.767   8.163   7.641
 6444SOL    HW121339   4.846   8.186  -3.447
 6444SOL    HW221340 -17.382  -2.876 -14.503
 6445SOL     OW21341   6.542   1.034   3.385
 6445SOL    HW121342  -4.575   1.016   3.438
 6445SOL    HW221343   6.612   1.050   3.448
 6446SOL     OW21344   5.450   6.425   2.218
 6446SOL    HW121345  -5.497   6.416   2.242
 6446SOL    HW221346   5.436   6.358   2.151
 6447SOL     OW21347   2.229   8.783  10.029
 6447SOL    HW121348   2.151  19.871  10.002
 6447SOL    HW221349   2.245  19.851  10.119
 6448SOL     OW21350   6.362   8.236   6.175
 6448SOL    HW121351   6.292   8.253   6.111
 6448SOL    HW221352  17.371   8.161   6.225
 6449SOL     OW21353   8.704   6.593   0.820
 6449SOL    HW121354  19.762 -26.615   0.790
 6449SOL    HW221355  19.666  39.738   0.770
 6450SOL     OW21356   8.596   8.534   0.052
 6450SOL    HW121357  -2.375   8.565  -0.007
 6450SOL    HW221358 -24.588   8.604   0.053
 6451SOL     OW21359   1.145   1.724   8.584
 6451SOL    HW121360   1.127   1.657   8.650
 6451SOL    HW221361   1.096   1.695   8.507
 6452SOL     OW21362   0.548   7.300   0.485
 6452SOL    HW121363   0.641   7.319   0.498
 6452SOL    HW221364  33.621  18.414   0.526
 6453SOL     OW21365   7.345   2.763  12.247
 6453SOL    HW121366   7.418   2.825   1.203
 6453SOL    HW221367   7.384   2.680   1.179
 6454SOL     OW21368  10.479  12.181   9.317
 6454SOL    HW121369  10.414  12.220   9.259
 6454SOL    HW221370  -0.496  -9.829   9.331
 6455SOL     OW21371   5.030   8.758   1.703
 6455SOL    HW121372  38.210  30.851  -9.409
 6455SOL    HW221373  27.037   8.819   1.685
 6456SOL     OW21374  -1.688   0.730   9.768
 6456SOL    HW121375   9.330   0.779   9.848
 6456SOL    HW221376  20.344   0.777   9.699
 6457SOL     OW21377   3.677   0.351  11.374
 6457SOL    HW121378 -29.506   0.413   0.300
 6457SOL    HW221379   3.712   0.305  11.297
 6458SOL     OW21380  10.617   3.073  10.260
 6458SOL    HW121381  -0.371   3.027  10.326
 6458SOL    HW221382  10.628   3.021  10.181
 6459SOL     OW21383   5.485   3.764   0.948
 6459SOL    HW121384  16.483   3.848  23.047
 6459SOL    HW221385   5.482  -7.324  23.109
 6460SOL     OW21386   4.660   8.315   9.916
 6460SOL    HW121387   4.734  19.398  -1.165
 6460SOL    HW221388   4.630   8.252   9.851
 6461SOL     OW21389   9.268   0.459   1.993
 6461SOL    HW121390  31.279   0.412  13.081
 6461SOL    HW221391   9.341   0.397  -9.051
 6462SOL     OW21392   5.537  10.857   0.327
 6462SOL    HW121393  -5.462  -0.141   0.403
 6462SOL    HW221394   5.561  -0.125   0.254
 6463SOL     OW21395   9.096   6.276   3.124
 6463SOL    HW121396  -1.984  28.345   3.210
 6463SOL    HW221397   9.155   6.201  -7.924
 6464SOL     OW21398   8.659   8.801   4.920
 6464SOL    HW121399   8.598   8.745   4.871
 6464SOL    HW221400  19.686   8.888  15.924
 6465SOL     OW21401   5.422  -0.544   9.154
 6465SOL    HW121402   5.331  10.494  20.166
 6465SOL    HW221403   5.429  10.429  31.301
 6466SOL     OW21404   2.129   3.504   8.255
 6466SOL    HW121405   2.206 -18.539   8.210
 6466SOL    HW221406  24.134   3.530   8.201
 6467SOL     OW21407   6.916   9.206   5.116
 6467SOL    HW121408   6.961   9.222   5.033
 6467SOL    HW221409   6.942   9.279  38.291
 6468SOL     OW21410   5.052   2.859   8.575
 6468SOL    HW121411   5.000   2.824  19.686
 6468SOL    HW221412   4.999   2.844   8.497
 6469SOL     OW21413   4.521   5.677   1.860
 6469SOL    HW121414   4.547 -16.470  12.961
 6469SOL    HW221415   4.425   5.674  12.898
 6470SOL     OW21416   7.642   2.278   0.872
 6470SOL    HW121417  29.636   2.311   0.843
 6470SOL    HW221418  29.705   2.246   0.961
 6471SOL     OW21419  11.097   4.810   9.734
 6471SOL    HW121420  11.179  26.841  -1.294
 6471SOL    HW221421   0.079   4.879   9.672
 6472SOL     OW21422   4.808   7.652   1.187
 6472SOL    HW121423   4.829   7.744   1.201
 6472SOL    HW221424   4.757  18.690   1.106
 6473SOL     OW21425   2.748   4.742   7.113
 6473SOL    HW121426   2.755   4.753  -3.832
 6473SOL    HW221427  13.727   4.810  -3.954
 6474SOL     OW21428   5.185   3.425   3.058
 6474SOL    HW121429   5.137   3.458   3.133
 6474SOL    HW221430  27.196   3.402   2.994
 6475SOL     OW21431   1.601   8.089   8.525
 6475SOL    HW121432   1.652   8.056  30.678
 6475SOL    HW221433   1.528   8.028 -13.562
 6476SOL     OW21434   7.641   4.719   9.917
 6476SOL    HW121435   7.639   4.675  10.001
 6476SOL    HW221436   7.568   4.683  -1.171
 6477SOL     OW21437   5.667  10.267   5.453
 6477SOL    HW121438   5.627  10.208  27.596
 6477SOL    HW221439   5.758  10.274  38.599
 6478SOL     OW21440   6.586   2.302   6.013
 6478SOL    HW121441  17.617   2.224   6.068
 6478SOL    HW221442  17.642   2.373   6.075
 6479SOL     OW21443   1.745   4.773   0.196
 6479SOL    HW121444   1.802   4.760   0.272
 6479SOL    HW221445   1.805 -17.286  11.164
 6480SOL     OW21446  10.419   7.400  10.524
 6480SOL    HW121447  10.464 -36.752  10.439
 6480SOL    HW221448  10.490  -3.649  10.588
 6481SOL     OW21449  -0.320  10.116   0.759
 6481SOL    HW121450  10.774  10.065   0.819
 6481SOL    HW221451  10.632  10.113   0.798
 6482SOL     OW21452   0.069   6.187   7.505
 6482SOL    HW121453   0.049  -4.921  18.481
 6482SOL    HW221454   0.095   6.262   7.451
 6483SOL     OW21455   7.829   0.335   9.214
 6483SOL    HW121456  -3.138  22.461   9.173
 6483SOL    HW221457   7.805  22.346  20.190
 6484SOL     OW21458   3.343   5.507  11.460
 6484SOL    HW121459   3.324  -5.461   0.481
 6484SOL    HW221460   3.265   5.501  11.404
 6485SOL     OW21461   6.727   1.803   4.534
 6485SOL    HW121462   6.655  -9.216   4.475
 6485SOL    HW221463  -4.281   1.718 -17.575
 6486SOL     OW21464   4.726   1.969   3.134
 6486SOL    HW121465   4.672   1.891  25.226
 6486SOL    HW221466   4.664   2.042   3.140
 6487SOL     OW21467   7.831   5.309   0.374
 6487SOL    HW121468   7.823   5.325  22.359
 6487SOL    HW221469   7.770   5.372 -21.665
 6488SOL     OW21470   9.210   9.254   9.880
 6488SOL    HW121471   9.251  -1.752   9.959
 6488SOL    HW221472   9.283 -12.857   9.827
 6489SOL     OW21473   9.170   3.101   0.961
 6489SOL    HW121474  31.301  14.081   1.014
 6489SOL    HW221475   9.081  14.107   0.967
 6490SOL     OW21476  10.844   2.012   3.227
 6490SOL    HW121477  10.843   2.106   3.241
 6490SOL    HW221478  10.936  -9.052   3.236
 6491SOL     OW21479   8.997   3.095  10.146
 6491SOL    HW121480   9.071   3.059  10.194
 6491SOL    HW221481   9.020   3.083  21.094
 6492SOL     OW21482   3.750  11.733  11.242
 6492SOL    HW121483   3.832 -10.392  11.225
 6492SOL    HW221484   3.710  11.743   0.116
 6493SOL     OW21485   0.706   4.530   3.307
 6493SOL    HW121486   0.738  37.715  14.286
 6493SOL    HW221487   0.614  -6.487   3.322
 6494SOL     OW21488   7.129   6.788   9.885
 6494SOL    HW121489  -3.875  17.847  20.838
 6494SOL    HW221490   7.078 -26.253   9.908
 6495SOL     OW21491   1.373   3.073   7.625
 6495SOL    HW121492  12.489   3.130   7.622
 6495SOL    HW221493   1.394  -8.038 -25.552
 6496SOL     OW21494   5.566   5.207   0.608
 6496SOL    HW121495   5.637   5.271  22.691
 6496SOL    HW221496   5.546   5.189   0.700
 6497SOL     OW21497   3.693   4.442   6.752
 6497SOL    HW121498   3.784   4.446 -37.436
 6497SOL    HW221499   3.659   4.531 -15.342
 6498SOL     OW21500   2.486   3.166   6.881
 6498SOL    HW121501   2.568  25.252   6.832
 6498SOL    HW221502  13.548   3.198   6.969
 6499SOL     OW21503   1.440  11.168  10.527
 6499SOL    HW121504   1.510 -10.881  10.469
 6499SOL    HW221505   1.441   0.033  10.518
 6500SOL     OW21506   0.537   5.943   6.125
 6500SOL    HW121507   0.481   5.956  -4.991
 6500SOL    HW221508   0.595   6.018  17.165
 6501SOL     OW21509   5.458   7.274   9.783
 6501SOL    HW121510   5.389   7.321   9.830
 6501SOL    HW221511   5.538   7.323   9.802
 6502SOL     OW21512   5.602   4.545   5.931
 6502SOL    HW121513   5.654  -6.414   5.935
 6502SOL    HW221514   5.650  -6.556  17.027
 6503SOL     OW21515   7.388   6.412  12.092
 6503SOL    HW121516  18.454   6.448 -10.071
 6503SOL    HW221517  29.468   6.487  12.152
 6504SOL     OW21518   7.517   3.914   9.925
 6504SOL    HW121519   7.520  -7.172  10.008
 6504SOL    HW221520   7.483 -29.269   9.863
 6505SOL     OW21521   0.689   4.228  10.096
 6505SOL    HW121522  33.847   4.198 -12.064
 6505SOL    HW221523  33.713  15.258 -11.997
 6506SOL     OW21524   5.839   4.795   5.647
 6506SOL    HW121525   5.802 -17.246   5.727
 6506SOL    HW221526  -5.108   4.782  -5.371
 6507SOL     OW21527   7.970   4.864   6.945
 6507SOL    HW121528   7.883   4.857   6.906
 6507SOL    HW221529   8.029  26.957   6.871
 6508SOL     OW21530   6.660   8.891   9.362
 6508SOL    HW121531  -4.401   8.855 -12.803
 6508SOL    HW221532   6.583   8.871  20.455
 6509SOL     OW21533   5.774   1.577   9.078
 6509SOL    HW121534   5.692   1.540  42.164
 6509SOL    HW221535   5.793   1.648   9.016
 6510SOL     OW21536   5.692   9.601   1.347
 6510SOL    HW121537  16.792   9.572 -20.664
 6510SOL    HW221538   5.695  -1.509   1.281
 6511SOL     OW21539  -0.003   3.002   2.601
 6511SOL    HW121540  33.189  -8.075 -19.526
 6511SOL    HW221541   0.013  -8.063   2.692
 6512SOL     OW21542   6.322   8.929   2.373
 6512SOL    HW121543   6.266   9.004   2.393
 6512SOL    HW221544  17.338   8.905   2.284
 6513SOL     OW21545   0.241   8.218   9.706
 6513SOL    HW121546  11.217   8.245   9.639
 6513SOL    HW221547   0.297   8.154   9.661
 6514SOL     OW21548   2.476   7.656   2.897
 6514SOL    HW121549  13.585   7.615  36.067
 6514SOL    HW221550  13.542  29.720   2.806
 6515SOL     OW21551   2.693   1.680   8.300
 6515SOL    HW121552  13.751   1.633  -2.820
 6515SOL    HW221553   2.694   1.613 -13.711
 6516SOL     OW21554  10.850   7.897   8.215
 6516SOL    HW121555 -11.167   7.842   8.263
 6516SOL    HW221556  10.765   7.878   8.254
 6517SOL     OW21557   6.895  10.728   3.717
 6517SOL    HW121558   6.817  10.722   3.662
 6517SOL    HW221559   6.884  10.659   3.783
 6518SOL     OW21560   4.518   2.582  10.191
 6518SOL    HW121561  -6.605   2.538  21.250
 6518SOL    HW221562   4.571   2.515  10.147
 6519SOL     OW21563   6.853  11.868  10.436
 6519SOL    HW121564   6.940  11.906  -0.620
 6519SOL    HW221565   6.871 -10.302 -11.620
 6520SOL     OW21566   4.215   8.317   6.913
 6520SOL    HW121567   4.127   8.308 -15.129
 6520SOL    HW221568   4.206   8.283   6.823
 6521SOL     OW21569  10.149   5.968   3.036
 6521SOL    HW121570  10.197 -38.201   2.954
 6521SOL    HW221571  10.136   6.063   3.044
 6522SOL     OW21572   7.876   0.766   3.475
 6522SOL    HW121573  30.017   0.714   3.526
 6522SOL    HW221574 -14.196   0.732  14.426
 6523SOL     OW21575   1.752   9.120   6.867
 6523SOL    HW121576   1.693   9.189  17.877
 6523SOL    HW221577  -9.223   9.111   6.798
 6524SOL     OW21578   0.835  10.060   0.311
 6524SOL    HW121579   0.834  10.137  11.407
 6524SOL    HW221580  11.784  21.092   0.278
 6525SOL     OW21581   6.005  10.276   8.097
 6525SOL    HW121582   6.079  -0.734   8.045
 6525SOL    HW221583  28.048  10.355   8.136
 6526SOL     OW21584   8.352   7.710   2.144
 6526SOL    HW121585  -2.631   7.646   2.102
 6526SOL    HW221586  30.460   7.712 -19.844
 6527SOL     OW21587   5.803   0.439   5.292
 6527SOL    HW121588  -5.168   0.453  -5.681
 6527SOL    HW221589   5.756  11.401   5.323
 6528SOL     OW21590   5.641  -0.855   0.549
 6528SOL    HW121591   5.554  -0.819   0.568
 6528SOL    HW221592  -5.348  21.238   0.629
 6529SOL     OW21593   3.086   3.425  -0.094
 6529SOL    HW121594   3.087   3.366  -0.169
 6529SOL    HW221595   2.994   3.452  10.954
 6530SOL     OW21596   8.743   0.974   0.216
 6530SOL    HW121597   8.665   1.004   0.170
 6530SOL    HW221598  30.826   1.029   0.294
 6531SOL     OW21599   9.393   8.849   0.192
 6531SOL    HW121600   9.484  19.916   0.197
 6531SOL    HW221601   9.395  30.843  11.188
 6532SOL     OW21602   5.842   9.872   8.488
 6532SOL    HW121603   5.872   9.927   8.561
 6532SOL    HW221604   5.765   9.827   8.523
 6533SOL     OW21605   4.695   6.655  10.122
 6533SOL    HW121606   4.711   6.636  10.214
 6533SOL    HW221607  -6.359   6.570  10.081
 6534SOL     OW21608   7.976   4.834   1.718
 6534SOL    HW121609  18.985  -6.163  12.838
 6534SOL    HW221610   7.944   4.744   1.725
 6535SOL     OW21611  -0.210   9.005   9.447
 6535SOL    HW121612  -0.299   8.976 -23.652
 6535SOL    HW221613  21.881  -1.956 -12.580
 6536SOL     OW21614   7.813   5.951   0.872
 6536SOL    HW121615  -3.188   5.967   0.786
 6536SOL    HW221616   7.871   5.996   0.933
 6537SOL     OW21617   1.774   1.924   3.797
 6537SOL    HW121618   1.855   1.961   3.761
 6537SOL    HW221619  12.809   1.960  -7.154
 6538SOL     OW21620   1.879   7.178   1.780
 6538SOL    HW121621   1.795  29.239  -9.301
 6538SOL    HW221622  -9.182   7.224  -9.179
 6539SOL     OW21623   2.168   7.220   7.081
 6539SOL    HW121624  -8.937   7.241  29.227
 6539SOL    HW221625  -8.860   7.302   7.032
 6540SOL     OW21626   6.512   9.875   6.886
 6540SOL    HW121627   6.464   9.817   6.827
 6540SOL    HW221628   6.462   9.957   6.885
 6541SOL     OW21629   4.913  10.656   1.277
 6541SOL    HW121630 -17.227  10.582  -9.766
 6541SOL    HW221631   4.863  10.729   1.241
 6542SOL     OW21632   8.418   0.069   2.955
 6542SOL    HW121633   8.513   0.063 -30.174
 6542SOL    HW221634   8.402   0.162   2.973
 6543SOL     OW21635   0.925   9.441  10.077
 6543SOL    HW121636   0.958   9.523  10.040
 6543SOL    HW221637   0.967   9.373  10.025
 6544SOL     OW21638   8.260   9.751   1.882
 6544SOL    HW121639  30.406   9.818   1.896
 6544SOL    HW221640  30.370   9.701   1.806
 6545SOL     OW21641   5.256   7.361   5.165
 6545SOL    HW121642   5.173   7.380   5.121
 6545SOL    HW221643   5.233   7.354  27.337
 6546SOL     OW21644   4.408   7.943   0.269
 6546SOL    HW121645   4.451   7.916  22.430
 6546SOL    HW221646   4.331   7.992  22.377
 6547SOL     OW21647   3.962   9.989   2.190
 6547SOL    HW121648 -18.108   9.969   2.283
 6547SOL    HW221649   4.023   9.930   2.146
 6548SOL     OW21650   4.018   9.535   0.348
 6548SOL    HW121651   4.066   9.494   0.420
 6548SOL    HW221652   4.036   9.629   0.359
 6549SOL     OW21653   5.616   6.394  -0.126
 6549SOL    HW121654 -16.410   6.464  10.877
 6549SOL    HW221655  -5.513   6.429  -0.127
 6550SOL     OW21656   2.173   6.696   6.866
 6550SOL    HW121657   2.078  -4.356   6.868
 6550SOL    HW221658   2.203   6.664   6.951
 6551SOL     OW21659   2.007   2.243   9.605
 6551SOL    HW121660  -9.120   2.282  31.693
 6551SOL    HW221661 -20.012   2.316   9.617
 6552SOL     OW21662   2.874   5.342   0.828
 6552SOL    HW121663  35.976   5.252   0.803
 6552SOL    HW221664   2.820   5.395   0.769
 6553SOL     OW21665   1.851   9.664   3.311
 6553SOL    HW121666  12.813   9.611  -7.710
 6553SOL    HW221667   1.916   9.636  -7.664
 6554SOL     OW21668   2.135   5.392   4.473
 6554SOL    HW121669   2.177  16.518  -6.568
 6554SOL    HW221670   2.042   5.411  -6.552
 6555SOL     OW21671   0.201   1.824   7.404
 6555SOL    HW121672   0.107   1.843  29.480
 6555SOL    HW221673   0.210   1.742  18.396
 6556SOL     OW21674   8.293  10.832   2.107
 6556SOL    HW121675  -2.674  10.849   2.167
 6556SOL    HW221676   8.331  10.776  24.119
 6557SOL     OW21677   0.915   4.387   4.022
 6557SOL    HW121678 -10.132   4.307  -6.964
 6557SOL    HW221679  11.902   4.369   3.944
 6558SOL     OW21680   5.327   4.533   2.979
 6558SOL    HW121681   5.300  -6.470   2.895
 6558SOL    HW221682   5.309   4.439  14.011
 6559SOL     OW21683   7.173   9.651   6.818
 6559SOL    HW121684  -3.829   9.571   6.784
 6559SOL    HW221685   7.165  31.788  17.781
 6560SOL     OW21686   9.765   8.815   8.476
 6560SOL    HW121687   9.794 -13.343   8.521
 6560SOL    HW221688   9.704   8.783  -2.630
 6561SOL     OW21689   9.478   8.120   9.125
 6561SOL    HW121690  20.516   8.080  -2.001
 6561SOL    HW221691   9.569   8.115   9.153
 6562SOL     OW21692   5.530   3.996   3.093
 6562SOL    HW121693  16.491   3.949   3.064
 6562SOL    HW221694   5.497 -17.999  -7.915
 6563SOL     OW21695  10.474  10.281   8.334
 6563SOL    HW121696  10.477  10.191   8.299
 6563SOL    HW221697  10.549  10.324   8.295
 6564SOL     OW21698   2.413   5.222   0.009
 6564SOL    HW121699   2.434  49.365  -0.083
 6564SOL    HW221700   2.488  16.228   0.057
 6565SOL     OW21701   0.108   1.261   2.775
 6565SOL    HW121702   0.050  23.396  -8.212
 6565SOL    HW221703   0.079   1.276   2.685
 6566SOL     OW21704   1.942   7.114   9.979
 6566SOL    HW121705  -9.089   7.204  10.009
 6566SOL    HW221706   1.868   7.079  10.030
 6567SOL     OW21707   1.095   9.453   2.102
 6567SOL    HW121708  12.061   9.456   2.041
 6567SOL    HW221709   1.173   9.456   2.046
 6568SOL     OW21710   0.738   5.208   3.326
 6568SOL    HW121711   0.812   5.182  25.460
 6568SOL    HW221712 -10.374   5.151  14.395
 6569SOL     OW21713   1.211   9.142   9.654
 6569SOL    HW121714  -9.879   9.184   9.584
 6569SOL    HW221715   1.267 -12.868   9.688
 6570SOL     OW21716   8.892   1.219   7.535
 6570SOL    HW121717   8.878   1.276   7.610
 6570SOL    HW221718   8.837  -9.785   7.466
 6571SOL     OW21719   3.276   8.020   1.466
 6571SOL    HW121720   3.211   8.031   1.397
 6571SOL    HW221721   3.359   8.012   1.420
 6572SOL     OW21722   6.825   1.620   3.302
 6572SOL    HW121723   6.818   1.699   3.357
 6572SOL    HW221724   6.919   1.604   3.294
 6573SOL     OW21725   8.050  10.663   5.337
 6573SOL    HW121726   8.014  -0.443   5.279
 6573SOL    HW221727   8.014  10.642   5.424
 6574SOL     OW21728   9.911  10.183  -0.337
 6574SOL    HW121729  -1.117  10.139  10.618
 6574SOL    HW221730 -23.230  21.152  -0.276
 6575SOL     OW21731   8.814   1.542   6.930
 6575SOL    HW121732 -13.181  -9.454   6.945
 6575SOL    HW221733   8.753   1.589  -4.054
 6576SOL     OW21734   0.936   4.606   4.872
 6576SOL    HW121735  23.078   4.631   4.940
 6576SOL    HW221736  11.890   4.618   4.912
 6577SOL     OW21737   4.459   6.927  12.178
 6577SOL    HW121738   4.408  -4.171 -20.996
 6577SOL    HW221739  15.454  -4.114  -9.816
 6578SOL     OW21740   9.475   0.797   8.629
 6578SOL    HW121741   9.557   0.746 -13.450
 6578SOL    HW221742   9.502   0.885   8.602
 6579SOL     OW21743   4.449   0.835   4.498
 6579SOL    HW121744   4.367  11.923   4.487
 6579SOL    HW221745  15.530   0.839   4.411
 6580SOL     OW21746   9.538   1.165   2.043
 6580SOL    HW121747  -1.418   1.124   2.068
 6580SOL    HW221748  20.511   1.106   2.079
 6581SOL     OW21749   2.398   8.378  10.630
 6581SOL    HW121750   2.418   8.296  -0.363
 6581SOL    HW221751   2.305   8.393  10.647
 6582SOL     OW21752   3.181   3.947   8.221
 6582SOL    HW121753  25.183   3.892  19.252
 6582SOL    HW221754   3.156   4.016   8.283
 6583SOL     OW21755   3.020   1.918   8.541
 6583SOL    HW121756  -7.960   1.843  19.586
 6583SOL    HW221757   2.982  -9.128  30.532
 6584SOL     OW21758   0.418   5.501   3.111
 6584SOL    HW121759   0.512  16.552  14.142
 6584SOL    HW221760   0.407  27.511   3.176
 6585SOL     OW21761   7.327  10.044   0.407
 6585SOL    HW121762  18.302  21.043  11.389
 6585SOL    HW221763   7.284  10.121   0.443
 6586SOL     OW21764   2.931   5.910   0.073
 6586SOL    HW121765   2.982   5.878  -0.000
 6586SOL    HW221766   2.861  -5.194   0.084
 6587SOL     OW21767   4.221   5.569   8.737
 6587SOL    HW121768   4.199  -5.399   8.796
 6587SOL    HW221769  -6.849   5.599   8.651
 6588SOL     OW21770   3.582   9.025   0.181
 6588SOL    HW121771   3.595   9.008  11.128
 6588SOL    HW221772   3.512   8.965   0.207
 6589SOL     OW21773  11.420   0.695   9.199
 6589SOL    HW121774 -10.733   0.635  31.278
 6589SOL    HW221775  11.440   0.708   9.292
 6590SOL     OW21776   5.820   0.783   4.978
 6590SOL    HW121777   5.735   0.774  -6.018
 6590SOL    HW221778  -5.156   0.752 -17.037
 6591SOL     OW21779   6.387   9.284   5.641
 6591SOL    HW121780   6.388  -1.670  16.638
 6591SOL    HW221781 -26.792   9.232   5.588
 6592SOL     OW21782   7.133   1.705   7.918
 6592SOL    HW121783   7.102   1.666  -3.040
 6592SOL    HW221784  -3.828  -9.285   7.944
 6593SOL     OW21785  10.356  10.243   2.933
 6593SOL    HW121786  10.387  -0.838 -30.266
 6593SOL    HW221787  21.399  10.337  -8.124
 6594SOL     OW21788   3.969   1.825   7.769
 6594SOL    HW121789  14.972  23.894   7.681
 6594SOL    HW221790  15.101   1.803  -3.281
 6595SOL     OW21791   5.294   9.498   8.178
 6595SOL    HW121792   5.263   9.585   8.154
 6595SOL    HW221793   5.215   9.444  19.217
 6596SOL     OW21794   4.524   5.784   4.036
 6596SOL    HW121795   4.458  16.888   4.008
 6596SOL    HW221796   4.595  16.876   4.072
 6597SOL     OW21797   2.097   9.112   6.229
 6597SOL    HW121798  -9.036   9.129   6.240
 6597SOL    HW221799  -8.921 -12.928   6.145
 6598SOL     OW21800   1.399   2.846   4.470
 6598SOL    HW121801   1.420   2.904   4.396
 6598SOL    HW221802   1.387  24.985   4.544
 6599SOL     OW21803   1.653   0.699  11.063
 6599SOL    HW121804   1.608   0.757  11.125
 6599SOL    HW221805   1.638   0.611   0.059
 6600SOL     OW21806   5.232  11.612   3.925
 6600SOL    HW121807   5.324 -21.510  14.937
 6600SOL    HW221808   5.203  11.521   3.921
 6601SOL     OW21809   8.917   2.188   7.752
 6601SOL    HW121810  19.934   2.095   7.754
 6601SOL    HW221811   8.853   2.229   7.811
 6602SOL     OW21812   3.981   4.993   8.929
 6602SOL    HW121813   3.888  16.027  19.992
 6602SOL    HW221814   4.010   5.077   8.964
 6603SOL     OW21815   6.101   3.115   4.682
 6603SOL    HW121816  17.221  14.207   4.675
 6603SOL    HW221817   6.041 -29.964   4.619
 6604SOL     OW21818   8.168   3.620   9.792
 6604SOL    HW121819   8.188   3.607  -1.155
 6604SOL    HW221820   8.119   3.541   9.767
 6605SOL     OW21821   7.655   1.634   8.903
 6605SOL    HW121822  18.646   1.714   8.917
 6605SOL    HW221823   7.604   1.585   8.839
 6606SOL     OW21824  10.428   0.558   3.325
 6606SOL    HW121825  10.415   0.602   3.242
 6606SOL    HW221826  10.451   0.468  14.341
 6607SOL     OW21827   8.348   3.224   9.279
 6607SOL    HW121828   8.378   3.250   9.366
 6607SOL    HW221829   8.253   3.218   9.287
 6608SOL     OW21830   7.845   1.898   1.184
 6608SOL    HW121831   7.925   1.950  -9.861
 6608SOL    HW221832   7.860   1.838  12.297
 6609SOL     OW21833   0.221  10.340  12.372
 6609SOL    HW121834   0.185  10.322 -20.833
 6609SOL    HW221835   0.150  10.317  12.433
 6610SOL     OW21836   4.679   3.096   9.383
 6610SOL    HW121837   4.612  14.074   9.411
 6610SOL    HW221838   4.697   3.071  20.331
 6611SOL     OW21839  10.957   9.244   5.672
 6611SOL    HW121840  -0.063  -1.702   5.673
 6611SOL    HW221841  11.006 -23.910   5.598
 6612SOL     OW21842   7.757   9.040   1.365
 6612SOL    HW121843   7.790  -1.910  -9.666
 6612SOL    HW221844   7.827   8.985  12.437
 6613SOL     OW21845   0.249   2.422   4.525
 6613SOL    HW121846   0.170   2.445   4.475
 6613SOL    HW221847   0.293   2.505   4.540
 6614SOL     OW21848  10.668   4.197   4.521
 6614SOL    HW121849 -11.322   4.208   4.554
 6614SOL    HW221850  10.678   4.197   4.425
 6615SOL     OW21851   7.306   7.189   2.156
 6615SOL    HW121852  -3.700  -3.939 -19.908
 6615SOL    HW221853   7.269   7.215   2.241
 6616SOL     OW21854   3.922   3.175   2.106
 6616SOL    HW121855   3.925   3.230   2.028
 6616SOL    HW221856   3.837   3.130   2.099
 6617SOL     OW21857   3.314   7.815   9.823
 6617SOL    HW121858  25.303   7.829   9.794
 6617SOL    HW221859   3.368   7.842   9.749
 6618SOL     OW21860   8.782   0.820   2.046
 6618SOL    HW121861   8.700   0.838   2.000
 6618SOL    HW221862   8.788   0.724  35.164
 6619SOL     OW21863   5.855   5.046   9.802
 6619SOL    HW121864   5.880  27.040   9.767
 6619SOL    HW221865   5.902  27.132   9.885
 6620SOL     OW21866   4.197   8.309   3.064
 6620SOL    HW121867   4.180  19.382   2.975
 6620SOL    HW221868   4.265   8.368   3.098
 6621SOL     OW21869   3.727   9.236   4.646
 6621SOL    HW121870  14.702   9.174  15.718
 6621SOL    HW221871   3.810   9.189   4.651
 6622SOL     OW21872   5.059  -0.529   7.768
 6622SOL    HW121873   5.026  21.490  -3.205
 6622SOL    HW221874  -5.981  21.500  -3.353
 6623SOL     OW21875   7.650   6.093   3.021
 6623SOL    HW121876   7.712   6.158  -7.986
 6623SOL    HW221877 -14.422 -15.979   2.925
 6624SOL     OW21878   6.866   6.335   2.737
 6624SOL    HW121879  40.054   6.269   2.736
 6624SOL    HW221880  17.948   6.413   2.772
 6625SOL     OW21881   8.466   5.732   0.273
 6625SOL    HW121882   8.496   5.642   0.283
 6625SOL    HW221883   8.380  16.773   0.314
 6626SOL     OW21884   2.405   3.239   7.440
 6626SOL    HW121885   2.342  36.337   7.509
 6626SOL    HW221886 -19.692   3.330  40.535
 6627SOL     OW21887   1.231  -0.119   1.175
 6627SOL    HW121888   1.148  10.878   1.195
 6627SOL    HW221889   1.209  -0.056   1.105
 6628SOL     OW21890   3.531   3.362   8.745
 6628SOL    HW121891   3.550  14.328   8.803
 6628SOL    HW221892   3.613   3.378   8.698
 6629SOL     OW21893   5.872   1.523   2.450
 6629SOL    HW121894   5.884 -20.500   2.526
 6629SOL    HW221895   5.790   1.476 -30.651
 6630SOL     OW21896   7.217   1.772   4.285
 6630SOL    HW121897   7.195   1.707   4.352
 6630SOL    HW221898  18.306   1.723   4.219
 6631SOL     OW21899   6.237  10.437   8.704
 6631SOL    HW121900   6.206  10.452  -2.246
 6631SOL    HW221901   6.306  -0.537   8.692
 6632SOL     OW21902   1.538  10.139   3.798
 6632SOL    HW121903  -9.551  10.151  -7.160
 6632SOL    HW221904   1.540  10.045  14.825
 6633SOL     OW21905  10.985  13.079   1.947
 6633SOL    HW121906  10.942  13.057   2.030
 6633SOL    HW221907  10.914 -31.077   1.883
 6634SOL     OW21908   9.089  11.278   8.952
 6634SOL    HW121909  -1.930   0.325   8.917
 6634SOL    HW221910   9.129  11.277 -13.040
 6635SOL     OW21911   7.103   5.790   2.076
 6635SOL    HW121912   7.174   5.854  24.139
 6635SOL    HW221913   7.026   5.844   2.092
 6636SOL     OW21914  10.776   9.505   7.805
 6636SOL    HW121915  10.825   9.587   7.813
 6636SOL    HW221916  10.797 -12.606 -14.362
 6637SOL     OW21917   2.720   4.786   4.172
 6637SOL    HW121918  -8.399  -6.293   4.135
 6637SOL    HW221919   2.692  -6.221   4.257
 6638SOL     OW21920   4.850   8.604   2.834
 6638SOL    HW121921   4.817   8.656  -8.279
 6638SOL    HW221922 -17.134   8.607   2.824
 6639SOL     OW21923   9.327   3.105  -0.179
 6639SOL    HW121924  20.332   3.021  10.891
 6639SOL    HW221925   9.422   3.093  -0.181
 6640SOL     OW21926   9.590   3.192   2.698
 6640SOL    HW121927   9.583  -7.941   2.715
 6640SOL    HW221928   9.509   3.215  13.693
 6641SOL     OW21929  10.727   6.246   7.488
 6641SOL    HW121930 -11.337   6.314  18.594
 6641SOL    HW221931  -0.291  17.204   7.532
 6642SOL     OW21932   2.702   1.055   1.918
 6642SOL    HW121933  24.810   1.132  13.008
 6642SOL    HW221934   2.612   1.076  -9.147
 6643SOL     OW21935   5.358   3.726   9.817
 6643SOL    HW121936  -5.618   3.778   9.767
 6643SOL    HW221937   5.395   3.637   9.818
 6644SOL     OW21938   3.404  10.594   3.115
 6644SOL    HW121939  14.369  10.604  -7.984
 6644SOL    HW221940   3.480  10.592  14.097
 6645SOL     OW21941  -2.295   8.244   5.770
 6645SOL    HW121942  19.824   8.268 -16.225
 6645SOL    HW221943  41.907   8.163  27.824
 6646SOL     OW21944  11.096   5.637   3.476
 6646SOL    HW121945  -0.011   5.569   3.473
 6646SOL    HW221946 -11.025   5.712  14.557
 6647SOL     OW21947   4.970   0.549   7.255
 6647SOL    HW121948   4.996   0.458   7.264
 6647SOL    HW221949   5.018   0.580   7.178
 6648SOL     OW21950  10.503   7.177   8.893
 6648SOL    HW121951  10.478   7.110   8.829
 6648SOL    HW221952  10.438  -3.871  31.042
 6649SOL     OW21953   1.618   8.751   4.453
 6649SOL    HW121954   1.636 -13.377  48.691
 6649SOL    HW221955   1.549   8.701   4.410
 6650SOL     OW21956   4.779  10.958   3.985
 6650SOL    HW121957   4.764  10.974   3.892
 6650SOL    HW221958   4.692  10.936  15.059
 6651SOL     OW21959   3.776   2.449  -0.650
 6651SOL    HW121960   3.684   2.444  21.457
 6651SOL    HW221961  14.827 -19.706  10.333
 6652SOL     OW21962   5.983   5.922   0.758
 6652SOL    HW121963   5.928   5.997   0.734
 6652SOL    HW221964  16.966   5.866   0.810
 6653SOL     OW21965   4.726   5.243   3.248
 6653SOL    HW121966   4.777  -5.762  36.294
 6653SOL    HW221967   4.740   5.148   3.243
 6654SOL     OW21968   3.582   4.859   0.903
 6654SOL    HW121969  14.526   4.859   0.895
 6654SOL    HW221970  36.732   4.829  11.857
 6655SOL     OW21971   1.362  11.043   1.688
 6655SOL    HW121972  23.448 -10.983   1.608
 6655SOL    HW221973  23.408  -0.081 -20.421
 6656SOL     OW21974  11.245   9.304   5.455
 6656SOL    HW121975   0.185   9.395  -5.602
 6656SOL    HW221976  11.326   9.307   5.507
 6657SOL     OW21977   9.393   1.259   5.152
 6657SOL    HW121978   9.447   1.202   5.097
 6657SOL    HW221979   9.339  12.347  -5.949
 6658SOL     OW21980   7.803   0.327  11.183
 6658SOL    HW121981   7.798  33.359 -10.935
 6658SOL    HW221982   7.716  44.524  11.168
 6659SOL     OW21983   9.279   1.134   4.626
 6659SOL    HW121984   9.268  12.265   4.651
 6659SOL    HW221985   9.363   1.131  -6.459
 6660SOL     OW21986   9.099  11.545   8.173
 6660SOL    HW121987  31.268 -10.505  -2.851
 6660SOL    HW221988  20.108   0.559  -2.940
 6661SOL     OW21989   6.586   3.737   8.794
 6661SOL    HW121990   6.544  14.802   8.876
 6661SOL    HW221991   6.517   3.691  19.785
 6662SOL     OW21992   9.808   7.762  10.193
 6662SOL    HW121993   9.873   7.737  10.128
 6662SOL    HW221994   9.858   7.782  10.272
 6663SOL     OW21995   2.566   3.153   3.944
 6663SOL    HW121996   2.539   3.109   4.024
 6663SOL    HW221997  13.693  25.199   3.926
 6664SOL     OW21998   3.395   9.968   4.921
 6664SOL    HW121999   3.406  10.047   4.974
 6664SOL    HW222000   3.377  10.001  15.872
 6665SOL     OW22001   4.431   2.054   7.961
 6665SOL    HW122002  15.562   2.028  -3.076
 6665SOL    HW222003   4.413   2.070  -3.172
 6666SOL     OW22004   4.767   2.965   0.941
 6666SOL    HW122005  -6.246  -8.114   0.858
 6666SOL    HW222006   4.674   2.985   0.930
 6667SOL     OW22007  11.048   4.232   5.662
 6667SOL    HW122008  11.107   4.308   5.670
 6667SOL    HW222009 -22.127   4.238  38.859
 6668SOL     OW22010   4.565   5.087   5.426
 6668SOL    HW122011   4.623 -16.955  16.531
 6668SOL    HW222012   4.502  16.075 -16.603
 6669SOL     OW22013  10.303   1.955   4.996
 6669SOL    HW122014  10.398   1.958 -17.091
 6669SOL    HW222015  10.288   1.940 -39.069
 6670SOL     OW22016   9.608  -0.771   5.604
 6670SOL    HW122017   9.527  21.320  -5.487
 6670SOL    HW222018   9.577  -0.794   5.691
 6671SOL     OW22019   9.035   8.091   6.018
 6671SOL    HW122020 -13.090  -3.025   6.052
 6671SOL    HW222021   9.077   8.060   5.938
 6672SOL     OW22022   5.027   8.677   3.862
 6672SOL    HW122023   5.023 -13.421  14.995
 6672SOL    HW222024   5.086   8.611   3.826
 6673SOL     OW22025  11.775   1.524   6.534
 6673SOL    HW122026  11.869   1.510   6.521
 6673SOL    HW222027 -10.325   1.600   6.479
 6674SOL     OW22028   3.250   5.634   3.385
 6674SOL    HW122029  14.313   5.671   3.470
 6674SOL    HW222030  14.285   5.710  14.366
 6675SOL     OW22031  10.716  -0.482   1.028
 6675SOL    HW122032  -0.265  10.531   0.956
 6675SOL    HW222033  10.667  -0.408  23.072
 6676SOL     OW22034   0.985   8.619   6.209
 6676SOL    HW122035   0.934 -13.380   6.202
 6676SOL    HW222036 -10.117   8.549 -26.931
 6677SOL     OW22037   2.648   3.345  11.459
 6677SOL    HW122038   2.701   3.265   0.418
 6677SOL    HW222039 -19.479   3.340  11.542
 6678SOL     OW22040  10.233   3.916   0.499
 6678SOL    HW122041  10.189 -18.197   0.421
 6678SOL    HW222042  -0.759   3.993   0.468
 6679SOL     OW22043   9.829   8.256   7.189
 6679SOL    HW122044   9.859   8.274  18.139
 6679SOL    HW222045   9.882  19.222   7.218
 6680SOL     OW22046   6.761  10.925   3.180
 6680SOL    HW122047   6.719  10.980   3.113
 6680SOL    HW222048   6.736  10.966   3.263
 6681SOL     OW22049   3.092   8.338  12.893
 6681SOL    HW122050  14.200   8.350 -20.291
 6681SOL    HW222051  14.050   8.340  12.843
 6682SOL     OW22052   9.603   3.239   3.767
 6682SOL    HW122053   9.692   3.206   3.763
 6682SOL    HW222054   9.613  -7.706   3.783
 6683SOL     OW22055   8.915   3.691   4.860
 6683SOL    HW122056   8.824   3.671   4.838
 6683SOL    HW222057   8.955  -7.321   4.777
 6684SOL     OW22058  -0.741  11.384   2.459
 6684SOL    HW122059  21.333   0.323  -8.487
 6684SOL    HW222060  -0.676  11.454  -8.585
 6685SOL     OW22061   1.698   7.008   1.612
 6685SOL    HW122062   1.719   6.991  -9.519
 6685SOL    HW222063  12.811  18.010  -9.379
 6686SOL     OW22064   8.796   8.247   3.610
 6686SOL    HW122065   8.737  19.300   3.684
 6686SOL    HW222066   8.863  30.395   3.620
 6687SOL     OW22067   5.692   0.732   7.296
 6687SOL    HW122068 -27.383   0.787   7.361
 6687SOL    HW222069   5.738 -10.391 -14.780
 6688SOL     OW22070   0.378   7.716   5.936
 6688SOL    HW122071  11.505   7.743   5.907
 6688SOL    HW222072   0.389  18.735   6.029
 6689SOL     OW22073   4.834  10.005   0.548
 6689SOL    HW122074   4.868  21.133   0.536
 6689SOL    HW222075   4.808   9.977   0.460
 6690SOL     OW22076   0.560   0.380  10.284
 6690SOL    HW122077   0.653   0.377  10.265
 6690SOL    HW222078   0.537   0.290  10.308
 6691SOL     OW22079   6.152   3.525  11.961
 6691SOL    HW122080   6.079   3.536 -21.096
 6691SOL    HW222081   6.143   3.599  11.900
 6692SOL     OW22082  11.158   4.984  10.594
 6692SOL    HW122083   0.182   5.052  10.617
 6692SOL    HW222084  11.170   4.970  10.500
 6693SOL     OW22085   9.123   2.807  -1.467
 6693SOL    HW122086   9.097  24.842  20.531
 6693SOL    HW222087  31.121   2.844  20.647
 6694SOL     OW22088   5.367   5.814  10.799
 6694SOL    HW122089   5.331   5.787  -0.325
 6694SOL    HW222090   5.441  27.834  10.814
 6695SOL     OW22091   6.770   8.211   8.345
 6695SOL    HW122092   6.774 -24.812   8.345
 6695SOL    HW222093   6.859   8.183   8.323
 6696SOL     OW22094   5.900   8.646  10.279
 6696SOL    HW122095  -5.100   8.730  10.256
 6696SOL    HW222096   5.942   8.621  21.400
 6697SOL     OW22097   8.967   1.432   7.219
 6697SOL    HW122098  -2.082  23.483  18.167
 6697SOL    HW222099   8.944   1.524   7.219
 6698SOL     OW22100   4.977   9.198   9.040
 6698SOL    HW122101  16.075   9.123   9.031
 6698SOL    HW222102  15.937   9.174   8.992
 6699SOL     OW22103   4.775   5.073   9.807
 6699SOL    HW122104  26.818   5.135  20.784
 6699SOL    HW222105   4.768   5.117   9.892
 6700SOL     OW22106   2.116   1.069   5.959
 6700SOL    HW122107   2.189   1.052   5.900
 6700SOL    HW222108   2.038  12.090  -5.133
 6701SOL     OW22109  10.907   1.125   9.136
 6701SOL    HW122110  10.852  12.122  20.110
 6701SOL    HW222111  10.916  12.255   9.105
 6702SOL     OW22112   9.509   1.966   8.848
 6702SOL    HW122113   9.568   1.985  -2.264
 6702SOL    HW222114  31.587   1.870   8.854
 6703SOL     OW22115   3.800   6.718   4.174
 6703SOL    HW122116   3.802 -26.433   4.264
 6703SOL    HW222117   3.831   6.643   4.122
 6704SOL     OW22118   5.538   6.453   9.511
 6704SOL    HW122119  -5.519  39.664   9.528
 6704SOL    HW222120 -38.701   6.419   9.473
 6705SOL     OW22121   7.227   6.192   4.057
 6705SOL    HW122122   7.236  17.142   4.026
 6705SOL    HW222123   7.154   6.228  -7.034
 6706SOL     OW22124   4.294   5.371   3.614
 6706SOL    HW122125   4.317  -5.748   3.566
 6706SOL    HW222126   4.375 -16.658   3.618
 6707SOL     OW22127   6.849   7.680   9.643
 6707SOL    HW122128   6.810   7.660   9.729
 6707SOL    HW222129  -4.175  -3.446   9.604
 6708SOL     OW22130   1.826   0.445   2.216
 6708SOL    HW122131   1.887   0.378   2.247
 6708SOL    HW222132   1.743  11.462   2.258
 6709SOL     OW22133   7.016   7.292   0.800
 6709SOL    HW122134   7.050  18.242   0.810
 6709SOL    HW222135   6.980  18.334  22.791
 6710SOL     OW22136   7.941   3.947  11.258
 6710SOL    HW122137   7.945   3.858   0.182
 6710SOL    HW222138  29.927  15.008 -21.858
 6711SOL     OW22139   5.225   9.828   8.799
 6711SOL    HW122140   5.216   9.836   8.704
 6711SOL    HW222141   5.210   9.735  30.896
 6712SOL     OW22142  13.432   7.137  10.720
 6712SOL    HW122143   2.457   7.165  10.655
 6712SOL    HW222144 -19.638  18.117  10.777
 6713SOL     OW22145   6.767   3.325   6.599
 6713SOL    HW122146   6.847   3.366   6.632
 6713SOL    HW222147   6.698   3.360   6.655
 6714SOL     OW22148   0.193   2.703   9.307
 6714SOL    HW122149   0.187  13.657   9.264
 6714SOL    HW222150   0.148   2.762   9.246
 6715SOL     OW22151   1.881   4.671   4.692
 6715SOL    HW122152  -9.229   4.730   4.722
 6715SOL    HW222153   1.886   4.604   4.761
 6716SOL     OW22154   6.046   8.182   0.410
 6716SOL    HW122155   6.020   8.273   0.417
 6716SOL    HW222156   6.018  30.222   0.493
 6717SOL     OW22157   6.861   0.883   4.396
 6717SOL    HW122158   6.948   0.893   4.359
 6717SOL    HW222159  -4.237   0.924   4.332
 6718SOL     OW22160   0.091   7.351   6.650
 6718SOL    HW122161   0.084   7.255 -15.429
 6718SOL    HW222162   0.003   7.381   6.625
 6719SOL     OW22163   4.740   5.797   0.284
 6719SOL    HW122164  15.783  27.970   0.267
 6719SOL    HW222165   4.790  16.824   0.364
 6720SOL     OW22166   8.102   0.656   2.013
 6720SOL    HW122167  19.174   0.697   1.933
 6720SOL    HW222168  19.114   0.729   2.068
 6721SOL     OW22169   4.672  10.340   9.859
 6721SOL    HW122170   4.740  21.345  20.840
 6721SOL    HW222171   4.670  10.434   9.841
 6722SOL     OW22172   4.958   4.351   6.859
 6722SOL    HW122173   4.977   4.367  28.846
 6722SOL    HW222174 -28.248   4.386  39.991
 6723SOL     OW22175   9.157   2.217   5.735
 6723SOL    HW122176   9.078   2.163   5.740
 6723SOL    HW222177  20.192  -8.766   5.811
 6724SOL     OW22178   1.908   6.883  12.784
 6724SOL    HW122179  24.013   6.965  -9.253
 6724SOL    HW222180   1.951 -15.264 -20.283
 6725SOL     OW22181   1.525  11.588   7.066
 6725SOL    HW122182   1.575  11.532   7.125
 6725SOL    HW222183   1.575   0.548   6.985
 6726SOL     OW22184   7.736   6.093   7.154
 6726SOL    HW122185   7.654 -16.024   7.186
 6726SOL    HW222186   7.791  28.097   7.133
 6727SOL     OW22187   3.325   2.216   0.038
 6727SOL    HW122188   3.326   2.184  -0.052
 6727SOL    HW222189   3.417 -19.854   0.062
 6728SOL     OW22190   8.631  10.776   8.041
 6728SOL    HW122191  -2.372  10.803  30.036
 6728SOL    HW222192   8.603  10.857  19.123
 6729SOL     OW22193   2.464   8.148   2.879
 6729SOL    HW122194  -8.536  19.208 -19.285
 6729SOL    HW222195   2.420   8.064   2.865
 6730SOL     OW22196   9.050  10.013   6.579
 6730SOL    HW122197   9.104   9.934   6.572
 6730SOL    HW222198   8.978   9.989  28.716
 6731SOL     OW22199   3.037   8.712   8.959
 6731SOL    HW122200   3.015  30.702   8.933
 6731SOL    HW222201   3.098   8.742   8.891
 6732SOL     OW22202   9.780   9.430  11.655
 6732SOL    HW122203   9.804   9.347  11.613
 6732SOL    HW222204 -12.329   9.485   0.544
 6733SOL     OW22205   9.500   1.670   0.507
 6733SOL    HW122206   9.591   1.682   0.478
 6733SOL    HW222207   9.449  -9.313   0.449
 6734SOL     OW22208  10.756   2.769   6.763
 6734SOL    HW122209  10.675   2.809   6.730
 6734SOL    HW222210  10.732  35.855   6.850
 6735SOL     OW22211   9.283   2.796   2.117
 6735SOL    HW122212   9.332   2.875   2.143
 6735SOL    HW222213   9.293   2.738   2.192
 6736SOL     OW22214   7.120   6.373  12.095
 6736SOL    HW122215  -3.824   6.369 -32.066
 6736SOL    HW222216  29.179  39.585   1.047
 6737SOL     OW22217   7.039   4.318   7.767
 6737SOL    HW122218   7.104   4.383   7.740
 6737SOL    HW222219   7.079 -17.805  18.881
 6738SOL     OW22220   1.670   0.442   5.092
 6738SOL    HW122221   1.722   0.473   5.017
 6738SOL    HW222222   1.582   0.431  -5.983
 6739SOL     OW22223   9.236   6.896   4.281
 6739SOL    HW122224  20.302   6.982   4.246
 6739SOL    HW222225   9.157   6.913   4.331
 6740SOL     OW22226   9.076   7.774   0.967
 6740SOL    HW122227   8.992   7.801  11.969
 6740SOL    HW222228   9.096   7.841   1.033
 6741SOL     OW22229   4.788   3.754  12.127
 6741SOL    HW122230  -6.244 -29.322 -10.037
 6741SOL    HW222231   4.843  14.716  12.120
 6742SOL     OW22232   3.567   9.005   4.523
 6742SOL    HW122233  -7.393  -2.038   4.470
 6742SOL    HW222234   3.498  -2.011  37.579
 6743SOL     OW22235   9.946   8.829   0.365
 6743SOL    HW122236 -12.078   8.771   0.313
 6743SOL    HW222237  10.005   8.900   0.393
 6744SOL     OW22238   0.213   7.748   2.558
 6744SOL    HW122239   0.140   7.702   2.597
 6744SOL    HW222240  11.317  18.719   2.539
 6745SOL     OW22241   1.163   7.936   1.763
 6745SOL    HW122242   1.189  29.924   1.780
 6745SOL    HW222243   1.086  -3.090   1.818
 6746SOL     OW22244   6.902   6.079   2.619
 6746SOL    HW122245   6.812   6.074  13.690
 6746SOL    HW222246   6.902  17.068   2.537
 6747SOL     OW22247   0.159   1.189  12.749
 6747SOL    HW122248   0.167   1.276  12.787
 6747SOL    HW222249   0.078   1.154 -20.332
 6748SOL     OW22250   3.358   7.559   1.909
 6748SOL    HW122251  -7.659   7.545   2.001
 6748SOL    HW222252   3.406   7.638   1.885
 6749SOL     OW22253   9.407   7.037   0.517
 6749SOL    HW122254  20.488  -3.992   0.602
 6749SOL    HW222255   9.325  29.165   0.524
 6750SOL     OW22256   6.386   3.661   1.010
 6750SOL    HW122257   6.358   3.673   1.101
 6750SOL    HW222258   6.320  -7.436  12.011
 6751SOL     OW22259   6.242   0.836   4.787
 6751SOL    HW122260   6.308   0.789  -6.303
 6751SOL    HW222261   6.252   0.803   4.876
 6752SOL     OW22262  11.076   6.781  10.992
 6752SOL    HW122263   0.070  17.826  11.082
 6752SOL    HW222264  11.069  28.951  -0.076
 6753SOL     OW22265   9.701   7.285   6.450
 6753SOL    HW122266   9.673   7.319   6.365
 6753SOL    HW222267  -1.388   7.203  -4.580
 6754SOL     OW22268  11.557   3.817   8.255
 6754SOL    HW122269  11.472 -18.222   8.238
 6754SOL    HW222270   0.532   3.830   8.349
 6755SOL     OW22271   7.406   6.245  11.082
 6755SOL    HW122272   7.328   6.199  11.051
 6755SOL    HW222273   7.405  17.272 -10.902
 6756SOL     OW22274   2.723   6.925  11.331
 6756SOL    HW122275  -8.385  17.993  11.392
 6756SOL    HW222276  -8.235   6.958 -10.709
 6757SOL     OW22277   3.288   2.204   1.523
 6757SOL    HW122278 -18.811  -8.910   1.579
 6757SOL    HW222279  -7.661  13.265   1.543
 6758SOL     OW22280  10.080   8.276   8.576
 6758SOL    HW122281   9.999   8.272   8.525
 6758SOL    HW222282  10.144 -13.764  30.596
 6759SOL     OW22283   8.987   3.076   1.560
 6759SOL    HW122284   9.035   3.126   1.494
 6759SOL    HW222285   9.045   3.004   1.584
 6760SOL     OW22286   5.220   7.521   1.777
 6760SOL    HW122287   5.179  -3.577   1.841
 6760SOL    HW222288 -16.835   7.464   1.704
 6761SOL     OW22289   4.824   1.008   5.871
 6761SOL    HW122290   4.805  11.960   5.905
 6761SOL    HW222291  26.988  12.038   5.827
 6762SOL     OW22292   8.923   8.711   5.254
 6762SOL    HW122293  19.875  -2.359   5.276
 6762SOL    HW222294  -2.085   8.648   5.189
 6763SOL     OW22295  11.946   7.343   6.672
 6763SOL    HW122296 -10.208  18.438   6.652
 6763SOL    HW222297   0.894   7.318   6.764
 6764SOL     OW22298   0.584   8.559   3.456
 6764SOL    HW122299   0.645   8.622  -7.545
 6764SOL    HW222300  11.679   8.487 -18.652
 6765SOL     OW22301   1.802   3.605   6.176
 6765SOL    HW122302   1.765   3.547   6.242
 6765SOL    HW222303   1.772  14.610   6.092
 6766SOL     OW22304   8.631  10.355   7.702
 6766SOL    HW122305   8.715  10.401   7.700
 6766SOL    HW222306  19.640  -0.681   7.612
 6767SOL     OW22307   9.016   5.567   3.448
 6767SOL    HW122308  20.028  -5.381  -7.594
 6767SOL    HW222309   8.949   5.520   3.398
 6768SOL     OW22310   0.847   2.429   8.294
 6768SOL    HW122311   0.930  13.428   8.268
 6768SOL    HW222312   0.804   2.452   8.212
 6769SOL     OW22313   3.456   8.564  10.861
 6769SOL    HW122314   3.482   8.652  10.835
 6769SOL    HW222315   3.474   8.509  10.785
 6770SOL     OW22316   3.206   2.418   1.882
 6770SOL    HW122317 -29.898   2.394   1.790
 6770SOL    HW222318   3.137   2.484   1.878
 6771SOL     OW22319   3.183  10.299   0.853
 6771SOL    HW122320   3.166  21.244 -10.184
 6771SOL    HW222321   3.150  10.327   0.768
 6772SOL     OW22322   2.553   3.871   5.797
 6772SOL    HW122323   2.498   3.794   5.804
 6772SOL    HW222324 -19.443   3.839  38.880
 6773SOL     OW22325  -0.500  10.747   6.970
 6773SOL    HW122326  -0.594  10.755   6.958
 6773SOL    HW222327  21.599  10.656   6.946
 6774SOL     OW22328   9.213   7.075   5.752
 6774SOL    HW122329  -1.872   7.159  27.830
 6774SOL    HW222330   9.279   7.085  -5.218
 6775SOL     OW22331   7.589   9.917   4.761
 6775SOL    HW122332   7.631 -12.116  -6.351
 6775SOL    HW222333 -14.523   9.986   4.818
 6776SOL     OW22334   3.245   8.797   3.382
 6776SOL    HW122335   3.220   8.713   3.342
 6776SOL    HW222336   3.339   8.805   3.363
 6777SOL     OW22337   1.033   0.149   7.417
 6777SOL    HW122338  12.093   0.241  -3.640
 6777SOL    HW222339  11.988   0.135   7.376
 6778SOL     OW22340  11.797   3.926  11.259
 6778SOL    HW122341 -21.373   4.006  11.270
 6778SOL    HW222342 -10.191  14.996 -10.822
 6779SOL     OW22343   6.873  10.079   0.829
 6779SOL    HW122344   6.822  10.029   0.892
 6779SOL    HW222345   6.810  10.104   0.762
 6780SOL     OW22346   8.850   3.830   3.756
 6780SOL    HW122347   8.877   3.921   3.744
 6780SOL    HW222348   8.757  25.908   3.735
 6781SOL     OW22349   0.131   9.466   1.764
 6781SOL    HW122350   0.108  20.598  12.812
 6781SOL    HW222351   0.196   9.452  12.872
 6782SOL     OW22352   6.455  -0.129   5.336
 6782SOL    HW122353   6.380  32.980  -5.761
 6782SOL    HW222354   6.527  10.935  16.318
 6783SOL     OW22355   4.582   1.304   1.106
 6783SOL    HW122356  26.608   1.294   1.184
 6783SOL    HW222357   4.579   1.398   1.087
 6784SOL     OW22358  12.394   4.992   3.168
 6784SOL    HW122359   1.394   5.079   3.159
 6784SOL    HW222360 -20.810   5.000  -7.914
 6785SOL     OW22361   1.298   6.093   1.215
 6785SOL    HW122362  12.412   6.146   1.245
 6785SOL    HW222363   1.235   6.098   1.286
 6786SOL     OW22364   7.658   6.708   4.738
 6786SOL    HW122365   7.661   6.613   4.749
 6786SOL    HW222366   7.571   6.733   4.768
 6787SOL     OW22367  11.168   6.387   7.111
 6787SOL    HW122368  11.079   6.352  29.179
 6787SOL    HW222369 -21.893   6.314   7.087
 6788SOL     OW22370   2.797   6.650   5.434
 6788SOL    HW122371  35.970   6.683   5.506
 6788SOL    HW222372  24.937   6.641   5.361
 6789SOL     OW22373   5.148   6.512   1.220
 6789SOL    HW122374   5.065   6.543   1.255
 6789SOL    HW222375   5.140  17.456  -9.820
 6790SOL     OW22376   5.844   8.071   3.460
 6790SOL    HW122377   5.913   8.088 -18.684
 6790SOL    HW222378   5.845  -2.892   3.517
 6791SOL     OW22379  10.862   6.876   7.009
 6791SOL    HW122380  10.909   6.796 -15.046
 6791SOL    HW222381  10.863  17.969   7.088
 6792SOL     OW22382   4.702   7.058   1.103
 6792SOL    HW122383  15.762   7.103   1.185
 6792SOL    HW222384   4.615   7.021   1.116
 6793SOL     OW22385   8.814   5.390   3.919
 6793SOL    HW122386  19.763   5.377   3.947
 6793SOL    HW222387  19.904 -27.732   4.001
 6794SOL     OW22388   8.680   8.675   4.652
 6794SOL    HW122389  -2.276   8.686  -6.343
 6794SOL    HW222390   8.654  -2.455  -6.369
 6795SOL     OW22391   2.019   0.237   8.727
 6795SOL    HW122392   2.039   0.289   8.805
 6795SOL    HW222393  24.177   0.243  30.752
 6796SOL     OW22394   9.315   8.917   7.381
 6796SOL    HW122395   9.305   8.970  18.499
 6796SOL    HW222396   9.341  -2.209 -14.666
 6797SOL     OW22397   1.601   1.247   5.053
 6797SOL    HW122398  -9.398  12.284   4.966
 6797SOL    HW222399   1.568   1.159   5.066
 6798SOL     OW22400   0.809   6.057   6.055
 6798SOL    HW122401   0.767   6.140   6.034
 6798SOL    HW222402  22.941   6.075   6.132
 6799SOL     OW22403   9.306  -0.940   5.408
 6799SOL    HW122404   9.310  -0.951   5.503
 6799SOL    HW222405   9.272  21.227   5.395
 6800SOL     OW22406   1.844  10.461   5.865
 6800SOL    HW122407   1.852  10.520   5.940
 6800SOL    HW222408   1.763  10.413   5.881
 6801SOL     OW22409   4.156   9.207   2.974
 6801SOL    HW122410   4.182  20.334   2.946
 6801SOL    HW222411   4.094   9.222   3.046
 6802SOL     OW22412   7.894   3.829   3.692
 6802SOL    HW122413   7.814   3.788  -7.380
 6802SOL    HW222414   7.887  -7.215   3.788
 6803SOL     OW22415   4.689   5.388   7.123
 6803SOL    HW122416   4.682   5.354   7.034
 6803SOL    HW222417   4.653   5.319  -3.861
 6804SOL     OW22418   7.136   3.024   4.106
 6804SOL    HW122419 -14.900   3.102  26.148
 6804SOL    HW222420 -36.961   2.953 -29.029
 6805SOL     OW22421   2.958   1.028   1.852
 6805SOL    HW122422   2.998  11.999   1.906
 6805SOL    HW222423   2.864   1.022 -20.207
 6806SOL     OW22424  10.624   8.110   2.396
 6806SOL    HW122425  -0.381  19.104  -8.721
 6806SOL    HW222426  10.701  19.190   2.436
 6807SOL     OW22427   4.753   7.893   7.174
 6807SOL    HW122428  -6.301   7.819   7.115
 6807SOL    HW222429   4.735   7.970   7.120
 6808SOL     OW22430   6.349   0.031   3.995
 6808SOL    HW122431   6.280  11.004   3.997
 6808SOL    HW222432   6.375   0.035   3.903
 6809SOL     OW22433   6.526   3.036   3.048
 6809SOL    HW122434   6.537   3.047   2.954
 6809SOL    HW222435  -4.602  14.107   3.066
 6810SOL     OW22436   5.958   6.392   1.300
 6810SOL    HW122437   6.010   6.465   1.333
 6810SOL    HW222438   6.022 -15.745   1.259
 6811SOL     OW22439   0.589   2.991   5.172
 6811SOL    HW122440   0.646   3.045   5.227
 6811SOL    HW222441   0.537   2.940  -5.805
 6812SOL     OW22442   4.618   5.037   7.998
 6812SOL    HW122443  15.583  -6.049   8.037
 6812SOL    HW222444   4.582 -27.997   7.971
 6813SOL     OW22445   1.534   2.592   5.695
 6813SOL    HW122446  -9.547   2.679  -5.339
 6813SOL    HW222447   1.515   2.551   5.779
 6814SOL     OW22448   3.994   4.649   9.837
 6814SOL    HW122449  15.037   4.607   9.923
 6814SOL    HW222450   3.938   4.591   9.785
 6815SOL     OW22451  11.363   3.433   6.092
 6815SOL    HW122452   0.358 -18.725   6.050
 6815SOL    HW222453   0.380   3.447   6.168
 6816SOL     OW22454   1.965   0.949   9.820
 6816SOL    HW122455   2.047   0.909   9.850
 6816SOL    HW222456   1.965 -10.003  -1.182
 6817SOL     OW22457   6.243   8.588   9.131
 6817SOL    HW122458   6.157   8.555   9.157
 6817SOL    HW222459   6.224  -2.382   9.068
 6818SOL     OW22460   5.610   3.534   1.338
 6818SOL    HW122461   5.586 -29.676   1.353
 6818SOL    HW222462   5.694   3.529   1.293
 6819SOL     OW22463   9.746   8.057   7.983
 6819SOL    HW122464   9.725   7.980  -3.003
 6819SOL    HW222465   9.688   8.051   7.908
 6820SOL     OW22466   1.952   4.245   9.937
 6820SOL    HW122467   1.969 -17.767  31.949
 6820SOL    HW222468  -9.181   4.250 -12.126
 6821SOL     OW22469   6.044   9.409   6.732
 6821SOL    HW122470   6.023  20.390   6.659
 6821SOL    HW222471   6.053 -12.584   6.691
 6822SOL     OW22472  11.363  10.025   0.572
 6822SOL    HW122473  11.323  10.089   0.631
 6822SOL    HW222474   0.260   9.953   0.569
 6823SOL     OW22475   5.587   7.197  10.150
 6823SOL    HW122476   5.592   7.191  10.246
 6823SOL    HW222477   5.494   7.204  10.131
 6824SOL     OW22478   5.563   1.243   8.899
 6824SOL    HW122479  -5.512   1.271   8.983
 6824SOL    HW222480   5.651 -20.869  -2.120
 6825SOL     OW22481   3.372   2.451   3.161
 6825SOL    HW122482  -7.722 -19.589   3.092
 6825SOL    HW222483   3.457   2.495   3.151
 6826SOL     OW22484   1.732  10.051   3.573
 6826SOL    HW122485  45.890   9.964   3.611
 6826SOL    HW222486  -9.393  10.058 -18.550
 6827SOL     OW22487  10.947  10.049   5.183
 6827SOL    HW122488  10.940  10.088   5.270
 6827SOL    HW222489  11.003  -0.930  -5.906
 6828SOL     OW22490  10.850   6.891   5.866
 6828SOL    HW122491  -0.096   6.872   5.876
 6828SOL    HW222492  10.820   6.911  16.994
 6829SOL     OW22493   9.579  10.543   2.192
 6829SOL    HW122494  -1.510  -0.520   2.113
 6829SOL    HW222495   9.667  10.509   2.176
 6830SOL     OW22496   5.509   2.882  10.374
 6830SOL    HW122497  -5.523   2.943  10.447
 6830SOL    HW222498   5.527  24.875  10.412
 6831SOL     OW22499   2.717   9.725   1.185
 6831SOL    HW122500   2.704   9.682  -9.939
 6831SOL    HW222501   2.660   9.676   1.245
 6832SOL     OW22502   8.424   6.816  10.055
 6832SOL    HW122503   8.338  28.856  10.041
 6832SOL    HW222504   8.406   6.910  10.063
 6833SOL     OW22505  10.720   0.657   1.704
 6833SOL    HW122506  10.711   0.681   1.612
 6833SOL    HW222507  10.657   0.712  -9.290
 6834SOL     OW22508   0.419   2.949  10.031
 6834SOL    HW122509   0.418  -7.998  10.004
 6834SOL    HW222510   0.421   2.901  -1.092
 6835SOL     OW22511   8.815   0.638   6.954
 6835SOL    HW122512   8.790   0.601 -15.040
 6835SOL    HW222513  19.774  11.676   6.903
 6836SOL     OW22514   4.765   3.401  10.980
 6836SOL    HW122515   4.812  25.515  -0.135
 6836SOL    HW222516 -17.292  -7.732  10.980
 6837SOL     OW22517   0.315   2.909   1.496
 6837SOL    HW122518  22.373   2.998  34.641
 6837SOL    HW222519   0.399   2.917   1.449
 6838SOL     OW22520   5.884   5.683   1.591
 6838SOL    HW122521 -16.199   5.704   1.684
 6838SOL    HW222522   5.827 -16.473   1.581
 6839SOL     OW22523   2.584   6.444   7.322
 6839SOL    HW122524   2.631  17.493   7.239
 6839SOL    HW222525   2.586   6.350  18.379
 6840SOL     OW22526   7.157   5.712  11.558
 6840SOL    HW122527 -14.953   5.721   0.428
 6840SOL    HW222528  -3.956  -5.367  11.605
 6841SOL     OW22529   8.245  10.740   1.294
 6841SOL    HW122530   8.216  10.649   1.281
 6841SOL    HW222531   8.335  10.732  12.366
 6842SOL     OW22532   4.671   4.565   7.372
 6842SOL    HW122533   4.691   4.532   7.284
 6842SOL    HW222534   4.721  15.547   7.430
 6843SOL     OW22535   5.608  -1.569   6.082
 6843SOL    HW122536 -16.453   9.437   6.169
 6843SOL    HW222537  -5.440  20.432  17.066
 6844SOL     OW22538   9.331   3.249   2.495
 6844SOL    HW122539  31.323   3.254   2.533
 6844SOL    HW222540   9.318 -40.950   2.409
 6845SOL     OW22541   2.853   2.357   6.274
 6845SOL    HW122542   2.898   2.384   6.194
 6845SOL    HW222543   2.904   2.283   6.306
 6846SOL     OW22544   7.725   4.166   3.208
 6846SOL    HW122545   7.730   4.238   3.145
 6846SOL    HW222546   7.803   4.114  -7.849
 6847SOL     OW22547  -0.435   1.447   7.549
 6847SOL    HW122548  10.694  12.469  -3.464
 6847SOL    HW222549  -0.468   1.507   7.616
 6848SOL     OW22550   6.591  -0.099   9.264
 6848SOL    HW122551  -4.514  -0.138  20.246
 6848SOL    HW222552  -4.400  10.866  20.339
 6849SOL     OW22553   1.941  -0.350   6.095
 6849SOL    HW122554  13.043  10.762  28.181
 6849SOL    HW222555   1.979  -0.419  17.190
 6850SOL     OW22556   3.473   7.454   3.684
 6850SOL    HW122557 -29.562  18.537   3.699
 6850SOL    HW222558   3.495   7.375   3.634
 6851SOL     OW22559   4.060  -0.172  10.251
 6851SOL    HW122560   4.135  -0.216 -11.869
 6851SOL    HW222561   4.017  32.877  10.301
 6852SOL     OW22562   2.431   9.568   0.944
 6852SOL    HW122563  -8.614  -1.377   0.930
 6852SOL    HW222564   2.413 -23.588   0.858
 6853SOL     OW22565   0.292  -0.456   8.073
 6853SOL    HW122566   0.281  10.626  30.238
 6853SOL    HW222567   0.285  10.490  19.131
 6854SOL     OW22568   0.273   0.791   8.588
 6854SOL    HW122569   0.291   0.702   8.619
 6854SOL    HW222570   0.344  11.850   8.527
 6855SOL     OW22571   4.996   9.793   2.811
 6855SOL    HW122572   4.991   9.721   2.874
 6855SOL    HW222573   4.917   9.785  24.837
 6856SOL     OW22574  10.130   3.687   4.385
 6856SOL    HW122575  21.196   3.770  15.465
 6856SOL    HW222576  -0.925   3.710   4.293
 6857SOL     OW22577   1.083   8.937   2.866
 6857SOL    HW122578  12.207   8.893 -19.213
 6857SOL    HW222579   1.104 -13.049 -19.214
 6858SOL     OW22580   4.617   0.622   2.744
 6858SOL    HW122581   4.698  11.663   2.691
 6858SOL    HW222582   4.621   0.538   2.791
 6859SOL     OW22583   6.417   5.146   9.223
 6859SOL    HW122584  -4.626  16.142   9.308
 6859SOL    HW222585  17.517   5.219   9.237
 6860SOL     OW22586   8.183   6.268   1.785
 6860SOL    HW122587   8.097   6.304   1.764
 6860SOL    HW222588  19.203 -15.895   1.828
 6861SOL     OW22589   3.139  11.418   6.052
 6861SOL    HW122590   3.228   0.374  17.057
 6861SOL    HW222591  14.160   0.473   6.059
 6862SOL     OW22592   9.226   8.573   4.528
 6862SOL    HW122593   9.169 -24.486 -17.503
 6862SOL    HW222594   9.169   8.502   4.500
 6863SOL     OW22595   2.115   2.632  11.173
 6863SOL    HW122596 -20.053   2.630  11.138
 6863SOL    HW222597   2.108   2.592   0.220
 6864SOL     OW22598   4.675   0.554   1.955
 6864SOL    HW122599   4.728   0.626   1.921
 6864SOL    HW222600   4.660   0.577  24.126
 6865SOL     OW22601   3.143   6.351   9.482
 6865SOL    HW122602   3.162   6.436  20.483
 6865SOL    HW222603   3.150  28.444   9.577
 6866SOL     OW22604   6.693   0.464   8.352
 6866SOL    HW122605   6.713  22.506   8.438
 6866SOL    HW222606  17.683   0.395   8.308
 6867SOL     OW22607   7.887  -0.894   2.781
 6867SOL    HW122608  18.907  21.246   2.710
 6867SOL    HW222609  30.053  -0.929 -19.319
 6868SOL     OW22610  11.590   0.565   5.814
 6868SOL    HW122611  11.568   0.532   5.727
 6868SOL    HW222612 -21.511   0.486   5.865
 6869SOL     OW22613  10.600   4.574   2.073
 6869SOL    HW122614  10.626   4.619  13.193
 6869SOL    HW222615  -0.366   4.586   2.013
 6870SOL     OW22616   7.058   7.522   4.881
 6870SOL    HW122617 -26.053  18.657   4.871
 6870SOL    HW222618 -15.108   7.508  26.998
 6871SOL     OW22619   5.181   5.259   7.923
 6871SOL    HW122620   5.259   5.252   7.979
 6871SOL    HW222621  27.277   5.199   7.851
 6872SOL     OW22622   5.407   7.728  -0.330
 6872SOL    HW122623  16.423   7.688  -0.247
 6872SOL    HW222624   5.371   7.669  10.643
 6873SOL     OW22625   6.544   8.637   3.030
 6873SOL    HW122626   6.593  -2.410   3.112
 6873SOL    HW222627   6.514   8.547   3.013
 6874SOL     OW22628   7.906   2.383   3.184
 6874SOL    HW122629  18.883   2.438   3.231
 6874SOL    HW222630   7.971   2.359   3.249
 6875SOL     OW22631   7.444   7.158   4.160
 6875SOL    HW122632   7.433  18.103   4.166
 6875SOL    HW222633  -3.662   7.194   4.218
 6876SOL     OW22634  10.779   3.562   2.428
 6876SOL    HW122635  10.803   3.652  13.443
 6876SOL    HW222636  10.707   3.573   2.490
 6877SOL     OW22637   0.111   0.234   1.084
 6877SOL    HW122638   0.164   0.160   1.056
 6877SOL    HW222639  11.089   0.197   1.147
 6878SOL     OW22640   8.499   3.154   7.255
 6878SOL    HW122641   8.581   3.110  -3.806
 6878SOL    HW222642   8.468   3.111   7.335
 6879SOL     OW22643   3.613   7.239   9.971
 6879SOL    HW122644   3.572 -14.905   9.914
 6879SOL    HW222645   3.698  18.241   9.993
 6880SOL     OW22646   3.330  10.259  14.447
 6880SOL    HW122647   3.411  10.234   3.452
 6880SOL    HW222648   3.326  10.203 -40.828
 6881SOL     OW22649   0.583   0.739   7.145
 6881SOL    HW122650   0.490  11.782   7.165
 6881SOL    HW222651   0.619  11.857   7.186
 6882SOL     OW22652   6.199   9.071   3.634
 6882SOL    HW122653  28.269   9.027  -7.490
 6882SOL    HW222654   6.262  -1.898 -18.461
 6883SOL     OW22655   6.481   8.605   2.186
 6883SOL    HW122656   6.495   8.597 -19.988
 6883SOL    HW222657   6.386  41.731   2.196
 6884SOL     OW22658   1.084   4.108   3.247
 6884SOL    HW122659   1.021   4.037   3.258
 6884SOL    HW222660   1.124  -6.920  25.412
 6885SOL     OW22661   0.606   6.797   7.769
 6885SOL    HW122662  22.775   6.794   7.738
 6885SOL    HW222663   0.613  28.888   7.864
 6886SOL     OW22664   5.063   7.955   9.176
 6886SOL    HW122665 -17.067   7.981   9.252
 6886SOL    HW222666 -39.023   7.904   9.211
 6887SOL     OW22667  11.200   3.915   4.724
 6887SOL    HW122668 -10.838 -40.210   4.804
 6887SOL    HW222669  11.138  -7.056  15.738
 6888SOL     OW22670   1.207   6.805   7.618
 6888SOL    HW122671  -9.911   6.853  -3.394
 6888SOL    HW222672  12.218   6.714   7.612
 6889SOL     OW22673   1.307   4.438   1.374
 6889SOL    HW122674   1.359  15.432   1.441
 6889SOL    HW222675   1.336  15.568   1.380
 6890SOL     OW22676   9.961   2.227   4.745
 6890SOL    HW122677  10.044  13.287   4.702
 6890SOL    HW222678   9.984   2.166   4.815
 6891SOL     OW22679   8.025   4.724   7.671
 6891SOL    HW122680   8.066   4.691 -14.488
 6891SOL    HW222681   7.939   4.756   7.642
 6892SOL     OW22682   4.521   3.758   6.915
 6892SOL    HW122683 -17.634  -7.308   6.966
 6892SOL    HW222684  15.580  14.721  -4.180
 6893SOL     OW22685   8.173   3.411   5.830
 6893SOL    HW122686   8.098   3.408   5.770
 6893SOL    HW222687   8.182  -7.719   5.860
 6894SOL     OW22688   8.986   9.767   8.422
 6894SOL    HW122689   9.064 -23.391   8.384
 6894SOL    HW222690   8.994  20.900 -13.677
 6895SOL     OW22691   3.000   5.384   8.564
 6895SOL    HW122692  36.114   5.292  19.577
 6895SOL    HW222693   2.938  16.430   8.636
 6896SOL     OW22694   7.281   8.183   8.837
 6896SOL    HW122695 -25.859   8.217   8.924
 6896SOL    HW222696   7.200   8.192  19.828
 6897SOL     OW22697  -0.574   4.099   4.254
 6897SOL    HW122698  10.546  15.098   4.221
 6897SOL    HW222699  -0.574  -6.853  48.375
 6898SOL     OW22700   0.832   0.827   7.503
 6898SOL    HW122701   0.795   0.865   7.423
 6898SOL    HW222702 -10.183   0.902  -3.483
 6899SOL     OW22703   1.296   1.281   4.491
 6899SOL    HW122704   1.275   1.357   4.546
 6899SOL    HW222705  -9.736   1.208  -6.487
 6900SOL     OW22706   6.937   0.754   6.488
 6900SOL    HW122707  40.040  11.720  17.586
 6900SOL    HW222708   6.970  22.792   6.407
 6901SOL     OW22709   9.027  10.884   7.279
 6901SOL    HW122710 -24.119  10.805   7.233
 6901SOL    HW222711  -2.085  10.946   7.264
 6902SOL     OW22712   6.731   1.521  12.877
 6902SOL    HW122713   6.737   1.513  -9.297
 6902SOL    HW222714   6.759  -9.429 -20.223
 6903SOL     OW22715   1.958   1.968   7.452
 6903SOL    HW122716   2.028   1.919   7.409
 6903SOL    HW222717   1.908  12.940   7.498
 6904SOL     OW22718   3.934   9.800   9.946
 6904SOL    HW122719 -29.218  20.751  -1.109
 6904SOL    HW222720 -18.051   9.792  20.972
 6905SOL     OW22721   9.949   4.403   1.732
 6905SOL    HW122722  10.008 -17.712  12.705
 6905SOL    HW222723 -12.190   4.331   1.752
 6906SOL     OW22724   7.885   9.162  10.913
 6906SOL    HW122725 -14.108   9.192 -11.137
 6906SOL    HW222726   7.884   9.068  10.933
 6907SOL     OW22727  10.542   3.546   1.902
 6907SOL    HW122728  10.604  14.643   1.947
 6907SOL    HW222729  10.462  -7.489   1.954
 6908SOL     OW22730   7.728   4.827   6.825
 6908SOL    HW122731   7.653   4.870   6.782
 6908SOL    HW222732   7.752  15.797   6.764
 6909SOL     OW22733  -0.408   0.123   0.564
 6909SOL    HW122734  10.570   0.192   0.586
 6909SOL    HW222735  -0.426   0.102   0.473
 6910SOL     OW22736   0.450  10.665   2.141
 6910SOL    HW122737   0.412  10.734   2.088
 6910SOL    HW222738   0.545  10.676   2.131
 6911SOL     OW22739   6.644   9.622   9.620
 6911SOL    HW122740   6.693   9.703   9.633
 6911SOL    HW222741   6.631  -1.423   9.525
 6912SOL     OW22742   3.501   1.339   1.829
 6912SOL    HW122743   3.540   1.260  34.985
 6912SOL    HW222744   3.454   1.379  35.021
 6913SOL     OW22745  10.307   9.098   1.422
 6913SOL    HW122746  10.347   9.073  12.545
 6913SOL    HW222747  10.292   9.014  12.416
 6914SOL     OW22748  11.408   2.237   6.845
 6914SOL    HW122749 -10.728   2.185   6.902
 6914SOL    HW222750  11.491  24.267   6.844
 6915SOL     OW22751   8.454  -0.255   9.499
 6915SOL    HW122752   8.380  32.925   9.509
 6915SOL    HW222753   8.428  -0.332   9.549
 6916SOL     OW22754   4.560   3.495  11.118
 6916SOL    HW122755   4.641   3.465  11.076
 6916SOL    HW222756   4.512  25.493   0.097
 6917SOL     OW22757   4.281   4.264   3.824
 6917SOL    HW122758   4.277 -17.865   3.906
 6917SOL    HW222759   4.339   4.213  36.887
 6918SOL     OW22760  10.702   9.196   2.438
 6918SOL    HW122761  -0.428  20.220   2.410
 6918SOL    HW222762  21.760   9.285 -19.671
 6919SOL     OW22763   2.642   2.557   7.237
 6919SOL    HW122764  -8.316   2.575   7.283
 6919SOL    HW222765  13.707   2.551   7.145
 6920SOL     OW22766   1.031   3.385   1.644
 6920SOL    HW122767   1.090   3.373   1.717
 6920SOL    HW222768   1.014   3.479   1.641
 6921SOL     OW22769   6.578   6.999   0.360
 6921SOL    HW122770   6.484 -15.063  11.399
 6921SOL    HW222771   6.589   6.927  22.502
 6922SOL     OW22772   8.076   5.131   2.700
 6922SOL    HW122773   8.153   5.087   2.738
 6922SOL    HW222774   8.002   5.093   2.746
 6923SOL     OW22775  10.797   9.791   6.739
 6923SOL    HW122776  10.771   9.795   6.647
 6923SOL    HW222777  10.714   9.789   6.788
 6924SOL     OW22778   7.837   3.344   3.221
 6924SOL    HW122779   7.803  14.294   3.220
 6924SOL    HW222780   7.871  14.397   3.133
 6925SOL     OW22781   6.605  -0.703   7.510
 6925SOL    HW122782  17.690  21.419  18.476
 6925SOL    HW222783  17.712  21.370   7.578
 6926SOL     OW22784   1.974   3.654   0.431
 6926SOL    HW122785   2.039  14.674   0.363
 6926SOL    HW222786   1.911   3.712   0.388
 6927SOL     OW22787  10.365   3.180   6.081
 6927SOL    HW122788  10.296   3.145  -4.903
 6927SOL    HW222789  -0.716   3.253   6.035
 6928SOL     OW22790   6.281   1.579   2.317
 6928SOL    HW122791   6.194   1.549   2.289
 6928SOL    HW222792   6.263  -9.406   2.394
 6929SOL     OW22793   7.777   8.544   4.254
 6929SOL    HW122794   7.842 -24.585 -17.756
 6929SOL    HW222795   7.731   8.459   4.252
 6930SOL     OW22796   9.801   3.703   4.013
 6930SOL    HW122797   9.734 -40.456  -6.958
 6930SOL    HW222798   9.764  -7.283   3.943
 6931SOL     OW22799  10.218   2.226   0.351
 6931SOL    HW122800  -0.741   2.230   0.404
 6931SOL    HW222801  10.212  13.174  11.364
 6932SOL     OW22802   3.447   5.628   2.606
 6932SOL    HW122803   3.361  16.692   2.639
 6932SOL    HW222804   3.460  16.579   2.639
 6933SOL     OW22805   0.547  10.076  11.237
 6933SOL    HW122806   0.537  10.026   0.278
 6933SOL    HW222807   0.478  10.045  11.179
 6934SOL     OW22808   4.939   7.828   4.712
 6934SOL    HW122809  -6.069  18.877  -6.417
 6934SOL    HW222810   5.013  -3.247 -39.398
 6935SOL     OW22811   1.418   1.010   7.589
 6935SOL    HW122812   1.466  23.165   7.557
 6935SOL    HW222813  12.368   1.025  29.638
 6936SOL     OW22814   1.317   9.134  10.698
 6936SOL    HW122815   1.311   9.042  10.670
 6936SOL    HW222816   1.408  -1.895 -11.355
 6937SOL     OW22817   7.511   4.310   4.420
 6937SOL    HW122818  -3.592   4.282 -17.725
 6937SOL    HW222819   7.567   4.233   4.433
 6938SOL     OW22820   3.960   6.643   3.863
 6938SOL    HW122821   3.964  39.733   3.954
 6938SOL    HW222822   3.976  50.895  14.906
 6939SOL     OW22823   1.561   4.545  11.210
 6939SOL    HW122824  -9.441   4.631   0.190
 6939SOL    HW222825   1.552   4.545  11.114
 6940SOL     OW22826   2.621   1.591   3.033
 6940SOL    HW122827   2.644   1.663   3.093
 6940SOL    HW222828   2.704  23.647   2.991
 6941SOL     OW22829   5.758   6.853   4.097
 6941SOL    HW122830   5.832   6.826  -6.997
 6941SOL    HW222831   5.741   6.778 -17.925
 6942SOL     OW22832   8.168   8.530   5.746
 6942SOL    HW122833   8.238  -2.498   5.810
 6942SOL    HW222834   8.105   8.473   5.791
 6943SOL     OW22835   2.728   1.563   8.058
 6943SOL    HW122836   2.702  -9.567   8.041
 6943SOL    HW222837  -8.358   1.615  -3.048
 6944SOL     OW22838   3.106   1.082   4.625
 6944SOL    HW122839   3.171  -9.969   4.694
 6944SOL    HW222840   3.025   1.047   4.661
 6945SOL     OW22841   1.330   5.147   7.796
 6945SOL    HW122842   1.342  -5.941   7.878
 6945SOL    HW222843   1.362   5.088   7.728
 6946SOL     OW22844   4.344   7.754  12.694
 6946SOL    HW122845  15.333   7.782 -20.349
 6946SOL    HW222846   4.339  40.947  12.633
 6947SOL     OW22847  -0.071   8.312   8.731
 6947SOL    HW122848  -0.112  -2.669   8.795
 6947SOL    HW222849  11.025   8.255   8.782
 6948SOL     OW22850   3.950   4.073  10.551
 6948SOL    HW122851   3.914  15.049  10.490
 6948SOL    HW222852   4.034  15.076  10.577
 6949SOL     OW22853   7.252   4.862  11.363
 6949SOL    HW122854   7.248   4.768 -10.698
 6949SOL    HW222855  29.424   4.884 -10.706
 6950SOL     OW22856   3.167   9.441  12.491
 6950SOL    HW122857   3.087   9.476  -9.627
 6950SOL    HW222858  -7.807   9.509   1.438
 6951SOL     OW22859   8.832   7.805   0.789
 6951SOL    HW122860   8.814   7.829   0.699
 6951SOL    HW222861   8.793   7.875   0.841
 6952SOL     OW22862   7.135   2.146  10.575
 6952SOL    HW122863   7.073   2.100 -11.448
 6952SOL    HW222864   7.154  -8.812  10.622
 6953SOL     OW22865   1.215   9.796   2.068
 6953SOL    HW122866   1.252  -1.289  -9.047
 6953SOL    HW222867   1.121   9.782   2.061
 6954SOL     OW22868   8.548   2.609   3.981
 6954SOL    HW122869  -2.456   2.633   3.896
 6954SOL    HW222870   8.623   2.573   4.029
 6955SOL     OW22871   0.514   5.849   6.749
 6955SOL    HW122872   0.423  50.034   6.736
 6955SOL    HW222873   0.544   5.822   6.663
 6956SOL     OW22874   0.657   1.316   0.468
 6956SOL    HW122875   0.711   1.276  11.576
 6956SOL    HW222876   0.670   1.259   0.392
 6957SOL     OW22877   1.459   5.613   5.127
 6957SOL    HW122878  12.419  -5.374   5.116
 6957SOL    HW222879   1.445   5.537  -5.970
 6958SOL     OW22880   4.117   4.424   4.270
 6958SOL    HW122881  -6.844   4.449  26.301
 6958SOL    HW222882   4.144   4.422   4.362
 6959SOL     OW22883   2.898   0.626   2.128
 6959SOL    HW122884   2.978   0.632   2.181
 6959SOL    HW222885   2.848   0.705   2.151
 6960SOL     OW22886   2.330   7.282   6.170
 6960SOL    HW122887   2.304   7.191   6.181
 6960SOL    HW222888   2.365  18.347   6.256
 6961SOL     OW22889   5.383   7.824   8.307
 6961SOL    HW122890   5.324   7.900  -2.734
 6961SOL    HW222891  -5.611   7.827   8.223
 6962SOL     OW22892   8.510   5.954  -0.104
 6962SOL    HW122893  30.632   5.868  21.976
 6962SOL    HW222894   8.429   5.941  -0.056
 6963SOL     OW22895   4.942   5.504   1.720
 6963SOL    HW122896   5.000   5.578   1.740
 6963SOL    HW222897   4.999   5.439   1.678
 6964SOL     OW22898   8.592   6.124   3.496
 6964SOL    HW122899   8.503  -4.939   3.523
 6964SOL    HW222900  19.627   6.127   3.401
 6965SOL     OW22901  10.026   4.278  -1.095
 6965SOL    HW122902   9.996   4.294  20.894
 6965SOL    HW222903  10.114   4.315  -1.092
 6966SOL     OW22904   6.867  10.971   0.529
 6966SOL    HW122905   6.893  10.982   0.438
 6966SOL    HW222906   6.775  10.996  11.571
 6967SOL     OW22907   6.389   7.173  10.716
 6967SOL    HW122908  28.413   7.240  10.755
 6967SOL    HW222909   6.350   7.156  10.630
 6968SOL     OW22910   2.757   4.987   2.326
 6968SOL    HW122911   2.668   4.982   2.360
 6968SOL    HW222912   2.747   5.019   2.236
 6969SOL     OW22913   3.390   7.385   8.205
 6969SOL    HW122914   3.464  29.450   8.264
 6969SOL    HW222915   3.351   7.467   8.236
 6970SOL     OW22916   9.507   3.648  10.605
 6970SOL    HW122917  20.521   3.572  10.656
 6970SOL    HW222918   9.600   3.635 -11.492
 6971SOL     OW22919  11.737   9.558   5.281
 6971SOL    HW122920   0.778   9.547   5.331
 6971SOL    HW222921   0.716 -12.450   5.220
 6972SOL     OW22922   7.614   6.022   6.348
 6972SOL    HW122923 -14.554   6.050 -48.873
 6972SOL    HW222924 -14.443   5.957  17.321
 6973SOL     OW22925   9.657   3.898   6.313
 6973SOL    HW122926   9.582   3.957   6.317
 6973SOL    HW222927   9.685  14.941   6.221
 6974SOL     OW22928   8.819   1.916   7.444
 6974SOL    HW122929  41.890   1.834   7.430
 6974SOL    HW222930   8.883  -9.121   7.373
 6975SOL     OW22931   2.508   8.890  10.675
 6975SOL    HW122932  35.683  -2.227  10.671
 6975SOL    HW222933  24.624   8.951  10.611
 6976SOL     OW22934   2.315   0.603   9.896
 6976SOL    HW122935   2.305   0.549   9.817
 6976SOL    HW222936  13.441   0.580  20.969
 6977SOL     OW22937   2.646   5.979  10.884
 6977SOL    HW122938  13.673  17.013  10.979
 6977SOL    HW222939   2.683   5.894  10.860
 6978SOL     OW22940   1.845   4.822   3.880
 6978SOL    HW122941  24.005  26.854   3.902
 6978SOL    HW222942  34.977   4.909   3.917
 6979SOL     OW22943   8.494   5.857   6.953
 6979SOL    HW122944   8.572  27.988   6.975
 6979SOL    HW222945  -2.573   5.819  18.076
 6980SOL     OW22946   3.216   2.786   1.732
 6980SOL    HW122947  36.331  -8.180   1.793
 6980SOL    HW222948   3.147  13.766  -9.277
 6981SOL     OW22949   6.278  10.091   3.100
 6981SOL    HW122950   6.339  10.034   3.054
 6981SOL    HW222951   6.287  10.067 -29.927
 6982SOL     OW22952   7.802   8.860  10.798
 6982SOL    HW122953   7.842   8.918  10.733
 6982SOL    HW222954   7.868   8.853  10.867
 6983SOL     OW22955   4.338   6.899   3.711
 6983SOL    HW122956   4.323  62.039  -7.403
 6983SOL    HW222957   4.428  17.919   3.738
 6984SOL     OW22958   8.973   6.408   6.671
 6984SOL    HW122959   8.909  -4.564 -15.387
 6984SOL    HW222960  20.013   6.350   6.747
 6985SOL     OW22961   9.189   9.196  11.339
 6985SOL    HW122962 -23.925   9.291  11.346
 6985SOL    HW222963  20.179   9.180   0.219
 6986SOL     OW22964   6.194  -0.273   4.430
 6986SOL    HW122965   6.209  -0.179  15.460
 6986SOL    HW222966  -4.936  21.794  26.482
 6987SOL     OW22967   6.997   8.849   7.253
 6987SOL    HW122968   6.918   8.808  29.295
 6987SOL    HW222969   6.965   8.899   7.328
 6988SOL     OW22970   4.129   7.372   1.708
 6988SOL    HW122971  26.151   7.427   1.655
 6988SOL    HW222972  26.290  18.459  -9.327
 6989SOL     OW22973   7.786   7.258   8.479
 6989SOL    HW122974   7.856   7.218   8.531
 6989SOL    HW222975  -3.334   7.217   8.512
 6990SOL     OW22976   4.258   3.812   1.492
 6990SOL    HW122977   4.249  14.861   1.397
 6990SOL    HW222978   4.344  25.853   1.505
 6991SOL     OW22979   5.940  10.399   3.909
 6991SOL    HW122980   5.874  10.330   3.905
 6991SOL    HW222981   5.990  21.420   3.988
 6992SOL     OW22982   5.115   9.990   4.258
 6992SOL    HW122983   5.156   9.925   4.201
 6992SOL    HW222984 -16.907  10.066  -6.787
 6993SOL     OW22985   6.851   3.197   8.201
 6993SOL    HW122986   6.810   3.210  -2.924
 6993SOL    HW222987  17.953   3.270   8.209
 6994SOL     OW22988  10.416   0.807   5.906
 6994SOL    HW122989  10.495   0.769   5.867
 6994SOL    HW222990  10.444   0.895   5.935
 6995SOL     OW22991  10.113   7.803   3.504
 6995SOL    HW122992  10.089  -3.244   3.596
 6995SOL    HW222993  21.070  18.858   3.459
 6996SOL     OW22994   0.121   6.393   3.703
 6996SOL    HW122995   0.055   6.345  14.792
 6996SOL    HW222996   0.085   6.397   3.614
 6997SOL     OW22997   2.772   6.099  -1.499
 6997SOL    HW122998   2.852  -4.978   9.505
 6997SOL    HW222999   2.736 -27.087  31.677
 6998SOL     OW23000   9.853   4.200   1.349
 6998SOL    HW123001 -12.293   4.153   1.399
 6998SOL    HW223002   9.888  -6.775   1.410
 6999SOL     OW23003   9.969   8.642   9.631
 6999SOL    HW123004   9.981  -2.481  -1.454
 6999SOL    HW223005  10.027   8.703  20.625
 7000SOL     OW23006   7.002   1.647   6.014
 7000SOL    HW123007  -4.037   1.674 -16.157
 7000SOL    HW223008  -4.000   1.721  28.140
 7001SOL     OW23009   1.057   7.365  -0.142
 7001SOL    HW123010  12.086   7.435  21.872
 7001SOL    HW223011   1.080   7.410  22.018
 7002SOL     OW23012   1.796   6.024   6.643
 7002SOL    HW123013   1.829  17.152   6.631
 7002SOL    HW223014  12.848   5.982   6.558
 7003SOL     OW23015  10.743   3.970   2.136
 7003SOL    HW123016  10.730  14.927  13.128
 7003SOL    HW223017  10.662  26.097  13.162
 7004SOL     OW23018  11.027   7.923   4.415
 7004SOL    HW123019  11.109   7.888   4.451
 7004SOL    HW223020   0.016  19.030   4.354
 7005SOL     OW23021   5.001   1.692  -1.544
 7005SOL    HW123022  -6.117   1.642  -1.522
 7005SOL    HW223023   4.992   1.712  31.481
 7006SOL     OW23024   7.829  10.257   2.117
 7006SOL    HW123025   7.781  10.252   2.034
 7006SOL    HW223026   7.777  10.205   2.178
 7007SOL     OW23027   0.917   5.430   6.340
 7007SOL    HW123028   0.854   5.379   6.290
 7007SOL    HW223029   0.865   5.495  -4.653
 7008SOL     OW23030   1.739  10.270   7.133
 7008SOL    HW123031   1.652  10.241   7.108
 7008SOL    HW223032  -9.295 -11.718   7.103
 7009SOL     OW23033   2.753   3.255   2.960
 7009SOL    HW123034   2.838   3.239 -30.118
 7009SOL    HW223035  -8.273   3.335   2.909
 7010SOL     OW23036  10.060  11.574   4.066
 7010SOL    HW123037  10.075   0.536   4.160
 7010SOL    HW223038  10.141  11.540   4.028
 7011SOL     OW23039   4.412   7.389   9.576
 7011SOL    HW123040   4.405   7.367 -23.449
 7011SOL    HW223041  -6.704   7.445   9.560
 7012SOL     OW23042   7.784   4.394   5.098
 7012SOL    HW123043  18.779   4.327   5.150
 7012SOL    HW223044   7.728  -6.632   5.022
 7013SOL     OW23045   6.157   3.273   6.237
 7013SOL    HW123046   6.143   3.351   6.290
 7013SOL    HW223047   6.223   3.223   6.285
 7014SOL     OW23048   6.367   2.098   4.284
 7014SOL    HW123049  17.347  -8.866   4.287
 7014SOL    HW223050   6.443   2.130  -6.805
 7015SOL     OW23051   5.282   2.341  10.462
 7015SOL    HW123052   5.269 -30.765  10.368
 7015SOL    HW223053  -5.846   2.349  10.499
 7016SOL     OW23054  10.355  -0.423   0.877
 7016SOL    HW123055  32.433  -0.393   0.967
 7016SOL    HW223056  -0.608  10.659   0.839
 7017SOL     OW23057   3.098   8.565   1.166
 7017SOL    HW123058   3.186   8.602  -9.865
 7017SOL    HW223059   3.042   8.642   1.152
 7018SOL     OW23060   7.887   9.453   4.339
 7018SOL    HW123061   7.807   9.499   4.362
 7018SOL    HW223062   7.870   9.415   4.253
 7019SOL     OW23063   8.125   8.187  10.759
 7019SOL    HW123064  -2.998   8.141  -0.271
 7019SOL    HW223065 -24.938   8.152 -33.330
 7020SOL     OW23066   5.604   1.055   7.711
 7020SOL    HW123067   5.588  12.018   7.766
 7020SOL    HW223068   5.688  -9.950  18.781
 7021SOL     OW23069   8.624   7.786   6.045
 7021SOL    HW123070   8.637   7.877  -5.023
 7021SOL    HW223071   8.568 -14.332   5.978
 7022SOL     OW23072   2.784   8.334   9.266
 7022SOL    HW123073   2.743   8.278   9.199
 7022SOL    HW223074   2.876   8.308   9.266
 7023SOL     OW23075  10.583   6.756   6.517
 7023SOL    HW123076  10.497   6.766  17.596
 7023SOL    HW223077  10.617   6.675   6.554
 7024SOL     OW23078   2.475  10.974   3.586
 7024SOL    HW123079   2.407  11.042   3.588
 7024SOL    HW223080   2.487  10.956   3.493
 7025SOL     OW23081   5.807   5.701  -1.164
 7025SOL    HW123082  16.904   5.702  20.991
 7025SOL    HW223083   5.728   5.656  -1.134
 7026SOL     OW23084   9.952   7.165   5.129
 7026SOL    HW123085  20.999  -3.799  -5.969
 7026SOL    HW223086   9.902  -3.939   5.078
 7027SOL     OW23087   4.715   5.005   1.428
 7027SOL    HW123088   4.712 -28.019   1.440
 7027SOL    HW223089  26.715 -28.147  12.511
 7028SOL     OW23090  -0.731   2.580   5.045
 7028SOL    HW123091  -0.773   2.561  16.000
 7028SOL    HW223092  32.368   2.672   5.061
 7029SOL     OW23093  11.769   5.677   4.772
 7029SOL    HW123094 -21.397   5.674   4.855
 7029SOL    HW223095  11.733   5.753   4.726
 7030SOL     OW23096   5.805   0.297  -0.802
 7030SOL    HW123097   5.781  11.360  -0.712
 7030SOL    HW223098   5.722 -10.757  21.233
 7031SOL     OW23099   4.430   5.211   2.941
 7031SOL    HW123100   4.353   5.214  -8.155
 7031SOL    HW223101   4.503  16.264   2.881
 7032SOL     OW23102   4.511   7.692   7.202
 7032SOL    HW123103   4.591   7.645  -3.861
 7032SOL    HW223104  -6.560   7.647   7.280
 7033SOL     OW23105   9.830  12.418   0.788
 7033SOL    HW123106  -1.188   1.364  22.959
 7033SOL    HW223107   9.735  -9.653 -10.254
 7034SOL     OW23108   9.526  10.487   3.248
 7034SOL    HW123109 -34.606  10.516   3.335
 7034SOL    HW223110 -23.631  10.400  14.301
 7035SOL     OW23111   2.626   4.202   5.247
 7035SOL    HW123112   2.686   4.243  16.225
 7035SOL    HW223113  -8.427  -6.772  16.354
 7036SOL     OW23114   8.346   8.156   4.563
 7036SOL    HW123115   8.359   8.142  26.548
 7036SOL    HW223116   8.356   8.250   4.574
 7037SOL     OW23117  10.392   4.476   1.944
 7037SOL    HW123118  10.388   4.414   2.017
 7037SOL    HW223119  10.473   4.525   1.959
 7038SOL     OW23120   6.808  -0.711   3.726
 7038SOL    HW123121  -4.324  32.400   3.751
 7038SOL    HW223122  -4.198  32.479  14.819
 7039SOL     OW23123   4.496   4.304   9.034
 7039SOL    HW123124   4.463   4.369   9.096
 7039SOL    HW223125   4.591   4.308   9.043
 7040SOL     OW23126   5.990   4.314   0.945
 7040SOL    HW123127   5.954 -17.697   1.001
 7040SOL    HW223128  -5.126  -6.773  34.031
 7041SOL     OW23129   6.520   9.370   1.992
 7041SOL    HW123130   6.508   9.455   1.950
 7041SOL    HW223131   6.457  -1.671  13.103
 7042SOL     OW23132   8.654   9.323   7.545
 7042SOL    HW123133 -24.514 -23.855  18.642
 7042SOL    HW223134   8.604   9.405   7.547
 7043SOL     OW23135   1.615   4.456   5.090
 7043SOL    HW123136   1.661   4.378   5.122
 7043SOL    HW223137   1.523   4.438   5.109
 7044SOL     OW23138   2.149   0.090   3.379
 7044SOL    HW123139   2.213   0.049  -7.719
 7044SOL    HW223140  13.180   0.180   3.346
 7045SOL     OW23141   7.133   3.027   2.739
 7045SOL    HW123142   7.098 -19.031   2.652
 7045SOL    HW223143   7.205  -7.951   2.751
 7046SOL     OW23144  -0.079   3.850   6.573
 7046SOL    HW123145  -0.099  -7.155   6.486
 7046SOL    HW223146  10.923  -7.126  39.752
 7047SOL     OW23147   8.552   1.484   4.974
 7047SOL    HW123148  19.679   1.450   4.991
 7047SOL    HW223149   8.500   1.407  15.992
 7048SOL     OW23150   8.957   7.230   2.615
 7048SOL    HW123151   8.908  18.235  -8.499
 7048SOL    HW223152   8.940   7.324  13.653
 7049SOL     OW23153   7.717   4.812   1.102
 7049SOL    HW123154   7.758  -6.308  -9.906
 7049SOL    HW223155  51.831   4.849   1.179
 7050SOL     OW23156   6.395   8.883   8.973
 7050SOL    HW123157   6.435   8.819 -13.047
 7050SOL    HW223158  28.544   8.946 -24.162
 7051SOL     OW23159   0.555  -0.307   8.595
 7051SOL    HW123160  11.511  -0.268   8.618
 7051SOL    HW223161   0.617  21.846 -35.563
 7052SOL     OW23162   8.933   2.432   5.118
 7052SOL    HW123163   8.931  -8.655   5.201
 7052SOL    HW223164   8.862   2.393   5.067
 7053SOL     OW23165   6.308  12.157   3.621
 7053SOL    HW123166   6.233   1.149   3.671
 7053SOL    HW223167   6.376   1.183   3.636
 7054SOL     OW23168   9.102  10.521   8.346
 7054SOL    HW123169  -2.017  -0.557  30.460
 7054SOL    HW223170  20.142  10.497   8.253
 7055SOL     OW23171   4.034   4.626   1.865
 7055SOL    HW123172   4.008   4.577   1.943
 7055SOL    HW223173  15.003  15.650   1.803
 7056SOL     OW23174   2.120   6.677   5.481
 7056SOL    HW123175 -30.939  -4.291   5.501
 7056SOL    HW223176   2.034  -4.331   5.507
 7057SOL     OW23177   1.805   4.371   0.009
 7057SOL    HW123178   1.806   4.294  -0.049
 7057SOL    HW223179  -9.219 -17.744   0.096
 7058SOL     OW23180   4.070   0.726   9.709
 7058SOL    HW123181  -7.022   0.806  20.757
 7058SOL    HW223182   4.127   0.727   9.785
 7059SOL     OW23183   7.830  -0.242   9.269
 7059SOL    HW123184  18.947  -0.235  -1.715
 7059SOL    HW223185   7.865  21.817   9.182
 7060SOL     OW23186   5.706   4.417   4.095
 7060SOL    HW123187   5.748  15.535   4.061
 7060SOL    HW223188  16.708   4.375   4.018
 7061SOL     OW23189   6.237   1.736   2.556
 7061SOL    HW123190 -15.760  -9.265   2.587
 7061SOL    HW223191   6.222   1.661   2.614
 7062SOL     OW23192   6.903   5.744   1.153
 7062SOL    HW123193  18.013   5.759   1.216
 7062SOL    HW223194   6.944   5.692   1.084
 7063SOL     OW23195   8.468   7.013   1.329
 7063SOL    HW123196   8.447   7.027   1.422
 7063SOL    HW223197   8.464   6.918   1.318
 7064SOL     OW23198   2.626   3.132   9.748
 7064SOL    HW123199  -8.430   3.143   9.654
 7064SOL    HW223200   2.583   3.049   9.770
 7065SOL     OW23201   8.033   0.626   8.601
 7065SOL    HW123202   8.102   0.684  -2.408
 7065SOL    HW223203   8.078   0.559   8.549
 7066SOL     OW23204   5.308   8.510   5.076
 7066SOL    HW123205  16.311   8.598  16.105
 7066SOL    HW223206  -5.643   8.517  27.119
 7067SOL     OW23207   5.969   1.306   9.941
 7067SOL    HW123208   5.945   1.372 -12.073
 7067SOL    HW223209   5.943   1.223   9.981
 7068SOL     OW23210   4.000  10.551   7.581
 7068SOL    HW123211   4.045  10.635   7.571
 7068SOL    HW223212   3.989  10.520  -3.548
 7069SOL     OW23213   3.253   1.920   2.432
 7069SOL    HW123214  25.273   1.877   2.493
 7069SOL    HW223215  14.367   1.860 -19.656
 7070SOL     OW23216   6.335   6.428   1.001
 7070SOL    HW123217   6.377   6.383   0.927
 7070SOL    HW223218  28.327   6.451   0.969
 7071SOL     OW23219   5.366   3.153   3.484
 7071SOL    HW123220 -16.693   3.115   3.398
 7071SOL    HW223221   5.284   3.112   3.510
 7072SOL     OW23222   9.797   6.779   3.283
 7072SOL    HW123223   9.702   6.792   3.284
 7072SOL    HW223224   9.828  39.945  -7.680
 7073SOL     OW23225   7.844   4.969  10.340
 7073SOL    HW123226   7.805   4.901  -0.646
 7073SOL    HW223227   7.841   4.934 -22.868
 7074SOL     OW23228   0.082   1.240  11.422
 7074SOL    HW123229   0.019  12.329   0.329
 7074SOL    HW223230  11.138   1.160  11.372
 7075SOL     OW23231  -0.613   7.393   9.501
 7075SOL    HW123232  10.503   7.448 -12.564
 7075SOL    HW223233  -0.595   7.314   9.552
 7076SOL     OW23234   5.689   6.483   2.332
 7076SOL    HW123235  -5.267  17.502  24.370
 7076SOL    HW223236   5.686   6.428   2.410
 7077SOL     OW23237   5.826   3.945   7.582
 7077SOL    HW123238  -5.167   4.019  29.623
 7077SOL    HW223239   5.801  37.010   7.507
 7078SOL     OW23240   0.727   5.249   8.838
 7078SOL    HW123241   0.760  27.239   8.841
 7078SOL    HW223242   0.632   5.240   8.840
 7079SOL     OW23243   6.548  -2.455   3.491
 7079SOL    HW123244  17.552  19.550 -18.637
 7079SOL    HW223245   6.474  52.774   3.543
 7080SOL     OW23246   5.768  10.299   4.811
 7080SOL    HW123247  -5.355  21.292 -17.274
 7080SOL    HW223248   5.756  10.376 -17.325
 7081SOL     OW23249   6.231   1.699   1.915
 7081SOL    HW123250  17.262   1.792   1.895
 7081SOL    HW223251  28.361   1.696   1.995
 7082SOL     OW23252   6.618   8.137   5.130
 7082SOL    HW123253   6.655   8.074  16.108
 7082SOL    HW223254  -4.490   8.088   5.176
 7083SOL     OW23255   7.195  -1.750   8.788
 7083SOL    HW123256   7.118   9.341   8.815
 7083SOL    HW223257  -3.849  31.289   8.841
 7084SOL     OW23258   3.725   3.708   8.439
 7084SOL    HW123259  14.673  -7.335  19.449
 7084SOL    HW223260   3.766   3.632   8.398
 7085SOL     OW23261   1.193   5.552   9.834
 7085SOL    HW123262  12.210  -5.574  -1.239
 7085SOL    HW223263   1.157   5.613  20.809
 7086SOL     OW23264  11.642   1.370   8.675
 7086SOL    HW123265  11.557   1.347  -2.400
 7086SOL    HW223266 -10.452   1.385  -2.271
 7087SOL     OW23267   2.386   8.625   5.616
 7087SOL    HW123268   2.460  19.722  16.674
 7087SOL    HW223269   2.419 -13.518   5.553
 7088SOL     OW23270   0.130   6.096   0.945
 7088SOL    HW123271   0.081  -5.025   0.933
 7088SOL    HW223272   0.193   6.098 -10.166
 7089SOL     OW23273   0.881   4.527   8.927
 7089SOL    HW123274  34.067   4.586   8.962
 7089SOL    HW223275   0.808   4.538   8.987
 7090SOL     OW23276   3.795   1.738   5.885
 7090SOL    HW123277   3.792  -9.261 -16.280
 7090SOL    HW223278  -7.336  -9.317   5.908
 7091SOL     OW23279  11.031   2.944   3.195
 7091SOL    HW123280  11.009  -8.107   3.288
 7091SOL    HW223281  11.121  24.989 -18.892
 7092SOL     OW23282  10.939   6.811   6.193
 7092SOL    HW123283  10.859 -26.265   6.163
 7092SOL    HW223284 -33.189  -4.174   6.266
 7093SOL     OW23285  -0.179  10.943   1.042
 7093SOL    HW123286  -0.199  11.035   1.023
 7093SOL    HW223287  10.862  10.901   0.956
 7094SOL     OW23288   0.795   8.470   6.834
 7094SOL    HW123289  11.742  30.523   6.840
 7094SOL    HW223290   0.812  -2.523   6.916
 7095SOL     OW23291   6.059   5.320   6.833
 7095SOL    HW123292   6.057   5.226   6.815
 7095SOL    HW223293   6.038   5.362 -15.330
 7096SOL     OW23294   0.704   9.079   7.366
 7096SOL    HW123295   0.744  -1.955  -3.760
 7096SOL    HW223296   0.774   9.103  -3.613
 7097SOL     OW23297  11.601   4.595   8.091
 7097SOL    HW123298 -21.444   4.648  19.162
 7097SOL    HW223299  11.630   4.504   8.104
 7098SOL     OW23300   9.869   2.182   2.497
 7098SOL    HW123301  -1.078   2.208  13.546
 7098SOL    HW223302   9.872  -8.945   2.459
 7099SOL     OW23303  10.985  11.837   0.131
 7099SOL    HW123304  10.964 -10.170   0.071
 7099SOL    HW223305   0.040   0.805   0.145
 7100SOL     OW23306   7.552   7.625   4.968
 7100SOL    HW123307   7.463   7.596  15.986
 7100SOL    HW223308  18.618   7.570   5.042
 7101SOL     OW23309   3.504   1.553   8.826
 7101SOL    HW123310  14.483  -9.541   8.776
 7101SOL    HW223311   3.478   1.541   8.917
 7102SOL     OW23312   6.678   7.307   2.854
 7102SOL    HW123313   6.616 -14.731   2.793
 7102SOL    HW223314   6.624 -36.900  24.994
 7103SOL     OW23315  10.327   8.431   9.972
 7103SOL    HW123316  10.420  -2.586 -34.189
 7103SOL    HW223317  10.290 -13.592  10.040
 7104SOL     OW23318   7.969   8.234   7.272
 7104SOL    HW123319   7.969  30.236   7.329
 7104SOL    HW223320   7.926   8.302   7.323
 7105SOL     OW23321   0.953   8.175  10.923
 7105SOL    HW123322   0.988 -13.886 -11.069
 7105SOL    HW223323   0.929   8.261  10.888
 7106SOL     OW23324  -0.379   8.215   8.973
 7106SOL    HW123325  10.594   8.160   9.014
 7106SOL    HW223326  21.776   8.158 -13.117
 7107SOL     OW23327   3.314   1.371   0.015
 7107SOL    HW123328   3.265  12.492  11.042
 7107SOL    HW223329   3.274   1.310  -0.047
 7108SOL     OW23330   0.262  10.954   9.395
 7108SOL    HW123331   0.323  10.979   9.465
 7108SOL    HW223332   0.195  10.902   9.438
 7109SOL     OW23333   3.271   4.653   6.143
 7109SOL    HW123334   3.317  -6.333   6.207
 7109SOL    HW223335   3.340  37.736  17.126
 7110SOL     OW23336   8.715   9.048   3.352
 7110SOL    HW123337   8.769   8.988   3.301
 7110SOL    HW223338   8.661  -1.947  25.367
 7111SOL     OW23339   1.027   9.243   9.902
 7111SOL    HW123340 -10.058   9.160   9.921
 7111SOL    HW223341   1.105   9.241   9.957
 7112SOL     OW23342   0.587   8.104   0.955
 7112SOL    HW123343   0.565   8.185   1.002
 7112SOL    HW223344   0.515   8.044   0.975
 7113SOL     OW23345   0.734   7.839   6.361
 7113SOL    HW123346   0.755   7.865   6.451
 7113SOL    HW223347  11.689   7.879   6.344
 7114SOL     OW23348   2.701   9.706   3.635
 7114SOL    HW123349   2.745  20.686   3.574
 7114SOL    HW223350   2.641   9.756   3.581
 7115SOL     OW23351   1.502   1.551   2.016
 7115SOL    HW123352   1.440   1.484   2.046
 7115SOL    HW223353   1.449   1.631   2.011
 7116SOL     OW23354   4.285   8.341   0.757
 7116SOL    HW123355   4.255  -2.607   0.759
 7116SOL    HW223356   4.333  -2.709   0.839
 7117SOL     OW23357   2.173   6.241   2.979
 7117SOL    HW123358  13.209   6.169  14.081
 7117SOL    HW223359   2.189   6.319   3.032
 7118SOL     OW23360   4.806   9.787   9.771
 7118SOL    HW123361 -28.225  -1.273   9.802
 7118SOL    HW223362   4.750   9.723  20.854
 7119SOL     OW23363   5.747   8.407   2.004
 7119SOL    HW123364   5.725   8.481  24.027
 7119SOL    HW223365  16.796   8.444   2.091
 7120SOL     OW23366   0.065   5.401  10.557
 7120SOL    HW123367   0.106   5.483  -0.510
 7120SOL    HW223368  11.164   5.332  10.526
 7121SOL     OW23369   4.785   1.850   5.799
 7121SOL    HW123370   4.705   1.802   5.781
 7121SOL    HW223371   4.756   1.935   5.832
 7122SOL     OW23372  10.057   7.082   3.468
 7122SOL    HW123373  21.167   7.031   3.510
 7122SOL    HW223374  10.077   7.078  -7.665
 7123SOL     OW23375   9.468   9.451   6.255
 7123SOL    HW123376   9.519   9.500   6.319
 7123SOL    HW223377   9.533   9.413   6.197
 7124SOL     OW23378   7.122   6.103   4.545
 7124SOL    HW123379  -3.930   6.029  15.526
 7124SOL    HW223380   7.061   6.169  15.553
 7125SOL     OW23381   6.823  10.256  11.483
 7125SOL    HW123382   6.866  10.177 -10.562
 7125SOL    HW223383  -4.263  10.293  11.558
 7126SOL     OW23384   7.546   5.678  10.567
 7126SOL    HW123385   7.479   5.614  10.540
 7126SOL    HW223386   7.623   5.653 -11.563
 7127SOL     OW23387   1.298   1.531   3.393
 7127SOL    HW123388 -20.769   1.538   3.298
 7127SOL    HW223389   1.238   1.603   3.415
 7128SOL     OW23390   2.757  10.959   5.145
 7128SOL    HW123391   2.770  22.093  16.195
 7128SOL    HW223392   2.837  -0.119  27.261
 7129SOL     OW23393   5.245   9.256   5.984
 7129SOL    HW123394   5.339   9.265   5.969
 7129SOL    HW223395  27.308   9.298   6.069
 7130SOL     OW23396  10.029   8.289   1.767
 7130SOL    HW123397  10.115   8.297  23.887
 7130SOL    HW223398  10.045  19.350   1.675
 7131SOL     OW23399   2.198   5.783   2.855
 7131SOL    HW123400  24.339  16.812  13.967
 7131SOL    HW223401   2.224   5.718  13.830
 7132SOL     OW23402   9.330   1.138   1.200
 7132SOL    HW123403   9.318   1.176   1.287
 7132SOL    HW223404  -1.782   1.173   1.148
 7133SOL     OW23405   1.929   1.201   6.520
 7133SOL    HW123406   1.895  -9.877  -4.600
 7133SOL    HW223407   1.940   1.127   6.579
 7134SOL     OW23408   7.063   2.313   8.002
 7134SOL    HW123409   6.997  -8.764   8.060
 7134SOL    HW223410   7.015   2.335   7.922
 7135SOL     OW23411   8.799   8.597   2.587
 7135SOL    HW123412   8.837   8.603   2.499
 7135SOL    HW223413   8.705   8.602   2.572
 7136SOL     OW23414   0.044   0.769  10.814
 7136SOL    HW123415   0.104   0.714  -0.275
 7136SOL    HW223416   0.101   0.831  10.859
 7137SOL     OW23417   9.333   3.849   1.370
 7137SOL    HW123418  -1.671   3.885   1.451
 7137SOL    HW223419  -1.639  -7.175   1.305
 7138SOL     OW23420   8.747   9.714   9.854
 7138SOL    HW123421   8.819   9.776   9.865
 7138SOL    HW223422   8.782  20.686   9.796
 7139SOL     OW23423   7.293   0.320   0.924
 7139SOL    HW123424   7.295   0.324   0.829
 7139SOL    HW223425   7.266   0.408  11.991
 7140SOL     OW23426   9.578   9.154   7.000
 7140SOL    HW123427  -1.521 -24.001   7.066
 7140SOL    HW223428   9.526   9.221  29.035
 7141SOL     OW23429  11.185   7.749   7.941
 7141SOL    HW123430  11.159   7.672  18.930
 7141SOL    HW223431   0.229   7.775   7.903
 7142SOL     OW23432   5.379   0.302   1.105
 7142SOL    HW123433   5.376  11.428   1.145
 7142SOL    HW223434   5.342  22.395   1.017
 7143SOL     OW23435   3.826   4.482   1.072
 7143SOL    HW123436  -7.151   4.478   1.144
 7143SOL    HW223437 -29.278   4.568   1.032
 7144SOL     OW23438   2.953   5.081   1.795
 7144SOL    HW123439   2.992   5.137  12.767
 7144SOL    HW223440   2.881 -16.947   1.831
 7145SOL     OW23441   3.808   5.478   6.204
 7145SOL    HW123442 -29.362  27.492   6.251
 7145SOL    HW223443  -7.163   5.504  -4.774
 7146SOL     OW23444   2.408   8.236   8.630
 7146SOL    HW123445   2.357   8.311   8.661
 7146SOL    HW223446   2.343   8.179   8.588
 7147SOL     OW23447   6.661   0.093   8.378
 7147SOL    HW123448   6.597   0.137   8.322
 7147SOL    HW223449   6.613   0.076   8.460
 7148SOL     OW23450   7.607   9.367   6.716
 7148SOL    HW123451  18.644  31.532 -15.321
 7148SOL    HW223452   7.678   9.374   6.652
 7149SOL     OW23453   3.065  10.389   3.189
 7149SOL    HW123454  -8.034  10.366  14.300
 7149SOL    HW223455   3.063  10.484   3.185
 7150SOL     OW23456  10.800   3.542  10.009
 7150SOL    HW123457  10.757   3.460   9.983
 7150SOL    HW223458  -0.164   3.514  10.060
 7151SOL     OW23459   6.199   4.100   7.956
 7151SOL    HW123460   6.153  15.106 -14.047
 7151SOL    HW223461   6.135   4.099   7.886
 7152SOL     OW23462   3.468   9.071   3.417
 7152SOL    HW123463  14.531   9.058  -7.531
 7152SOL    HW223464   3.546 -12.970  -7.662
 7153SOL     OW23465   9.983   1.672   6.664
 7153SOL    HW123466  -1.145   1.676   6.701
 7153SOL    HW223467   9.989   1.585   6.625
 7154SOL     OW23468   0.886   5.602   2.934
 7154SOL    HW123469   0.819   5.659   2.972
 7154SOL    HW223470   0.875  -5.429  -8.200
 7155SOL     OW23471   0.522   8.823   5.400
 7155SOL    HW123472   0.577   8.891   5.361
 7155SOL    HW223473   0.508  -2.280  27.409
 7156SOL     OW23474   9.459   1.395   2.204
 7156SOL    HW123475   9.388   1.334  13.225
 7156SOL    HW223476   9.526   1.374   2.140
 7157SOL     OW23477   5.466   8.668   8.630
 7157SOL    HW123478  16.429  19.747   8.672
 7157SOL    HW223479   5.434  19.678   8.545
 7158SOL     OW23480   9.352   9.249   7.866
 7158SOL    HW123481   9.364   9.324  -3.232
 7158SOL    HW223482   9.393   9.277  -3.091
 7159SOL     OW23483  10.854   8.596   1.895
 7159SOL    HW123484  10.926   8.632  -9.196
 7159SOL    HW223485  -0.263   8.646  -9.173
 7160SOL     OW23486   0.633  10.432   7.725
 7160SOL    HW123487   0.583  10.489  -3.256
 7160SOL    HW223488   0.693  10.491   7.678
 7161SOL     OW23489   2.476   6.010   8.759
 7161SOL    HW123490   2.425  -5.070  30.768
 7161SOL    HW223491  13.536   6.098  19.767
 7162SOL     OW23492   9.145   3.311   9.493
 7162SOL    HW123493  31.210   3.236   9.435
 7162SOL    HW223494   9.232   3.344   9.469
 7163SOL     OW23495  11.178   9.611   9.434
 7163SOL    HW123496   0.055  20.681  -1.641
 7163SOL    HW223497   0.204   9.668   9.394
 7164SOL     OW23498   7.570   9.624   6.877
 7164SOL    HW123499   7.626   9.604  17.992
 7164SOL    HW223500   7.483  31.712  17.954
 7165SOL     OW23501   0.585   9.767   4.990
 7165SOL    HW123502  22.656   9.829  26.997
 7165SOL    HW223503   0.676   9.740   4.988
 7166SOL     OW23504   9.106   4.087   5.904
 7166SOL    HW123505  31.267  15.161   5.939
 7166SOL    HW223506   9.123  -6.964   5.811
 7167SOL     OW23507   5.009  -0.316   4.263
 7167SOL    HW123508   5.012  10.785   4.337
 7167SOL    HW223509  27.106  -0.262 -17.893
 7168SOL     OW23510   2.092   2.227   7.823
 7168SOL    HW123511  24.158   2.147  29.953
 7168SOL    HW223512   2.004  -8.787   7.795
 7169SOL     OW23513   1.302   4.592   5.780
 7169SOL    HW123514   1.392   4.625   5.787
 7169SOL    HW223515 -20.780  15.588  38.813
 7170SOL     OW23516   8.887   7.654   2.417
 7170SOL    HW123517  -2.071   7.704   2.409
 7170SOL    HW223518   8.844   7.667  24.411
 7171SOL     OW23519   7.211   9.052   9.025
 7171SOL    HW123520   7.122   9.086   9.023
 7171SOL    HW223521  18.242   8.962   8.994
 7172SOL     OW23522  10.387   3.652   0.949
 7172SOL    HW123523  10.447   3.670   0.876
 7172SOL    HW223524  10.300   3.665 -10.128
 7173SOL     OW23525   9.815   0.040  10.751
 7173SOL    HW123526  20.871  22.095  10.660
 7173SOL    HW223527   9.902   0.053  10.789
 7174SOL     OW23528   8.088   2.540   4.050
 7174SOL    HW123529   8.021  24.676  15.051
 7174SOL    HW223530 -13.912  13.600  26.080
 7175SOL     OW23531   1.840   2.632   0.342
 7175SOL    HW123532   1.879   2.720   0.341
 7175SOL    HW223533  23.932   2.599   0.253
 7176SOL     OW23534   3.897   5.201   8.668
 7176SOL    HW123535   3.910 -16.787   8.694
 7176SOL    HW223536   3.857   5.206   8.581
 7177SOL     OW23537   1.957   2.330   1.859
 7177SOL    HW123538   1.949  -8.615 -31.272
 7177SOL    HW223539   2.049 -19.768   1.840
 7178SOL     OW23540   3.426   9.511   3.184
 7178SOL    HW123541   3.441  20.623   3.124
 7178SOL    HW223542  -7.558   9.530   3.260
 7179SOL     OW23543   8.090   8.095   2.617
 7179SOL    HW123544   8.134   8.011  24.684
 7179SOL    HW223545   8.143   8.157   2.568
 7180SOL     OW23546   6.374   2.251   8.961
 7180SOL    HW123547   6.468   2.266   8.976
 7180SOL    HW223548   6.362   2.271  19.908
 7181SOL     OW23549   7.114   1.063  10.220
 7181SOL    HW123550   7.084   1.136  10.166
 7181SOL    HW223551  18.183  12.037  -0.882
 7182SOL     OW23552  10.013   3.524   3.941
 7182SOL    HW123553   9.941  -7.468   3.982
 7182SOL    HW223554  10.023 -29.554  -7.185
 7183SOL     OW23555   1.818   4.100   4.949
 7183SOL    HW123556   1.814  -6.877  16.060
 7183SOL    HW223557 -20.282 -18.063 -17.090
 7184SOL     OW23558   0.638  10.019   9.348
 7184SOL    HW123559   0.721  -0.978   9.367
 7184SOL    HW223560   0.575  10.059   9.408
 7185SOL     OW23561  10.974   1.485   3.403
 7185SOL    HW123562  10.978   1.568   3.355
 7185SOL    HW223563  10.986   1.418 -18.743
 7186SOL     OW23564   6.355   7.688   7.298
 7186SOL    HW123565  -4.648   7.679 -25.909
 7186SOL    HW223566  -4.662   7.778  -3.716
 7187SOL     OW23567   1.412   8.613  10.636
 7187SOL    HW123568   1.475   8.625  10.564
 7187SOL    HW223569  -9.675   8.534  -0.426
 7188SOL     OW23570   2.759   4.169   4.110
 7188SOL    HW123571   2.835   4.111   4.113
 7188SOL    HW223572   2.713   4.152   4.192
 7189SOL     OW23573   1.637   4.263   2.609
 7189SOL    HW123574   1.709 -28.911   2.640
 7189SOL    HW223575  -9.369 -17.727   2.614
 7190SOL     OW23576   5.557   7.494   1.475
 7190SOL    HW123577   5.618   7.425   1.501
 7190SOL    HW223578   5.613   7.567   1.450
 7191SOL     OW23579   0.777   2.929   3.756
 7191SOL    HW123580   0.788  24.943  25.766
 7191SOL    HW223581   0.694   2.972  -7.304
 7192SOL     OW23582   3.680   4.628   6.213
 7192SOL    HW123583   3.657   4.719 -15.845
 7192SOL    HW223584   3.776   4.628   6.209
 7193SOL     OW23585   6.269   3.754  10.726
 7193SOL    HW123586   6.275   3.849  10.713
 7193SOL    HW223587  17.346   3.717  10.646
 7194SOL     OW23588   2.008   5.689   1.919
 7194SOL    HW123589  13.006   5.634   1.852
 7194SOL    HW223590   2.092  -5.325   1.880
 7195SOL     OW23591   2.428   7.302   8.816
 7195SOL    HW123592   2.500  -3.793   8.844
 7195SOL    HW223593   2.349   7.250   8.834
 7196SOL     OW23594   8.904   2.747   7.219
 7196SOL    HW123595   8.884  13.708  -3.871
 7196SOL    HW223596 -13.178  13.759  -3.729
 7197SOL     OW23597   1.826   9.172  10.854
 7197SOL    HW123598  34.911  -1.808  10.921
 7197SOL    HW223599  12.929   9.117  10.900
 7198SOL     OW23600   5.810   8.931   0.080
 7198SOL    HW123601   5.742   8.873  22.194
 7198SOL    HW223602   5.771  31.097   0.081
 7199SOL     OW23603   3.709   2.251   1.405
 7199SOL    HW123604  14.779   2.289   1.487
 7199SOL    HW223605  36.733 -19.838  12.456
 7200SOL     OW23606   4.383   9.369   0.259
 7200SOL    HW123607   4.379   9.275   0.273
 7200SOL    HW223608  15.357   9.387   0.192
 7201SOL     OW23609   4.098   2.969   9.571
 7201SOL    HW123610  26.092   2.924   9.567
 7201SOL    HW223611  -6.963   3.060   9.592
 7202SOL     OW23612   2.561   7.121   6.743
 7202SOL    HW123613   2.622   7.050   6.762
 7202SOL    HW223614   2.483   7.100   6.794
 7203SOL     OW23615   2.474   9.142   9.407
 7203SOL    HW123616   2.469   9.220  20.502
 7203SOL    HW223617   2.493   9.070  20.507
 7204SOL     OW23618   1.656   3.067   8.798
 7204SOL    HW123619   1.735   3.080   8.849
 7204SOL    HW223620   1.593  14.070   8.860
 7205SOL     OW23621  11.922   5.120   8.562
 7205SOL    HW123622  11.997   5.126  41.622
 7205SOL    HW223623 -10.182  16.251   8.579
 7206SOL     OW23624   2.111   9.843   4.153
 7206SOL    HW123625  24.119   9.779  15.192
 7206SOL    HW223626   2.157   9.829   4.070
 7207SOL     OW23627   2.756   1.598   1.204
 7207SOL    HW123628   2.763  12.571  -9.767
 7207SOL    HW223629   2.677   1.573   1.155
 7208SOL     OW23630   7.491   1.266   3.197
 7208SOL    HW123631  18.505   1.190   3.144
 7208SOL    HW223632   7.586   1.273   3.184
 7209SOL     OW23633   8.500   8.437   4.938
 7209SOL    HW123634  -2.533  -2.554   5.020
 7209SOL    HW223635  19.524  30.583   4.872
 7210SOL     OW23636   3.929   8.679   3.672
 7210SOL    HW123637   3.940   8.659  -7.275
 7210SOL    HW223638   3.834   8.675   3.658
 7211SOL     OW23639   4.411   7.093   2.864
 7211SOL    HW123640   4.376   7.073   2.777
 7211SOL    HW223641 -17.655 -15.071   2.905
 7212SOL     OW23642   5.381   4.132   9.775
 7212SOL    HW123643   5.465   4.178   9.770
 7212SOL    HW223644   5.317   4.199  -1.242
 7213SOL     OW23645   0.678   0.957   7.269
 7213SOL    HW123646   0.616   1.023  18.337
 7213SOL    HW223647   0.733  12.040   7.204
 7214SOL     OW23648   4.579   1.914   9.436
 7214SOL    HW123649   4.577  34.987   9.520
 7214SOL    HW223650   4.490   1.907   9.402
 7215SOL     OW23651   5.128   3.559   5.693
 7215SOL    HW123652  16.170   3.644   5.649
 7215SOL    HW223653   5.192   3.567   5.764
 7216SOL     OW23654  11.031   3.333   4.438
 7216SOL    HW123655  22.116   3.417  15.489
 7216SOL    HW223656 -33.078   3.288   4.370
 7217SOL     OW23657   0.734  -0.364   0.476
 7217SOL    HW123658  11.779  10.732 -10.487
 7217SOL    HW223659   0.823  10.672  11.481
 7218SOL     OW23660  11.173  11.857   2.568
 7218SOL    HW123661   0.073   0.811  -8.545
 7218SOL    HW223662  11.219   0.900 -19.525
 7219SOL     OW23663   0.711   8.144   5.040
 7219SOL    HW123664 -10.384   8.199   4.985
 7219SOL    HW223665   0.651  30.158   5.077
 7220SOL     OW23666   5.188   1.156   1.515
 7220SOL    HW123667   5.214  23.325   1.536
 7220SOL    HW223668   5.263   1.120   1.467
 7221SOL     OW23669   8.049   2.888   4.247
 7221SOL    HW123670   7.988  47.083  15.350
 7221SOL    HW223671   8.125  24.941   4.299
 7222SOL     OW23672   3.436   2.977   6.808
 7222SOL    HW123673   3.509   2.940  17.798
 7222SOL    HW223674   3.435   3.069   6.783
 7223SOL     OW23675   3.279   3.107   4.568
 7223SOL    HW123676   3.290  14.238   4.596
 7223SOL    HW223677   3.235  25.144  15.682
 7224SOL     OW23678   1.559   4.585   6.818
 7224SOL    HW123679  34.752   4.612  -4.276
 7224SOL    HW223680  12.526   4.639   6.788
 7225SOL     OW23681   5.953   6.984   9.333
 7225SOL    HW123682   5.894   6.984  -1.782
 7225SOL    HW223683 -27.078   6.979   9.295
 7226SOL     OW23684   1.040   6.226   8.981
 7226SOL    HW123685   1.091   6.275   9.045
 7226SOL    HW223686 -10.028   6.148   9.028
 7227SOL     OW23687   9.633   2.026   1.933
 7227SOL    HW123688   9.663  -9.101  23.989
 7227SOL    HW223689  20.578   2.023   1.921
 7228SOL     OW23690   1.533   9.652   7.396
 7228SOL    HW123691  -9.414   9.655  18.412
 7228SOL    HW223692   1.513   9.558   7.403
 7229SOL     OW23693   0.489   4.240   1.257
 7229SOL    HW123694   0.481  -6.706   1.279
 7229SOL    HW223695   0.447 -17.884   1.331
 7230SOL     OW23696   0.942   4.384   7.301
 7230SOL    HW123697   0.944  -6.744   7.336
 7230SOL    HW223698   0.924 -28.680   7.378
 7231SOL     OW23699   9.244   9.486   3.700
 7231SOL    HW123700  20.292  20.447 -18.434
 7231SOL    HW223701   9.248  -1.481  -7.402
 7232SOL     OW23702   7.226   0.596   9.395
 7232SOL    HW123703   7.200  11.560 -12.631
 7232SOL    HW223704   7.199   0.574  -1.733
 7233SOL     OW23705  10.137  10.225   3.362
 7233SOL    HW123706  10.217  10.178   3.388
 7233SOL    HW223707  10.132  10.211   3.267
 7234SOL     OW23708   7.209   9.966   7.110
 7234SOL    HW123709  -3.771  10.035   7.138
 7234SOL    HW223710   7.122  10.001   7.128
 7235SOL     OW23711   8.490   5.615   3.870
 7235SOL    HW123712  -2.607   5.671   3.923
 7235SOL    HW223713   8.466  16.675   3.779
 7236SOL     OW23714   9.416  10.550   0.188
 7236SOL    HW123715   9.375  10.477   0.234
 7236SOL    HW223716   9.447  10.609  11.297
 7237SOL     OW23717   2.488   1.115   6.202
 7237SOL    HW123718   2.406   1.153  17.211
 7237SOL    HW223719   2.549   1.188  -4.836
 7238SOL     OW23720   2.000   2.360   0.716
 7238SOL    HW123721   1.975   2.273   0.686
 7238SOL    HW223722  24.011   2.418   0.681
 7239SOL     OW23723   5.054   2.932  -0.026
 7239SOL    HW123724   5.015  -8.138  21.971
 7239SOL    HW223725  -6.012 -19.211   0.039
 7240SOL     OW23726   8.415   0.708   2.668
 7240SOL    HW123727   8.347   0.756   2.619
 7240SOL    HW223728   8.493 -10.324   2.613
 7241SOL     OW23729   1.571   0.433  11.127
 7241SOL    HW123730   1.638   0.376   0.050
 7241SOL    HW223731 -20.589  11.422  11.120
 7242SOL     OW23732   2.623   6.618   1.406
 7242SOL    HW123733 -19.547   6.591   1.417
 7242SOL    HW223734   2.649   6.651 -20.587
 7243SOL     OW23735   4.216  -0.138   6.272
 7243SOL    HW123736   4.180  -0.226 -26.847
 7243SOL    HW223737  26.387  10.891 -26.822
 7244SOL     OW23738   6.296   8.606   6.481
 7244SOL    HW123739   6.291   8.674   6.547
 7244SOL    HW223740   6.308   8.654 -15.681
 7245SOL     OW23741   3.174   8.006   7.121
 7245SOL    HW123742  36.329   7.962  -3.995
 7245SOL    HW223743   3.113   8.070   7.085
 7246SOL     OW23744   8.404   7.019  11.556
 7246SOL    HW123745   8.496   6.993 -21.563
 7246SOL    HW223746   8.384   7.037  11.647
 7247SOL     OW23747   0.292   2.893   0.143
 7247SOL    HW123748   0.289  -8.242   0.134
 7247SOL    HW223749   0.376  -8.129   0.185
 7248SOL     OW23750   3.864  10.730   0.046
 7248SOL    HW123751  -7.150  -0.397   0.018
 7248SOL    HW223752   3.920  10.749   0.121
 7249SOL     OW23753   0.624   9.283   9.287
 7249SOL    HW123754   0.545   9.286  -1.808
 7249SOL    HW223755   0.633   9.373   9.318
 7250SOL     OW23756   5.823   1.528   6.283
 7250SOL    HW123757  16.840  34.593   6.359
 7250SOL    HW223758  16.885  23.544  -4.824
 7251SOL     OW23759   3.414   8.080   2.612
 7251SOL    HW123760   3.488   8.050   2.665
 7251SOL    HW223761  14.481   8.064  -8.518
 7252SOL     OW23762   9.743   8.324  11.717
 7252SOL    HW123763   9.744 -13.848  11.739
 7252SOL    HW223764   9.797   8.366 -10.295
 7253SOL     OW23765   0.370   6.963   2.226
 7253SOL    HW123766  11.449   7.050  13.256
 7253SOL    HW223767  44.558   6.914  -8.889
 7254SOL     OW23768   6.595   1.703   5.481
 7254SOL    HW123769  17.597   1.719  -5.645
 7254SOL    HW223770   6.661   1.772   5.492
 7255SOL     OW23771   7.497   6.908   1.300
 7255SOL    HW123772  -3.539   6.907   1.204
 7255SOL    HW223773   7.417   6.957   1.320
 7256SOL     OW23774   8.826   3.235   8.528
 7256SOL    HW123775   8.769  14.275   8.605
 7256SOL    HW223776   8.879   3.314   8.538
 7257SOL     OW23777   7.970   1.377   9.519
 7257SOL    HW123778   7.918   1.413   9.591
 7257SOL    HW223779   7.957  -9.602   9.447
 7258SOL     OW23780   5.710   2.849   2.101
 7258SOL    HW123781  16.703   2.871  13.221
 7258SOL    HW223782  16.785  25.011  13.109
 7259SOL     OW23783   6.595   2.201   4.182
 7259SOL    HW123784   6.676  -8.823   4.230
 7259SOL    HW223785   6.620  13.242   4.090
 7260SOL     OW23786   6.579   1.180   0.470
 7260SOL    HW123787   6.504   1.152   0.523
 7260SOL    HW223788   6.561  12.312   0.450
 7261SOL     OW23789  10.335   7.121   5.035
 7261SOL    HW123790  10.397   7.086   5.098
 7261SOL    HW223791  10.312   7.208  16.108
 7262SOL     OW23792   8.696   4.641   8.355
 7262SOL    HW123793   8.782   4.654   8.397
 7262SOL    HW223794  19.693   4.727   8.361
 7263SOL     OW23795   1.215   0.911   2.401
 7263SOL    HW123796   1.246   0.952   2.482
 7263SOL    HW223797   1.133 -10.171   2.426
 7264SOL     OW23798   1.806   8.767   8.720
 7264SOL    HW123799  12.828   8.825  -2.245
 7264SOL    HW223800  12.797 -13.273   8.648
 7265SOL     OW23801   3.906   3.361   6.005
 7265SOL    HW123802   3.825   3.390  28.043
 7265SOL    HW223803  14.995   3.321   5.934
 7266SOL     OW23804   5.400   4.471   2.070
 7266SOL    HW123805   5.320   4.520   2.091
 7266SOL    HW223806   5.396 -28.724   2.128
 7267SOL     OW23807   0.488   6.532   8.344
 7267SOL    HW123808   0.527 -26.499   8.352
 7267SOL    HW223809  11.465   6.528  19.455
 7268SOL     OW23810   8.413   0.912   1.638
 7268SOL    HW123811  -2.539  11.986   1.619
 7268SOL    HW223812   8.353   0.978   1.604
 7269SOL     OW23813   5.592   1.656   3.165
 7269SOL    HW123814   5.556   1.715   3.231
 7269SOL    HW223815   5.626   1.582   3.214
 7270SOL     OW23816   4.681   1.997   7.923
 7270SOL    HW123817   4.698   1.957   7.837
 7270SOL    HW223818  26.841 -20.093   7.972
 7271SOL     OW23819   0.752   2.965   2.623
 7271SOL    HW123820  11.885   2.966   2.641
 7271SOL    HW223821  22.825   2.940  13.570
 7272SOL     OW23822   6.665   2.171   7.854
 7272SOL    HW123823  -4.410   2.106   7.914
 7272SOL    HW223824   6.599   2.241   7.853
 7273SOL     OW23825   9.322   4.678  11.277
 7273SOL    HW123826   9.260   4.620  11.322
 7273SOL    HW223827   9.303   4.765   0.273
 7274SOL     OW23828  -0.952   4.352   7.156
 7274SOL    HW123829  10.138   4.330   7.077
 7274SOL    HW223830   9.996   4.339   7.130
 7275SOL     OW23831  11.630   0.921   8.793
 7275SOL    HW123832  11.546   0.966   8.804
 7275SOL    HW223833 -21.423 -10.057   8.824
 7276SOL     OW23834   9.291   5.866   3.361
 7276SOL    HW123835   9.352  -5.103  14.422
 7276SOL    HW223836   9.315  -5.245   3.420
 7277SOL     OW23837   3.679   6.526   0.727
 7277SOL    HW123838   3.600   6.544  11.819
 7277SOL    HW223839  -7.362  17.633  11.698
 7278SOL     OW23840   6.790   1.787   8.263
 7278SOL    HW123841   6.704   1.818   8.237
 7278SOL    HW223842   6.780   1.762   8.355
 7279SOL     OW23843   4.807   1.044   4.730
 7279SOL    HW123844   4.739   1.107  15.748
 7279SOL    HW223845   4.848   1.022   4.646
 7280SOL     OW23846   5.004  11.339   5.656
 7280SOL    HW123847  26.992  11.365   5.670
 7280SOL    HW223848  16.056   0.304   5.562
 7281SOL     OW23849  10.935   2.218   0.400
 7281SOL    HW123850  10.925 -19.771  11.410
 7281SOL    HW223851  10.949  13.266 -10.545
 7282SOL     OW23852  11.250  11.669   4.352
 7282SOL    HW123853  11.242 -10.437   4.260
 7282SOL    HW223854   0.284 -10.349   4.353
 7283SOL     OW23855  11.227  -1.033   8.851
 7283SOL    HW123856 -10.780  -0.971   8.852
 7283SOL    HW223857  11.149  21.099   8.867
 7284SOL     OW23858   3.894   1.394   8.288
 7284SOL    HW123859   3.946   1.461   8.244
 7284SOL    HW223860   3.910   1.410   8.381
 7285SOL     OW23861  11.051   6.054   3.994
 7285SOL    HW123862   0.047  -4.947   4.074
 7285SOL    HW223863  10.976  17.042 -29.095
 7286SOL     OW23864   2.283  10.308   9.058
 7286SOL    HW123865   2.197  21.388  -1.978
 7286SOL    HW223866  -8.773  10.218   9.031
 7287SOL     OW23867   5.777   8.504   4.419
 7287SOL    HW123868   5.764  19.463  -6.570
 7287SOL    HW223869   5.722   8.492   4.341
 7288SOL     OW23870   6.519   6.939   8.440
 7288SOL    HW123871  -4.486   6.983   8.518
 7288SOL    HW223872  17.534   6.852   8.472
 7289SOL     OW23873   4.773   4.416  11.029
 7289SOL    HW123874   4.708   4.388 -10.986
 7289SOL    HW223875  -6.227  15.534  33.146
 7290SOL     OW23876   2.321   3.189   3.744
 7290SOL    HW123877   2.407   3.205  -7.257
 7290SOL    HW223878   2.294   3.274   3.710
 7291SOL     OW23879   5.706   1.899   9.368
 7291SOL    HW123880 -16.364   1.807  -1.699
 7291SOL    HW223881   5.766   1.908  -1.598
 7292SOL     OW23882   5.424   4.755   4.906
 7292SOL    HW123883   5.412   4.722  16.035
 7292SOL    HW223884  49.494  -6.260   4.877
 7293SOL     OW23885   9.281   8.450   2.550
 7293SOL    HW123886  31.374   8.422   2.641
 7293SOL    HW223887 -12.887   8.419   2.529
 7294SOL     OW23888   3.033   9.782   8.429
 7294SOL    HW123889  36.072   9.811   8.475
 7294SOL    HW223890   3.020   9.689  19.456
 7295SOL     OW23891   3.820   8.014   7.690
 7295SOL    HW123892   3.837  19.127   7.750
 7295SOL    HW223893   3.732   7.985   7.712
 7296SOL     OW23894   3.171   7.977   2.521
 7296SOL    HW123895   3.255   8.010   2.555
 7296SOL    HW223896  14.207   8.011   2.431
 7297SOL     OW23897   6.753   5.850   3.384
 7297SOL    HW123898   6.718   5.938  -7.643
 7297SOL    HW223899   6.836   5.864 -29.780
 7298SOL     OW23900   6.330   8.980   6.871
 7298SOL    HW123901   6.303   9.072   6.874
 7298SOL    HW223902   6.408   8.976   6.926
 7299SOL     OW23903   8.957   9.421   3.905
 7299SOL    HW123904  -2.087   9.363   3.981
 7299SOL    HW223905   9.006   9.371   3.840
 7300SOL     OW23906   1.346   6.028   2.229
 7300SOL    HW123907  12.356   6.036  24.399
 7300SOL    HW223908  12.463   6.084  35.342
 7301SOL     OW23909   9.590   5.944   9.271
 7301SOL    HW123910  20.596   6.031   9.248
 7301SOL    HW223911  20.597   5.927   9.359
 7302SOL     OW23912   7.867   2.328   6.655
 7302SOL    HW123913   7.853   2.343   6.748
 7302SOL    HW223914   7.962  -8.717   6.645
 7303SOL     OW23915   2.872   2.726   9.137
 7303SOL    HW123916   2.893   2.633  20.175
 7303SOL    HW223917   2.779   2.731   9.118
 7304SOL     OW23918   5.784   7.306   0.076
 7304SOL    HW123919   5.823  -3.659  22.110
 7304SOL    HW223920  27.790   7.342   0.126
 7305SOL     OW23921   2.081   0.799   3.648
 7305SOL    HW123922   2.023   0.863   3.608
 7305SOL    HW223923   2.162   0.847   3.666
 7306SOL     OW23924   9.808  11.506   3.960
 7306SOL    HW123925   9.895  11.500   3.999
 7306SOL    HW223926   9.824   0.475  -7.174
 7307SOL     OW23927   1.984   5.013   4.050
 7307SOL    HW123928   1.966   5.093  -7.039
 7307SOL    HW223929  -8.974  -6.060  15.052
 7308SOL     OW23930   7.535   7.849   1.639
 7308SOL    HW123931  -3.512   7.878   1.548
 7308SOL    HW223932   7.452   7.873  -9.360
 7309SOL     OW23933   5.482  10.237   0.317
 7309SOL    HW123934   5.508  -0.756  33.516
 7309SOL    HW223935   5.401  21.319   0.291
 7310SOL     OW23936   8.480  10.752   8.812
 7310SOL    HW123937  -2.540  -0.304   8.720
 7310SOL    HW223938   8.531  10.830   8.834
 7311SOL     OW23939   6.897   1.695   8.827
 7311SOL    HW123940  17.848   1.660   8.817
 7311SOL    HW223941   6.907   1.708   8.922
 7312SOL     OW23942  -3.632   7.749   5.497
 7312SOL    HW123943  29.480  -3.299 -16.487
 7312SOL    HW223944  62.516  -3.272  -5.571
 7313SOL     OW23945  12.868   6.575   2.905
 7313SOL    HW123946 -20.264 -15.583 -19.121
 7313SOL    HW223947  12.781 -26.505  -8.143
 7314SOL     OW23948   0.736   2.566   6.857
 7314SOL    HW123949  22.784   2.508 -15.153
 7314SOL    HW223950   0.658   2.612   6.827
 7315SOL     OW23951   0.998   1.457   6.473
 7315SOL    HW123952  12.090   1.390   6.517
 7315SOL    HW223953   1.051   1.484  -4.642
 7316SOL     OW23954   7.771   6.268   3.633
 7316SOL    HW123955   7.782   6.191  14.616
 7316SOL    HW223956  18.900   6.299   3.648
 7317SOL     OW23957   3.117   4.195   4.514
 7317SOL    HW123958   3.082   4.259   4.576
 7317SOL    HW223959   3.203   4.172   4.549
 7318SOL     OW23960   3.129   4.106   7.576
 7318SOL    HW123961   3.060   4.070   7.521
 7318SOL    HW223962   3.111   4.070   7.663
 7319SOL     OW23963  10.898   1.344   5.048
 7319SOL    HW123964  -0.067   1.296   5.014
 7319SOL    HW223965  21.965   1.436   5.046
 7320SOL     OW23966   3.596  10.158   3.565
 7320SOL    HW123967   3.666  10.144   3.501
 7320SOL    HW223968  14.671  10.223  14.665
 7321SOL     OW23969   5.249   9.326   6.924
 7321SOL    HW123970  -5.816  20.438   6.868
 7321SOL    HW223971   5.264   9.366   7.010
 7322SOL     OW23972   2.350  10.724   2.916
 7322SOL    HW123973  -8.778  10.727  25.033
 7322SOL    HW223974   2.389  10.645  -8.088
 7323SOL     OW23975   7.679   7.249   9.987
 7323SOL    HW123976  -3.288 -14.840  10.049
 7323SOL    HW223977   7.648   7.338  10.001
 7324SOL     OW23978   3.680   0.192   2.143
 7324SOL    HW123979   3.607   0.232  35.214
 7324SOL    HW223980  -7.347   0.107   2.101
 7325SOL     OW23981   8.469   4.788   3.662
 7325SOL    HW123982   8.489   4.800   3.755
 7325SOL    HW223983   8.540  -6.207   3.616
 7326SOL     OW23984   6.404   3.827   1.646
 7326SOL    HW123985   6.378   3.889   1.713
 7326SOL    HW223986  -4.693   3.846   1.572
 7327SOL     OW23987   3.229   6.795   1.606
 7327SOL    HW123988   3.260  -4.261 -20.384
 7327SOL    HW223989   3.180   6.717  12.622
 7328SOL     OW23990   4.901   9.487   9.018
 7328SOL    HW123991  15.953   9.509   9.111
 7328SOL    HW223992  -6.128   9.392  20.054
 7329SOL     OW23993   4.177   8.446   9.749
 7329SOL    HW123994 -17.946   8.423   9.667
 7329SOL    HW223995   4.108  30.516   9.815
 7330SOL     OW23996  10.150  10.785   8.754
 7330SOL    HW123997  10.072  10.733   8.735
 7330SOL    HW223998  10.116  10.867   8.790
 7331SOL     OW23999   2.736   9.103   7.925
 7331SOL    HW124000   2.793   9.180   7.925
 7331SOL    HW224001   2.650   9.137  -3.141
 7332SOL     OW24002   8.969   6.386   3.500
 7332SOL    HW124003   8.969  17.356   3.434
 7332SOL    HW224004   8.892 -15.711  14.594
 7333SOL     OW24005   5.482   1.991   5.464
 7333SOL    HW124006   5.439   2.075   5.448
 7333SOL    HW224007  16.611  24.093  27.570
 7334SOL     OW24008   6.209   4.197   4.200
 7334SOL    HW124009   6.143   4.265   4.188
 7334SOL    HW224010   6.269   4.233   4.265
 7335SOL     OW24011   8.207   6.220   7.313
 7335SOL    HW124012 -24.897   6.144   7.258
 7335SOL    HW224013   8.185   6.184   7.399
 7336SOL     OW24014   4.861   4.690   4.224
 7336SOL    HW124015   4.944   4.667  15.304
 7336SOL    HW224016   4.876  37.893   4.182
 7337SOL     OW24017   5.842   2.274   5.564
 7337SOL    HW124018   5.851   2.202  -5.539
 7337SOL    HW224019   5.895   2.345 -16.553
 7338SOL     OW24020   6.874   3.521   4.648
 7338SOL    HW124021   6.906  -7.525  -6.482
 7338SOL    HW224022   6.862  -7.424   4.662
 7339SOL     OW24023   3.769   9.130   8.325
 7339SOL    HW124024   3.826  -1.959   8.384
 7339SOL    HW224025 -29.356   9.074   8.247
 7340SOL     OW24026   3.327   0.647   1.221
 7340SOL    HW124027  14.298 -10.441  -9.774
 7340SOL    HW224028  25.488   0.606  23.330
 7341SOL     OW24029   4.798  10.908   0.173
 7341SOL    HW124030  15.786  10.870   0.243
 7341SOL    HW224031   4.744  10.980   0.139
 7342SOL     OW24032  10.625   1.638   6.487
 7342SOL    HW124033  10.575   1.719   6.490
 7342SOL    HW224034  10.715   1.666   6.472
 7343SOL     OW24035   2.025   6.552   6.048
 7343SOL    HW124036  -9.061   6.634   6.031
 7343SOL    HW224037   2.040   6.551   6.142
 7344SOL     OW24038  -0.035  11.211   4.303
 7344SOL    HW124039  -0.045  11.151  15.269
 7344SOL    HW224040  10.985 -10.782   4.266
 7345SOL     OW24041   4.611   9.971   4.770
 7345SOL    HW124042 -17.391  10.014   4.808
 7345SOL    HW224043  15.682  -1.110  15.730
 7346SOL     OW24044   5.544   7.469   4.033
 7346SOL    HW124045   5.568  29.612  26.045
 7346SOL    HW224046   5.473   7.418  15.033
 7347SOL     OW24047   2.590  10.905  11.981
 7347SOL    HW124048   2.514  10.959 -10.077
 7347SOL    HW224049  13.693  10.925  12.050
 7348SOL     OW24050   2.998  11.559   2.729
 7348SOL    HW124051   2.906   0.494  24.821
 7348SOL    HW224052   3.011 -10.446  13.828
 7349SOL     OW24053   0.236   6.474   9.362
 7349SOL    HW124054   0.329   6.468   9.383
 7349SOL    HW224055  22.289   6.560   9.395
 7350SOL     OW24056   6.405   7.672   9.877
 7350SOL    HW124057  17.459   7.694   9.969
 7350SOL    HW224058  17.442   7.756   9.831
 7351SOL     OW24059   7.928   7.258   8.015
 7351SOL    HW124060   7.955   7.346  -3.054
 7351SOL    HW224061   7.864   7.275   8.084
 7352SOL     OW24062   4.614  10.162   9.416
 7352SOL    HW124063   4.559  10.091   9.385
 7352SOL    HW224064   4.571  10.242   9.387
 7353SOL     OW24065  10.378   0.634   1.886
 7353SOL    HW124066 -11.676  22.787   1.832
 7353SOL    HW224067  10.375   0.668   1.975
 7354SOL     OW24068   0.727   7.346   9.427
 7354SOL    HW124069   0.777   7.405   9.482
 7354SOL    HW224070  33.781   7.307  -1.554
 7355SOL     OW24071   4.177   2.041   3.031
 7355SOL    HW124072   4.106  -9.051  36.187
 7355SOL    HW224073   4.257   1.994  14.094
 7356SOL     OW24074   3.300   1.105   9.223
 7356SOL    HW124075   3.360   1.178   9.206
 7356SOL    HW224076  -7.822   1.146   9.247
 7357SOL     OW24077   1.313   1.205  10.142
 7357SOL    HW124078   1.399   1.244  10.128
 7357SOL    HW224079   1.251   1.273  10.115
 7358SOL     OW24080   8.204   7.798   3.626
 7358SOL    HW124081  19.268   7.829   3.538
 7358SOL    HW224082  19.157   7.836  14.681
 7359SOL     OW24083   0.269   1.129   6.895
 7359SOL    HW124084   0.185  12.142  -4.181
 7359SOL    HW224085   0.274   1.085  29.058
 7360SOL     OW24086   2.408   3.105   5.176
 7360SOL    HW124087   2.410  25.099   5.133
 7360SOL    HW224088   2.374  14.204   5.110
 7361SOL     OW24089   5.986  10.801   6.583
 7361SOL    HW124090   5.929  10.744  28.611
 7361SOL    HW224091 -16.141  10.817   6.664
 7362SOL     OW24092   3.717  -0.711  -1.449
 7362SOL    HW124093   3.702  10.408  31.618
 7362SOL    HW224094   3.667  10.260  -1.495
 7363SOL     OW24095   7.887   2.961   7.434
 7363SOL    HW124096   7.848   3.043  18.503
 7363SOL    HW224097   7.862   2.955  18.382
 7364SOL     OW24098   4.205  10.275   3.186
 7364SOL    HW124099   4.217  10.335   3.112
 7364SOL    HW224100 -39.953  10.188  -7.894
 7365SOL     OW24101   5.786   4.931  10.374
 7365SOL    HW124102   5.743   4.845  10.374
 7365SOL    HW224103   5.761   4.969  10.458
 7366SOL     OW24104   5.295   2.203  12.293
 7366SOL    HW124105 -16.878 -41.971  -9.798
 7366SOL    HW224106   5.308  13.241   1.348
 7367SOL     OW24107   3.943   8.702   9.139
 7367SOL    HW124108   3.980  -2.397 -13.005
 7367SOL    HW224109   3.918 -35.379   9.089
 7368SOL     OW24110   7.566   8.617   8.480
 7368SOL    HW124111   7.606   8.542  30.515
 7368SOL    HW224112 -14.519  19.725   8.413
 7369SOL     OW24113  10.867   9.192   8.918
 7369SOL    HW124114  10.872  20.273   8.831
 7369SOL    HW224115  10.806   9.247   8.967
 7370SOL     OW24116   6.921   8.601   4.236
 7370SOL    HW124117   6.881   8.602  26.402
 7370SOL    HW224118   6.857  19.682   4.179
 7371SOL     OW24119   8.392   4.985   6.537
 7371SOL    HW124120   8.485  -6.051   6.516
 7371SOL    HW224121   8.383   5.036   6.618
 7372SOL     OW24122   1.534  10.145   4.592
 7372SOL    HW124123   1.608  -0.879   4.534
 7372SOL    HW224124   1.523  10.227  15.680
 7373SOL     OW24125   1.581   2.094   8.169
 7373SOL    HW124126   1.552  35.230   8.080
 7373SOL    HW224127 -20.403   2.096   8.164
 7374SOL     OW24128  11.499  -0.104   0.568
 7374SOL    HW124129  11.528  -0.129  22.735
 7374SOL    HW224130 -10.510  10.993  11.575
 7375SOL     OW24131   1.373   4.180   9.132
 7375SOL    HW124132   1.422   4.137  31.282
 7375SOL    HW224133   1.385   4.122   9.057
 7376SOL     OW24134   4.230   9.762   4.958
 7376SOL    HW124135   4.293  20.848 -39.146
 7376SOL    HW224136   4.278   9.741  26.957
 7377SOL     OW24137   2.385   2.985   7.320
 7377SOL    HW124138   2.355  -8.116   7.388
 7377SOL    HW224139   2.422  14.098   7.369
 7378SOL     OW24140   6.245   4.684   1.237
 7378SOL    HW124141   6.333   4.714  23.339
 7378SOL    HW224142   6.186   4.744  12.324
 7379SOL     OW24143  10.162   0.822   9.902
 7379SOL    HW124144  -0.842 -10.300   9.937
 7379SOL    HW224145  10.105   0.855  -1.068
 7380SOL     OW24146   2.108   0.397   7.452
 7380SOL    HW124147   2.198   0.408   7.482
 7380SOL    HW224148   2.077   0.486   7.437
 7381SOL     OW24149   8.910   7.858   2.124
 7381SOL    HW124150  31.047  -3.190  24.279
 7381SOL    HW224151   8.899  18.992   2.112
 7382SOL     OW24152   1.060  10.158   4.422
 7382SOL    HW124153  23.151  10.244   4.383
 7382SOL    HW224154   1.144  10.139   4.465
 7383SOL     OW24155   0.865   4.814   9.851
 7383SOL    HW124156 -10.161   4.887 -12.168
 7383SOL    HW224157   0.864   4.854   9.764
 7384SOL     OW24158   3.591  10.156   6.685
 7384SOL    HW124159   3.529  10.158  -4.282
 7384SOL    HW224160  -7.497  21.235   6.612
 7385SOL     OW24161   1.307   7.521   8.119
 7385SOL    HW124162   1.292   7.479   8.204
 7385SOL    HW224163   1.299 -25.670   8.056
 7386SOL     OW24164   1.452   6.451   8.172
 7386SOL    HW124165   1.431   6.509  -2.941
 7386SOL    HW224166   1.377   6.459   8.231
 7387SOL     OW24167   1.403   7.138   3.258
 7387SOL    HW124168  34.488   7.103   3.176
 7387SOL    HW224169   1.426  18.268   3.238
 7388SOL     OW24170   2.747   3.715   9.465
 7388SOL    HW124171   2.739   3.772  31.468
 7388SOL    HW224172   2.675  14.781   9.523
 7389SOL     OW24173  10.864   5.004   7.828
 7389SOL    HW124174  10.870  27.027   7.751
 7389SOL    HW224175  10.955  49.182   7.850
 7390SOL     OW24176   0.620   5.863  -0.189
 7390SOL    HW124177  11.731   5.883  -0.251
 7390SOL    HW224178   0.559   5.811  10.799
 7391SOL     OW24179   9.672   9.885   8.417
 7391SOL    HW124180  20.618   9.902  -2.619
 7391SOL    HW224181   9.680   9.798   8.378
 7392SOL     OW24182   8.459   4.150   4.676
 7392SOL    HW124183   8.380   4.191   4.643
 7392SOL    HW224184   8.513   4.223  15.747
 7393SOL     OW24185   8.240   8.617   8.686
 7393SOL    HW124186   8.332   8.611   8.713
 7393SOL    HW224187 -13.885   8.556   8.743
 7394SOL     OW24188   3.251   9.815   1.293
 7394SOL    HW124189   3.228   9.836   1.384
 7394SOL    HW224190   3.166   9.809   1.249
 7395SOL     OW24191   3.253   5.341   2.205
 7395SOL    HW124192  -7.789   5.408   2.137
 7395SOL    HW224193   3.310   5.377   2.273
 7396SOL     OW24194  11.326   4.759   3.023
 7396SOL    HW124195 -21.797   4.726   3.113
 7396SOL    HW224196   0.379  15.817   3.009
 7397SOL     OW24197  10.953   5.064   2.546
 7397SOL    HW124198  10.973 -16.928 -30.537
 7397SOL    HW224199  11.031  -6.000   2.497
 7398SOL     OW24200   5.781   0.503   2.420
 7398SOL    HW124201   5.864   0.454   2.415
 7398SOL    HW224202   5.793   0.577  35.479
 7399SOL     OW24203   7.049   6.572   4.521
 7399SOL    HW124204   7.004   6.515  -6.581
 7399SOL    HW224205   6.980  -4.430   4.575
 7400SOL     OW24206   4.021   4.314   5.881
 7400SOL    HW124207  15.094   4.244  -5.103
 7400SOL    HW224208   4.098   4.364   5.855
 7401SOL     OW24209   0.962   3.918   5.125
 7401SOL    HW124210   0.919  14.875   5.103
 7401SOL    HW224211   1.003  26.025   5.043
 7402SOL     OW24212   3.759  -0.475   4.298
 7402SOL    HW124213  14.807  21.569  15.426
 7402SOL    HW224214   3.711 -11.582   4.250
 7403SOL     OW24215   4.798  11.467   2.346
 7403SOL    HW124216   4.825  11.416   2.270
 7403SOL    HW224217   4.733 -10.551   2.313
 7404SOL     OW24218   0.971  10.625   9.891
 7404SOL    HW124219   0.914  10.621   9.814
 7404SOL    HW224220   1.000  -0.323   9.894
 7405SOL     OW24221  10.312   4.532   1.534
 7405SOL    HW124222  21.327  15.664  34.661
 7405SOL    HW224223  10.276  15.545  23.529
 7406SOL     OW24224  10.774   0.889   0.773
 7406SOL    HW124225  -0.278   0.983   0.786
 7406SOL    HW224226  -0.354   0.854   0.764
 7407SOL     OW24227   1.409   5.155   9.202
 7407SOL    HW124228  -9.656   5.161 -12.969
 7407SOL    HW224229   1.482   5.093   9.203
 7408SOL     OW24230   7.199   2.500   5.218
 7408SOL    HW124231   7.250  -8.462   5.241
 7408SOL    HW224232   7.110   2.532   5.206
 7409SOL     OW24233  10.630  13.430   6.133
 7409SOL    HW124234  10.562 -19.690  17.106
 7409SOL    HW224235  10.623   2.477  28.253
 7410SOL     OW24236   2.591   1.804   3.212
 7410SOL    HW124237   2.554  -9.148   3.215
 7410SOL    HW224238  13.634   1.776   3.303
 7411SOL     OW24239  -1.288   3.112   2.490
 7411SOL    HW124240  -1.319   3.173   2.558
 7411SOL    HW224241  31.750   3.082   2.447
 7412SOL     OW24242   5.198   1.436   2.633
 7412SOL    HW124243   5.174  34.648   2.630
 7412SOL    HW224244   5.271   1.429   2.571
 7413SOL     OW24245   7.182  10.956   0.740
 7413SOL    HW124246   7.252  11.007   0.782
 7413SOL    HW224247   7.213  10.944   0.650
 7414SOL     OW24248  11.435  -0.387  10.507
 7414SOL    HW124249   0.371  10.594  10.435
 7414SOL    HW224250  11.519  -0.350 -11.599
 7415SOL     OW24251   3.044   9.385   1.030
 7415SOL    HW124252   3.037  -1.710   1.108
 7415SOL    HW224253   2.955   9.417   1.016
 7416SOL     OW24254   8.756   3.081   5.260
 7416SOL    HW124255   8.690   3.029   5.306
 7416SOL    HW224256  30.902  -8.022   5.234
 7417SOL     OW24257   7.510   7.724   6.675
 7417SOL    HW124258   7.531   7.814  28.778
 7417SOL    HW224259   7.534   7.673   6.752
 7418SOL     OW24260   0.526   9.547   7.297
 7418SOL    HW124261   0.487   9.566  18.252
 7418SOL    HW224262  33.638  -1.587  18.346
 7419SOL     OW24263   8.454   4.219   5.689
 7419SOL    HW124264   8.461   4.223   5.594
 7419SOL    HW224265   8.468   4.309  -5.322
 7420SOL     OW24266   3.911   7.761   1.115
 7420SOL    HW124267   3.970   7.790   1.183
 7420SOL    HW224268   3.949   7.795   1.034
 7421SOL     OW24269  10.924   1.405   6.643
 7421SOL    HW124270  11.017   1.424   6.637
 7421SOL    HW224271  10.910   1.332   6.582
 7422SOL     OW24272   0.984   1.243   1.749
 7422SOL    HW124273  -9.968   1.209   1.728
 7422SOL    HW224274   0.998   1.296   1.828
 7423SOL     OW24275   5.687   9.463   1.129
 7423SOL    HW124276   5.648   9.380  23.178
 7423SOL    HW224277   5.704   9.512   1.049
 7424SOL     OW24278   5.023   9.070   7.037
 7424SOL    HW124279   4.998   9.031   7.120
 7424SOL    HW224280   5.009  20.204  18.088
 7425SOL     OW24281  11.413   3.392   2.650
 7425SOL    HW124282  11.428   3.333   2.576
 7425SOL    HW224283 -10.580   3.430  13.708
 7426SOL     OW24284   2.069   9.851   5.338
 7426SOL    HW124285   2.160   9.874  16.395
 7426SOL    HW224286  13.081   9.802   5.415
 7427SOL     OW24287   9.894   4.283   5.902
 7427SOL    HW124288   9.979  15.339   5.944
 7427SOL    HW224289   9.836   4.260 -27.144
 7428SOL     OW24290   7.213  -0.643   4.252
 7428SOL    HW124291   7.183  -0.676   4.336
 7428SOL    HW224292  -3.775  21.514   4.273
 7429SOL     OW24293   8.911   8.144   8.110
 7429SOL    HW124294   8.884  19.094   8.090
 7429SOL    HW224295   8.851   8.199  30.139
 7430SOL     OW24296   1.927   2.717   4.650
 7430SOL    HW124297   2.007 -19.312   4.667
 7430SOL    HW224298   1.912   2.728  15.595
 7431SOL     OW24299   5.638   4.827   3.799
 7431SOL    HW124300   5.679   4.892  25.935
 7431SOL    HW224301   5.680   4.840  14.753
 7432SOL     OW24302   9.764   1.003   2.696
 7432SOL    HW124303 -12.309   1.084   2.748
 7432SOL    HW224304   9.702 -10.015  -8.413
 7433SOL     OW24305   3.576  10.647   8.941
 7433SOL    HW124306   3.543  10.572  19.933
 7433SOL    HW224307   3.626  -0.343  30.955
 7434SOL     OW24308   1.263   4.427   8.550
 7434SOL    HW124309   1.200   4.404  30.699
 7434SOL    HW224310   1.300  -6.529   8.578
 7435SOL     OW24311   4.912  10.960   7.563
 7435SOL    HW124312  27.021  10.947  18.512
 7435SOL    HW224313  26.971  10.872 -14.484
 7436SOL     OW24314   8.417   1.664  -1.383
 7436SOL    HW124315  -2.578   1.674  42.859
 7436SOL    HW224316   8.329   1.633  -1.361
 7437SOL     OW24317   5.315   4.265   5.605
 7437SOL    HW124318  -5.819   4.275  27.701
 7437SOL    HW224319  -5.690   4.354  16.654
 7438SOL     OW24320   9.740   6.762   1.596
 7438SOL    HW124321   9.691   6.759   1.513
 7438SOL    HW224322   9.691  39.941  -9.389
 7439SOL     OW24323   2.497   1.130   0.806
 7439SOL    HW124324  -8.546   1.035  11.841
 7439SOL    HW224325 -19.490   1.150   0.824
 7440SOL     OW24326   1.027   6.281   0.535
 7440SOL    HW124327   1.107   6.278  22.667
 7440SOL    HW224328   0.990   6.368   0.551
 7441SOL     OW24329  10.100   0.665   2.932
 7441SOL    HW124330  10.036  33.736   2.879
 7441SOL    HW224331  10.082   0.757   2.913
 7442SOL     OW24332   2.592   8.826   0.723
 7442SOL    HW124333   2.504  -2.174  11.759
 7442SOL    HW224334  -8.388   8.900  22.786
 7443SOL     OW24335   5.625   4.224   8.999
 7443SOL    HW124336  38.694   4.152  19.999
 7443SOL    HW224337   5.633   4.199  31.171
 7444SOL     OW24338   9.002   3.477   3.855
 7444SOL    HW124339  20.034 -18.508   3.872
 7444SOL    HW224340   9.074   3.448   3.911
 7445SOL     OW24341   9.168   2.090   8.137
 7445SOL    HW124342  -1.888  13.061   8.073
 7445SOL    HW224343   9.249   2.064   8.180
 7446SOL     OW24344  10.170   6.511   3.059
 7446SOL    HW124345  10.245   6.551   3.016
 7446SOL    HW224346  21.215   6.540   3.150
 7447SOL     OW24347   3.649   0.701   3.287
 7447SOL    HW124348   3.606   0.638   3.345
 7447SOL    HW224349   3.645   0.784  -7.705
 7448SOL     OW24350   3.954   7.861   0.417
 7448SOL    HW124351   4.012  -3.211  22.564
 7448SOL    HW224352   3.993  18.983   0.389
 7449SOL     OW24353   3.405  -0.341  11.730
 7449SOL    HW124354   3.469  -0.302 -10.408
 7449SOL    HW224355  -7.661  21.810  11.788
 7450SOL     OW24356   2.728   4.892   6.619
 7450SOL    HW124357   2.695 -17.181   6.709
 7450SOL    HW224358  13.692  26.942   6.568
 7451SOL     OW24359  -1.417   7.949   5.562
 7451SOL    HW124360  -1.419 -14.043  -5.515
 7451SOL    HW224361  31.733 -14.187   5.492
 7452SOL     OW24362   8.064   7.333   2.685
 7452SOL    HW124363 -25.001  -3.745   2.754
 7452SOL    HW224364   8.102   7.301   2.604
 7453SOL     OW24365   3.604   6.653  -0.395
 7453SOL    HW124366  -7.469  -4.472  -0.422
 7453SOL    HW224367  14.617  17.752  10.573
 7454SOL     OW24368   5.355   4.377  10.654
 7454SOL    HW124369  16.473  15.362  10.659
 7454SOL    HW224370   5.290   4.331  10.707
 7455SOL     OW24371   8.129   0.690   4.419
 7455SOL    HW124372   8.037   0.709   4.437
 7455SOL    HW224373  -2.874   0.666   4.504
 7456SOL     OW24374   0.467  11.042   3.937
 7456SOL    HW124375   0.529  -0.051  -7.052
 7456SOL    HW224376   0.394  10.982   3.918
 7457SOL     OW24377   4.935   4.948   5.384
 7457SOL    HW124378   4.965   5.027  27.419
 7457SOL    HW224379  15.967   4.974   5.476
 7458SOL     OW24380   6.882   5.474   3.181
 7458SOL    HW124381  28.926   5.485   3.269
 7458SOL    HW224382  17.905 -16.521   3.138
 7459SOL     OW24383   3.812   5.644   7.564
 7459SOL    HW124384   3.839   5.566   7.611
 7459SOL    HW224385  14.930  16.712   7.517
 7460SOL     OW24386   7.524   7.707   3.832
 7460SOL    HW124387  40.667   7.799  14.875
 7460SOL    HW224388 -36.598 -14.404   3.749
 7461SOL     OW24389   1.104   4.171  11.190
 7461SOL    HW124390   1.067 -40.012   0.065
 7461SOL    HW224391   1.159   4.246  11.170
 7462SOL     OW24392   1.327   6.461   1.987
 7462SOL    HW124393   1.302   6.541   1.940
 7462SOL    HW224394  23.328   6.406   1.984
 7463SOL     OW24395   9.121  10.205   5.827
 7463SOL    HW124396  -1.981  10.178   5.759
 7463SOL    HW224397 -12.965  10.138  -5.145
 7464SOL     OW24398   4.636   6.922  14.830
 7464SOL    HW124399   4.699   6.864 -40.325
 7464SOL    HW224400  -6.421   6.990 -18.224
 7465SOL     OW24401   4.712   4.956   5.234
 7465SOL    HW124402   4.655   5.013   5.287
 7465SOL    HW224403  26.861   4.929   5.294
 7466SOL     OW24404   5.235   8.108   6.584
 7466SOL    HW124405  16.263   8.039   6.650
 7466SOL    HW224406   5.155   8.104  -4.508
 7467SOL     OW24407   8.812   8.283   0.794
 7467SOL    HW124408  19.768   8.237   0.801
 7467SOL    HW224409   8.794   8.354 -10.307
 7468SOL     OW24410   8.577   6.523   4.308
 7468SOL    HW124411  -2.380   6.510   4.262
 7468SOL    HW224412   8.539   6.435   4.314
 7469SOL     OW24413   4.555   9.930   7.437
 7469SOL    HW124414   4.535 -12.079  18.539
 7469SOL    HW224415   4.599   9.974  18.404
 7470SOL     OW24416   3.651   8.550   1.486
 7470SOL    HW124417   3.644   8.569  -9.459
 7470SOL    HW224418  14.785   8.545   1.470
 7471SOL     OW24419   7.704   9.290   1.582
 7471SOL    HW124420  18.814   9.318   1.524
 7471SOL    HW224421   7.668   9.371   1.618
 7472SOL     OW24422  10.244   1.112   6.878
 7472SOL    HW124423  -0.760   1.032   6.916
 7472SOL    HW224424  10.154  -9.950  17.893
 7473SOL     OW24425   1.346  10.170   7.500
 7473SOL    HW124426   1.380  10.092   7.456
 7473SOL    HW224427   1.331  10.143  18.630
 7474SOL     OW24428   4.238   3.158   3.507
 7474SOL    HW124429   4.231   3.072  14.587
 7474SOL    HW224430   4.148   3.187  14.535
 7475SOL     OW24431   5.416   3.537  10.126
 7475SOL    HW124432   5.487   3.493  10.173
 7475SOL    HW224433  27.436 -18.613  21.140
 7476SOL     OW24434   6.895   3.690   9.263
 7476SOL    HW124435   6.861   3.685   9.173
 7476SOL    HW224436 -15.132   3.611  -1.766
 7477SOL     OW24437   0.338   2.138   3.901
 7477SOL    HW124438  11.342  -8.923   3.987
 7477SOL    HW224439   0.273   2.104  -7.200
 7478SOL     OW24440   3.895   5.993   5.632
 7478SOL    HW124441  25.987 -38.073   5.652
 7478SOL    HW224442  15.005   5.971   5.571
 7479SOL     OW24443   5.904   9.686   8.720
 7479SOL    HW124444   5.831   9.746   8.736
 7479SOL    HW224445  16.901   9.605  -2.350
 7480SOL     OW24446   1.994   6.957  13.257
 7480SOL    HW124447  -9.104  18.072  -8.827
 7480SOL    HW224448   1.937  28.964 -30.873
 7481SOL     OW24449  10.722  10.358   8.190
 7481SOL    HW124450  10.776  10.334 -13.964
 7481SOL    HW224451  10.783  10.364   8.264
 7482SOL     OW24452   6.633   0.009   6.548
 7482SOL    HW124453  -4.348  -0.066  17.585
 7482SOL    HW224454   6.591   0.004   6.634
 7483SOL     OW24455   4.393  10.000   9.390
 7483SOL    HW124456   4.405  20.950   9.419
 7483SOL    HW224457   4.337  10.040  31.536
 7484SOL     OW24458   4.619   0.297   4.111
 7484SOL    HW124459   4.690   0.271   4.169
 7484SOL    HW224460  -6.492   0.236   4.133
 7485SOL     OW24461   8.610   5.062   6.060
 7485SOL    HW124462   8.538   5.101  -5.030
 7485SOL    HW224463   8.570   4.987   6.104
 7486SOL     OW24464   2.667   7.812   7.010
 7486SOL    HW124465   2.745   7.867   7.015
 7486SOL    HW224466   2.701   7.723   7.007
 7487SOL     OW24467   8.480   8.320   2.179
 7487SOL    HW124468   8.539  19.390   2.111
 7487SOL    HW224469   8.400   8.295   2.132
 7488SOL     OW24470  10.370  10.912   3.661
 7488SOL    HW124471  10.438  -0.069   3.694
 7488SOL    HW224472  10.389  10.903  25.646
 7489SOL     OW24473   2.116   2.398   7.468
 7489SOL    HW124474   2.208  13.428   7.490
 7489SOL    HW224475   2.077  46.598   7.545
 7490SOL     OW24476   5.808   7.749   4.015
 7490SOL    HW124477   5.827   7.820   3.954
 7490SOL    HW224478   5.761   7.684  15.002
 7491SOL     OW24479   3.779   7.553   5.501
 7491SOL    HW124480  -7.229  18.575   5.589
 7491SOL    HW224481   3.857   7.581   5.453
 7492SOL     OW24482   1.068   1.388  12.995
 7492SOL    HW124483 -10.031  23.533   1.993
 7492SOL    HW224484   1.142  23.465 -20.063
 7493SOL     OW24485   4.690   6.535  10.656
 7493SOL    HW124486   4.737   6.547 -11.341
 7493SOL    HW224487   4.667   6.442  10.655
 7494SOL     OW24488  10.815   2.226   3.733
 7494SOL    HW124489  10.791   2.292   3.669
 7494SOL    HW224490  10.810   2.143   3.685
 7495SOL     OW24491  10.393   2.527  -0.328
 7495SOL    HW124492  10.355   2.460  21.695
 7495SOL    HW224493  21.469   2.479  10.786
 7496SOL     OW24494   4.368   7.787   5.362
 7496SOL    HW124495   4.349   7.870 -16.674
 7496SOL    HW224496   4.382   7.725   5.433
 7497SOL     OW24497   8.207  10.751  -0.153
 7497SOL    HW124498  30.241 -22.326  10.960
 7497SOL    HW224499  19.259 -22.297  -0.216
 7498SOL     OW24500   8.399   2.194   9.747
 7498SOL    HW124501   8.329   2.166   9.806
 7498SOL    HW224502  19.516   2.145   9.776
 7499SOL     OW24503   8.575  10.667   4.199
 7499SOL    HW124504   8.607  -0.282   4.204
 7499SOL    HW224505   8.642 -11.459  -6.889
 7500SOL     OW24506   6.699   7.083   6.273
 7500SOL    HW124507   6.712   7.124   6.359
 7500SOL    HW224508  17.814   7.111   6.222
 7501SOL     OW24509   9.989   4.636   8.820
 7501SOL    HW124510  10.081   4.646   8.795
 7501SOL    HW224511   9.974   4.542  -2.219
 7502SOL     OW24512   6.890   3.139  12.389
 7502SOL    HW124513  17.983  14.112 -20.686
 7502SOL    HW224514   6.820   3.159   1.411
 7503SOL     OW24515   7.450   8.315   4.687
 7503SOL    HW124516 -14.558   8.358   4.735
 7503SOL    HW224517   7.495   8.258   4.625
 7504SOL     OW24518   3.978   3.023  10.356
 7504SOL    HW124519   3.933  14.026  10.433
 7504SOL    HW224520   3.952   3.115  10.356
 7505SOL     OW24521   9.119   4.565   0.014
 7505SOL    HW124522   9.041   4.597   0.059
 7505SOL    HW224523  -1.848 -39.559  11.104
 7506SOL     OW24524   3.759   4.174   1.871
 7506SOL    HW124525  -7.316   4.118   1.940
 7506SOL    HW224526  14.723   4.202   1.821
 7507SOL     OW24527   8.098   4.239   6.727
 7507SOL    HW124528 -14.051   4.285  17.721
 7507SOL    HW224529 -25.057  -6.823   6.812
 7508SOL     OW24530   0.437  10.318   1.522
 7508SOL    HW124531   0.510  10.327   1.461
 7508SOL    HW224532   0.420  10.407   1.552
 7509SOL     OW24533   7.366   4.243   8.394
 7509SOL    HW124534   7.446  15.334   8.377
 7509SOL    HW224535 -47.806   4.153   8.375
 7510SOL     OW24536  10.268   6.761   4.680
 7510SOL    HW124537  10.308   6.688   4.727
 7510SOL    HW224538  10.295   6.838   4.730
 7511SOL     OW24539  -0.821   2.954   0.328
 7511SOL    HW124540  -0.730   2.923   0.325
 7511SOL    HW224541  21.206   2.878   0.302
 7512SOL     OW24542   0.568   2.473   3.510
 7512SOL    HW124543   0.541   2.411   3.578
 7512SOL    HW224544   0.542   2.431   3.428
 7513SOL     OW24545   1.757   5.941   0.438
 7513SOL    HW124546   1.796   5.984  33.632
 7513SOL    HW224547  34.920   5.979   0.362
 7514SOL     OW24548   5.438   7.296   1.265
 7514SOL    HW124549  16.434   7.219   1.302
 7514SOL    HW224550  16.520  29.417   1.340
 7515SOL     OW24551   3.100  10.622   6.817
 7515SOL    HW124552   3.099  10.715   6.795
 7515SOL    HW224553   3.126  10.620 -26.209
 7516SOL     OW24554   7.622   0.887   2.377
 7516SOL    HW124555  18.617   0.942   2.441
 7516SOL    HW224556  18.726 -10.095  13.375
 7517SOL     OW24557   6.533   3.561  10.352
 7517SOL    HW124558 -15.477   3.583  10.289
 7517SOL    HW224559   6.520   3.467  10.340
 7518SOL     OW24560   5.264   4.187   6.225
 7518SOL    HW124561   5.357   4.192   6.206
 7518SOL    HW224562   5.222   4.175   6.140
 7519SOL     OW24563   7.031   9.649  -1.192
 7519SOL    HW124564  -4.069   9.677  31.858
 7519SOL    HW224565   7.018   9.554  -1.185
 7520SOL     OW24566   8.818   4.128   1.592
 7520SOL    HW124567   8.794  -6.828   1.552
 7520SOL    HW224568   8.737   4.076   1.589
 7521SOL     OW24569   0.401   9.960  10.213
 7521SOL    HW124570   0.330   9.917  10.262
 7521SOL    HW224571   0.464   9.987  10.280
 7522SOL     OW24572   7.117   8.334   2.195
 7522SOL    HW124573  18.168   8.350   2.288
 7522SOL    HW224574  18.113   8.249   2.191
 7523SOL     OW24575   0.191  -0.969  10.881
 7523SOL    HW124576  22.184  10.056  -0.197
 7523SOL    HW224577  11.235  21.205 -11.185
 7524SOL     OW24578   1.496   3.087   4.319
 7524SOL    HW124579   1.588  -7.974   4.332
 7524SOL    HW224580  -9.568   3.140   4.395
 7525SOL     OW24581   9.505   4.174   8.433
 7525SOL    HW124582  20.486 -17.895   8.509
 7525SOL    HW224583   9.568   4.108   8.461
 7526SOL     OW24584   9.396   2.443   1.280
 7526SOL    HW124585   9.482  -8.634   1.261
 7526SOL    HW224586  -1.640   2.467   1.372
 7527SOL     OW24587   1.340   1.676  12.121
 7527SOL    HW124588   1.364   1.657  12.211
 7527SOL    HW224589   1.416   1.722  -9.994
 7528SOL     OW24590   1.683   8.225   2.738
 7528SOL    HW124591  -9.322   8.137   2.752
 7528SOL    HW224592  -9.388   8.225   2.648
 7529SOL     OW24593   5.310   3.614   4.127
 7529SOL    HW124594   5.303   3.668  -6.992
 7529SOL    HW224595   5.227 -29.491   4.172
 7530SOL     OW24596   5.795   8.545   3.057
 7530SOL    HW124597   5.854   8.566   2.985
 7530SOL    HW224598  16.799   8.459  14.075
 7531SOL     OW24599   8.514   8.814   1.028
 7531SOL    HW124600   8.609   8.820   1.037
 7531SOL    HW224601   8.483   8.904   1.035
 7532SOL     OW24602   6.106   9.651   6.610
 7532SOL    HW124603   6.024   9.699 -15.476
 7532SOL    HW224604   6.141   9.649   6.521
 7533SOL     OW24605   3.622   7.626   6.533
 7533SOL    HW124606   3.620   7.672   6.617
 7533SOL    HW224607   3.716  -3.427   6.516
 7534SOL     OW24608   5.524   5.568   8.541
 7534SOL    HW124609   5.485   5.499   8.488
 7534SOL    HW224610   5.576 -16.460  19.518
 7535SOL     OW24611   3.335   2.418   8.106
 7535SOL    HW124612  -7.687   2.494   8.162
 7535SOL    HW224613  -7.796  -8.643   8.124
 7536SOL     OW24614   6.188  12.489   5.902
 7536SOL    HW124615   6.248  -9.611  -5.209
 7536SOL    HW224616   6.232  -9.521  16.990
 7537SOL     OW24617   4.536   6.196  -0.811
 7537SOL    HW124618   4.626   6.179  21.239
 7537SOL    HW224619   4.544  17.309  -0.751
 7538SOL     OW24620   3.780   6.645   0.145
 7538SOL    HW124621   3.760  28.634   0.169
 7538SOL    HW224622   3.719   6.698   0.196
 7539SOL     OW24623   1.697   3.277   6.142
 7539SOL    HW124624   1.749  25.287  17.222
 7539SOL    HW224625   1.672   3.334  39.334
 7540SOL     OW24626  10.266   5.930   4.300
 7540SOL    HW124627  10.343 -49.213   4.284
 7540SOL    HW224628  21.340  -5.187   4.344
 7541SOL     OW24629   6.843   7.811  10.323
 7541SOL    HW124630   6.926  -3.181  10.332
 7541SOL    HW224631   6.867  18.759  10.339
 7542SOL     OW24632   0.661  10.328   8.794
 7542SOL    HW124633  11.764  10.274   8.746
 7542SOL    HW224634   0.614  10.376   8.726
 7543SOL     OW24635   4.838   2.615   6.135
 7543SOL    HW124636   4.781   2.554  17.126
 7543SOL    HW224637   4.926   2.596   6.103
 7544SOL     OW24638  10.967   7.233   3.810
 7544SOL    HW124639  10.873   7.222  14.841
 7544SOL    HW224640  10.998   7.251   3.721
 7545SOL     OW24641   7.308   2.089   0.795
 7545SOL    HW124642  18.264   2.134  44.939
 7545SOL    HW224643  29.390   2.074   0.890
 7546SOL     OW24644   1.609   5.245   2.049
 7546SOL    HW124645   1.540 -16.897   2.071
 7546SOL    HW224646   1.675  27.272   2.003
 7547SOL     OW24647   7.926   1.926  10.798
 7547SOL    HW124648   7.907   1.872 -11.205
 7547SOL    HW224649  19.015   2.000  -0.206
 7548SOL     OW24650   8.037   1.103  11.772
 7548SOL    HW124651   8.001  34.210 -10.395
 7548SOL    HW224652   8.077   1.190  11.771
 7549SOL     OW24653   0.201   5.001   2.514
 7549SOL    HW124654   0.276   4.949   2.545
 7549SOL    HW224655   0.239   5.087   2.495
 7550SOL     OW24656   8.988   5.891   1.300
 7550SOL    HW124657   8.987   5.796   1.301
 7550SOL    HW224658   9.080   5.914   1.315
 7551SOL     OW24659  10.492   6.476   6.740
 7551SOL    HW124660  10.423   6.542   6.727
 7551SOL    HW224661  -0.508  28.545   6.653
 7552SOL     OW24662   1.831   1.136   8.726
 7552SOL    HW124663   1.870   1.199   8.665
 7552SOL    HW224664   1.854   1.169  19.852
 7553SOL     OW24665   9.255  10.071   4.255
 7553SOL    HW124666   9.173  10.091   4.210
 7553SOL    HW224667   9.322  10.116  -6.836
 7554SOL     OW24668  11.095   2.972   1.690
 7554SOL    HW124669   0.109   3.018  -9.415
 7554SOL    HW224670   0.043   3.037   1.760
 7555SOL     OW24671   4.418  -0.109   5.908
 7555SOL    HW124672   4.488  -0.140   5.851
 7555SOL    HW224673   4.448  11.016   5.939
 7556SOL     OW24674   9.750   7.487   8.634
 7556SOL    HW124675   9.728  -3.481   8.693
 7556SOL    HW224676  20.706   7.459   8.598
 7557SOL     OW24677   4.153  -2.467   6.697
 7557SOL    HW124678   4.239  -2.482   6.660
 7557SOL    HW224679   4.093  41.687 -15.457
 7558SOL     OW24680   3.746  10.080   4.629
 7558SOL    HW124681  -7.310  10.007  26.768
 7558SOL    HW224682   3.840  21.115   4.611
 7559SOL     OW24683   3.574   7.031   0.346
 7559SOL    HW124684 -18.492   7.124   0.361
 7559SOL    HW224685 -18.518   6.993   0.433
 7560SOL     OW24686   4.238   0.600   8.894
 7560SOL    HW124687   4.220  22.618  19.862
 7560SOL    HW224688   4.153   0.638   8.915
 7561SOL     OW24689   9.500   6.805   8.046
 7561SOL    HW124690   9.408  17.823  19.072
 7561SOL    HW224691   9.521   6.765   8.130
 7562SOL     OW24692   0.226  10.375   4.870
 7562SOL    HW124693   0.245  10.296   4.820
 7562SOL    HW224694   0.299  10.433   4.851
 7563SOL     OW24695  -1.565   3.995   9.428
 7563SOL    HW124696   9.518   3.989   9.514
 7563SOL    HW224697  64.684   4.087   9.403
 7564SOL     OW24698  -0.307   6.316   4.675
 7564SOL    HW124699  10.828   6.306   4.672
 7564SOL    HW224700  10.701 -15.845   4.714
 7565SOL     OW24701   4.373   2.154   3.242
 7565SOL    HW124702   4.418   2.216  14.339
 7565SOL    HW224703   4.334  13.248   3.174
 7566SOL     OW24704   6.222  10.725  10.118
 7566SOL    HW124705  28.208  10.724 -11.982
 7566SOL    HW224706  17.272 -22.328  10.186
 7567SOL     OW24707   4.063   3.854   4.710
 7567SOL    HW124708   4.124  25.859   4.714
 7567SOL    HW224709   4.035   3.858  -6.421
 7568SOL     OW24710   3.088  12.335   5.954
 7568SOL    HW124711   3.060  -9.836   5.960
 7568SOL    HW224712   3.146   1.298  16.918
 7569SOL     OW24713   5.400   4.126   1.411
 7569SOL    HW124714   5.413   4.180  23.412
 7569SOL    HW224715   5.356  37.166   1.380
 7570SOL     OW24716   7.310   5.421   1.284
 7570SOL    HW124717  -3.698   5.471  23.287
 7570SOL    HW224718   7.280   5.338   1.247
 7571SOL     OW24719   9.602   8.456   7.176
 7571SOL    HW124720  42.762 -13.709   7.165
 7571SOL    HW224721  -1.364   8.517   7.186
 7572SOL     OW24722   6.460   2.530   6.504
 7572SOL    HW124723   6.422   2.567   6.583
 7572SOL    HW224724  17.517   2.438   6.525
 7573SOL     OW24725   5.163   7.763   1.656
 7573SOL    HW124726  27.251  29.780  12.768
 7573SOL    HW224727  38.335  -3.313  12.625
 7574SOL     OW24728   6.324  11.031   2.267
 7574SOL    HW124729   6.345  11.107  24.401
 7574SOL    HW224730   6.345 -11.124  13.362
 7575SOL     OW24731   6.322   4.031  10.255
 7575SOL    HW124732  -4.663   4.035  10.334
 7575SOL    HW224733   6.318   4.121  21.263
 7576SOL     OW24734   8.888   6.680   6.367
 7576SOL    HW124735  -2.200   6.644   6.293
 7576SOL    HW224736   8.936   6.605  -4.637
 7577SOL     OW24737   5.554   0.479   2.017
 7577SOL    HW124738   5.555   0.569  13.025
 7577SOL    HW224739   5.594   0.483  13.144
 7578SOL     OW24740   4.869   4.781   5.896
 7578SOL    HW124741   4.802   4.845  27.998
 7578SOL    HW224742   4.909   4.756   5.979
 7579SOL     OW24743   8.890   3.717   8.463
 7579SOL    HW124744  -2.228   3.772   8.461
 7579SOL    HW224745   8.901   3.688   8.372
 7580SOL     OW24746   4.299   6.280   0.262
 7580SOL    HW124747   4.245  17.249   0.298
 7580SOL    HW224748  -6.676   6.299   0.330
 7581SOL     OW24749   6.102   6.376  10.452
 7581SOL    HW124750   6.013   6.341  -0.587
 7581SOL    HW224751   6.144   6.338  10.529
 7582SOL     OW24752   6.789   7.234   0.943
 7582SOL    HW124753   6.874  18.294  11.943
 7582SOL    HW224754  17.771   7.219  11.908
 7583SOL     OW24755   6.250   2.719   4.579
 7583SOL    HW124756  17.285   2.789   4.513
 7583SOL    HW224757   6.289  13.800   4.655
 7584SOL     OW24758   5.941   7.905  12.923
 7584SOL    HW124759   6.023  18.950 -31.185
 7584SOL    HW224760   5.901  -3.048   1.894
 7585SOL     OW24761   6.293   5.745   4.178
 7585SOL    HW124762   6.384   5.756   4.207
 7585SOL    HW224763   6.286   5.800   4.100
 7586SOL     OW24764   4.168   6.030   7.675
 7586SOL    HW124765   4.233   5.964   7.701
 7586SOL    HW224766   4.121 -27.130   7.602
 7587SOL     OW24767  11.125   9.690   7.081
 7587SOL    HW124768  11.082  -1.264   7.078
 7587SOL    HW224769 -10.884   9.696   7.016
 7588SOL     OW24770   3.639  11.726   4.000
 7588SOL    HW124771 -29.523   0.617 -18.030
 7588SOL    HW224772 -18.415 -21.434  -7.122
 7589SOL     OW24773   7.501   8.161  -0.638
 7589SOL    HW124774 -25.533  19.159  32.498
 7589SOL    HW224775  -3.571   8.117  -0.716
 7590SOL     OW24776   7.314   7.559   3.808
 7590SOL    HW124777  -3.661   7.628  25.869
 7590SOL    HW224778  -3.681 -14.579   3.868
 7591SOL     OW24779   9.217   1.796   4.194
 7591SOL    HW124780   9.290   1.838  -6.802
 7591SOL    HW224781   9.147  12.900   4.196
 7592SOL     OW24782   2.556  11.174   2.250
 7592SOL    HW124783   2.540  11.266   2.272
 7592SOL    HW224784  13.688   0.121   2.272
 7593SOL     OW24785   9.746   5.272   2.710
 7593SOL    HW124786   9.797   5.255   2.790
 7593SOL    HW224787   9.795   5.227   2.641
 7594SOL     OW24788  -0.807   4.313   1.719
 7594SOL    HW124789  21.287   4.372  23.872
 7594SOL    HW224790  10.246 -17.711   1.641
 7595SOL     OW24791   8.159   7.720   4.701
 7595SOL    HW124792 -24.994   7.636  -6.307
 7595SOL    HW224793   8.223   7.745   4.766
 7596SOL     OW24794   7.572   1.492  10.680
 7596SOL    HW124795 -14.550   1.570  10.715
 7596SOL    HW224796   7.629   1.525  10.610
 7597SOL     OW24797   1.718   3.582   1.639
 7597SOL    HW124798   1.761   3.666   1.656
 7597SOL    HW224799  23.714   3.588   1.685
 7598SOL     OW24800   7.071   4.269   9.187
 7598SOL    HW124801   7.128   4.217   9.242
 7598SOL    HW224802  -4.057  15.288  -1.822
 7599SOL     OW24803   5.303   9.294   5.261
 7599SOL    HW124804 -16.861 -23.847   5.298
 7599SOL    HW224805  -5.713 -34.941   5.208
 7600SOL     OW24806   4.233   0.420   9.751
 7600SOL    HW124807 -17.796   0.495   9.783
 7600SOL    HW224808   4.215   0.367  20.869
 7601SOL     OW24809   1.034   8.208   3.476
 7601SOL    HW124810   1.097   8.206   3.404
 7601SOL    HW224811   1.064   8.140  14.576
 7602SOL     OW24812   0.725   2.541   2.205
 7602SOL    HW124813   0.813   2.529   2.168
 7602SOL    HW224814   0.713   2.636  -8.831
 7603SOL     OW24815   2.860   5.453   4.125
 7603SOL    HW124816   2.942   5.486   4.090
 7603SOL    HW224817   2.792   5.506  15.123
 7604SOL     OW24818   1.123  11.271   8.813
 7604SOL    HW124819   1.126  11.244 -13.358
 7604SOL    HW224820   1.064   0.169   8.855
 7605SOL     OW24821   9.445   3.503   3.048
 7605SOL    HW124822   9.473  -7.565   3.135
 7605SOL    HW224823   9.526   3.519  14.040
 7606SOL     OW24824   9.768   7.936   2.195
 7606SOL    HW124825   9.703   7.866  35.303
 7606SOL    HW224826   9.719  19.056   2.177
 7607SOL     OW24827   0.576   1.672   7.707
 7607SOL    HW124828   0.510   1.740   7.691
 7607SOL    HW224829   0.559  12.682   7.796
 7608SOL     OW24830   0.815   3.213   7.166
 7608SOL    HW124831   0.731   3.176   7.195
 7608SOL    HW224832  33.932   3.202   7.071
 7609SOL     OW24833   1.039   7.889   7.836
 7609SOL    HW124834 -10.030   7.972   7.800
 7609SOL    HW224835   1.114   7.911   7.891
 7610SOL     OW24836   4.497   3.200   3.465
 7610SOL    HW124837  -6.523   3.249   3.545
 7610SOL    HW224838   4.402   3.191   3.466
 7611SOL     OW24839   3.670   7.666   3.692
 7611SOL    HW124840   3.690 -36.523   3.604
 7611SOL    HW224841  14.794   7.694  25.807
 7612SOL     OW24842  10.192   0.973   1.856
 7612SOL    HW124843  -0.941 -10.089   1.862
 7612SOL    HW224844  32.308   0.944   1.939
 7613SOL     OW24845   5.801   8.075   1.278
 7613SOL    HW124846   5.760   8.123   1.206
 7613SOL    HW224847   5.894   8.093  12.308
 7614SOL     OW24848  11.565   0.165   4.256
 7614SOL    HW124849  11.596   0.093   4.201
 7614SOL    HW224850 -10.599  22.216   4.288
 7615SOL     OW24851   2.670  -0.528   3.261
 7615SOL    HW124852  -8.447  -0.513   3.314
 7615SOL    HW224853   2.665  10.578   3.192
 7616SOL     OW24854   1.857   6.643   1.609
 7616SOL    HW124855   1.927   6.603   1.660
 7616SOL    HW224856   1.839   6.726   1.654
 7617SOL     OW24857   8.546   4.791  13.129
 7617SOL    HW124858  -2.502  -6.210  13.042
 7617SOL    HW224859 -13.446  15.790 -31.030
 7618SOL     OW24860   0.664   0.953   2.151
 7618SOL    HW124861  11.740  23.056  -8.804
 7618SOL    HW224862  11.742 -10.024   2.090
 7619SOL     OW24863   1.322   2.888   8.705
 7619SOL    HW124864  12.297   2.872   8.637
 7619SOL    HW224865  23.484   2.898   8.658
 7620SOL     OW24866   6.309  11.956  10.020
 7620SOL    HW124867  17.339 -10.211  10.058
 7620SOL    HW224868  17.280   0.968  10.063
 7621SOL     OW24869   3.439   4.989   3.636
 7621SOL    HW124870   3.404   5.066   3.681
 7621SOL    HW224871   3.534  -6.045   3.650
 7622SOL     OW24872   7.747   8.216   7.041
 7622SOL    HW124873   7.720   8.207   6.949
 7622SOL    HW224874   7.756  -2.914   7.072
 7623SOL     OW24875  10.272   0.238   1.597
 7623SOL    HW124876  10.323  11.207  -9.403
 7623SOL    HW224877  -0.777   0.303   1.666
 7624SOL     OW24878   8.502   7.158   4.257
 7624SOL    HW124879   8.424   7.119  -6.744
 7624SOL    HW224880  -2.476   7.166   4.329
 7625SOL     OW24881  10.669   5.330   4.954
 7625SOL    HW124882  10.751 -16.792   4.977
 7625SOL    HW224883  -0.435  27.372   5.015
 7626SOL     OW24884   9.329   7.537   1.691
 7626SOL    HW124885  20.395   7.453   1.729
 7626SOL    HW224886   9.277   7.514   1.615
 7627SOL     OW24887   9.021   2.905   6.714
 7627SOL    HW124888   9.042  13.918 -15.455
 7627SOL    HW224889   8.927   2.924   6.711
 7628SOL     OW24890   7.136   9.427   2.664
 7628SOL    HW124891   7.129   9.505   2.719
 7628SOL    HW224892   7.200   9.451  13.637
 7629SOL     OW24893   6.909   1.350   8.020
 7629SOL    HW124894  -4.053   1.397   8.053
 7629SOL    HW224895   6.912   1.265   8.064
 7630SOL     OW24896   2.497   8.463   2.641
 7630SOL    HW124897   2.526   8.439   2.553
 7630SOL    HW224898   2.564   8.425   2.699
 7631SOL     OW24899   4.280   5.164   9.700
 7631SOL    HW124900   4.252   5.109   9.773
 7631SOL    HW224901   4.202  -5.827  20.715
 7632SOL     OW24902   1.212   9.228   7.563
 7632SOL    HW124903   1.260   9.234  18.685
 7632SOL    HW224904   1.269  -1.862   7.505
 7633SOL     OW24905   7.207   7.921  10.644
 7633SOL    HW124906   7.237   7.954  10.559
 7633SOL    HW224907   7.112  30.009  10.641
 7634SOL     OW24908   8.669   4.771   5.414
 7634SOL    HW124909   8.753   4.744   5.450
 7634SOL    HW224910   8.634  26.771   5.373
 7635SOL     OW24911   0.225   1.432  11.599
 7635SOL    HW124912  33.374   1.469 -10.563
 7635SOL    HW224913   0.156  12.411  11.574
 7636SOL     OW24914   9.365  10.818   4.134
 7636SOL    HW124915   9.391  -0.143   4.183
 7636SOL    HW224916  20.315  -0.203   4.105
 7637SOL     OW24917   0.993   2.013   9.850
 7637SOL    HW124918   1.017  -9.057   9.763
 7637SOL    HW224919   0.968  -9.106   9.897
 7638SOL     OW24920   5.152   2.644   4.977
 7638SOL    HW124921  -5.795   2.666   4.985
 7638SOL    HW224922 -27.973  13.593   5.007
 7639SOL     OW24923   5.608   4.653   3.369
 7639SOL    HW124924   5.650   4.694   3.294
 7639SOL    HW224925  16.647   4.560   3.348
 7640SOL     OW24926  11.480   9.447   2.938
 7640SOL    HW124927 -21.621   9.524  36.111
 7640SOL    HW224928   0.523   9.431   2.892
 7641SOL     OW24929   9.571   9.475   2.564
 7641SOL    HW124930   9.588   9.382   2.548
 7641SOL    HW224931   9.641   9.502  13.663
 7642SOL     OW24932  10.267   3.715   8.443
 7642SOL    HW124933  10.224  14.670  19.496
 7642SOL    HW224934 -22.835  25.826 -13.547
 7643SOL     OW24935   8.808   0.768   2.722
 7643SOL    HW124936   8.798   0.863   2.722
 7643SOL    HW224937   8.886 -10.287  13.815
 7644SOL     OW24938   8.950   6.934   8.222
 7644SOL    HW124939   8.982   7.005   8.278
 7644SOL    HW224940 -35.226   6.977   8.138
 7645SOL     OW24941  10.896   9.760   7.877
 7645SOL    HW124942  -0.142   9.726  -3.073
 7645SOL    HW224943  10.819   9.817   7.874
 7646SOL     OW24944   5.602   4.059   1.150
 7646SOL    HW124945   5.618  15.011   1.186
 7646SOL    HW224946   5.517  -6.987   1.107
 7647SOL     OW24947   3.306   2.859   5.052
 7647SOL    HW124948   3.334   2.829   5.138
 7647SOL    HW224949  14.393   2.941  -6.001
 7648SOL     OW24950   9.755   9.744   0.940
 7648SOL    HW124951   9.786   9.688   1.011
 7648SOL    HW224952   9.799   9.828   0.955
 7649SOL     OW24953   8.906   0.447   5.871
 7649SOL    HW124954   8.841  11.512 -16.273
 7649SOL    HW224955   8.946  22.448 -16.244
 7650SOL     OW24956   7.981   9.221   4.808
 7650SOL    HW124957  30.082  20.286   4.719
 7650SOL    HW224958   7.956   9.129   4.801
 7651SOL     OW24959   1.571   6.182   2.264
 7651SOL    HW124960  -9.383   6.143   2.246
 7651SOL    HW224961   1.571  -4.841   2.358
 7652SOL     OW24962   0.482   6.909   4.904
 7652SOL    HW124963   0.473   6.953   4.820
 7652SOL    HW224964  22.487 -15.230   4.908
 7653SOL     OW24965   4.785   8.606   3.346
 7653SOL    HW124966  15.885   8.667   3.304
 7653SOL    HW224967   4.713   8.661  -7.662
 7654SOL     OW24968   9.779   1.992  -0.561
 7654SOL    HW124969  20.905  -9.077  10.507
 7654SOL    HW224970  20.790 -20.027  10.547
 7655SOL     OW24971   6.002   1.193   7.243
 7655SOL    HW124972   6.021   1.099   7.243
 7655SOL    HW224973   6.084   1.234   7.217
 7656SOL     OW24974   5.439   4.611   5.165
 7656SOL    HW124975   5.471   4.531   5.206
 7656SOL    HW224976 -16.723  26.707   5.209
 7657SOL     OW24977  10.246   2.607   1.893
 7657SOL    HW124978  10.208   2.637   1.811
 7657SOL    HW224979  10.267   2.687   1.941
 7658SOL     OW24980   9.459   1.496   1.467
 7658SOL    HW124981   9.543   1.477  -9.615
 7658SOL    HW224982  20.456   1.561   1.410
 7659SOL     OW24983   6.620   2.794   7.956
 7659SOL    HW124984   6.711  35.931   7.979
 7659SOL    HW224985   6.572   2.801  19.078
 7660SOL     OW24986   7.007   0.813   5.667
 7660SOL    HW124987   6.925  11.867   5.713
 7660SOL    HW224988  18.093   0.896   5.672
 7661SOL     OW24989   4.226   3.447   9.795
 7661SOL    HW124990   4.259  25.615   9.783
 7661SOL    HW224991   4.219   3.411   9.706
 7662SOL     OW24992   5.122   7.320   8.823
 7662SOL    HW124993  -5.905  18.267  30.926
 7662SOL    HW224994   5.052   7.350   8.881
 7663SOL     OW24995   8.588   1.032  -0.150
 7663SOL    HW124996   8.561   1.022  33.060
 7663SOL    HW224997   8.616   0.945  -0.176
 7664SOL     OW24998   5.509   5.256   4.601
 7664SOL    HW124999   5.530   5.289   4.513
 7664SOL    HW225000   5.592   5.260   4.648
 7665SOL     OW25001   7.839  10.149   8.962
 7665SOL    HW125002   7.829  10.144   8.867
 7665SOL    HW225003   7.773  10.090   8.997
 7666SOL     OW25004   9.866   1.914   3.224
 7666SOL    HW125005   9.809  -9.049   3.229
 7666SOL    HW225006   9.955   1.949   3.226
 7667SOL     OW25007  -0.074   7.854   3.383
 7667SOL    HW125008  10.941   7.832   3.473
 7667SOL    HW225009  -0.142   7.914   3.353
 7668SOL     OW25010   1.181   2.894   2.829
 7668SOL    HW125011   1.241   2.958   2.790
 7668SOL    HW225012   1.109  13.986 -19.215
 7669SOL     OW25013  10.585   1.051   1.939
 7669SOL    HW125014  10.523   1.055   2.012
 7669SOL    HW225015  10.617   1.140   1.929
 7670SOL     OW25016   1.614   0.445   8.992
 7670SOL    HW125017  -9.368   0.488   9.055
 7670SOL    HW225018   1.532   0.431   9.039
 7671SOL     OW25019   6.357   5.073   8.051
 7671SOL    HW125020  -4.769 -17.043   8.035
 7671SOL    HW225021   6.363   5.148   7.991
 7672SOL     OW25022   7.003   2.840   0.832
 7672SOL    HW125023   6.951   2.800   0.762
 7672SOL    HW225024   7.060  -8.137   0.786
 7673SOL     OW25025   9.854   4.414   1.164
 7673SOL    HW125026  20.884  -6.695   1.229
 7673SOL    HW225027   9.928   4.386  23.189
 7674SOL     OW25028   1.387   4.340   4.668
 7674SOL    HW125029  23.454   4.311   4.578
 7674SOL    HW225030   1.326   4.413   4.678
 7675SOL     OW25031   8.446   9.157   6.058
 7675SOL    HW125032   8.532   9.188   6.087
 7675SOL    HW225033   8.395   9.149   6.139
 7676SOL     OW25034   2.050  12.262   0.660
 7676SOL    HW125035   2.007  -9.823  44.903
 7676SOL    HW225036  -8.988   1.132  11.668
 7677SOL     OW25037   0.161   5.560   4.202
 7677SOL    HW125038   0.192   5.642   4.164
 7677SOL    HW225039   0.072  -5.489   4.170
 7678SOL     OW25040   4.251   3.439   6.339
 7678SOL    HW125041   4.329   3.489   6.315
 7678SOL    HW225042   4.248  -7.672  17.315
 7679SOL     OW25043   0.488   7.966   6.318
 7679SOL    HW125044   0.415   7.909   6.343
 7679SOL    HW225045   0.454   8.017   6.245
 7680SOL     OW25046   5.275   8.140   7.260
 7680SOL    HW125047   5.211   8.192   7.212
 7680SOL    HW225048   5.282   8.183   7.345
 7681SOL     OW25049   4.683   8.306   9.037
 7681SOL    HW125050  -6.310   8.223   9.046
 7681SOL    HW225051   4.723  19.403  -1.937
 7682SOL     OW25052   3.204   7.354   0.833
 7682SOL    HW125053   3.246 -14.693  22.832
 7682SOL    HW225054 -18.891  -3.608  22.965
 7683SOL     OW25055   4.163  11.020   2.468
 7683SOL    HW125056 -17.976 -33.165   2.398
 7683SOL    HW225057  -6.927  11.007   2.548
 7684SOL     OW25058  10.582   6.633   9.494
 7684SOL    HW125059  10.512  17.724  -1.586
 7684SOL    HW225060  10.662   6.679   9.471
 7685SOL     OW25061   3.822   9.809  -0.787
 7685SOL    HW125062  -7.185   9.822  -0.876
 7685SOL    HW225063   3.759   9.737  32.323
 7686SOL     OW25064   1.437   9.661  11.277
 7686SOL    HW125065   1.433  20.639  11.351
 7686SOL    HW225066  -9.647   9.739 -21.810
 7687SOL     OW25067   8.529   2.289   4.058
 7687SOL    HW125068  19.641  -8.700  15.133
 7687SOL    HW225069  19.505 -19.795   4.130
 7688SOL     OW25070   7.952  -1.576   2.580
 7688SOL    HW125071   7.953  20.442  24.585
 7688SOL    HW225072  18.899  20.504  13.647
 7689SOL     OW25073   8.873   7.498   5.272
 7689SOL    HW125074  -2.098   7.545   5.225
 7689SOL    HW225075   8.792  29.603   5.227
 7690SOL     OW25076  10.548   9.936   9.188
 7690SOL    HW125077  10.571   9.986  -1.773
 7690SOL    HW225078  10.559  21.038  -1.924
 7691SOL     OW25079   9.354  10.354   0.384
 7691SOL    HW125080   9.423  10.415   0.412
 7691SOL    HW225081   9.280  10.375   0.441
 7692SOL     OW25082   0.191   5.800   4.083
 7692SOL    HW125083   0.275   5.839   4.107
 7692SOL    HW225084   0.200  16.819   3.990
 7693SOL     OW25085   8.441   8.552  11.348
 7693SOL    HW125086   8.521  -2.438   0.323
 7693SOL    HW225087   8.377  19.629   0.369
 7694SOL     OW25088   2.005   9.766   8.149
 7694SOL    HW125089   1.930   9.731 -13.882
 7694SOL    HW225090  35.141   9.702  41.199
 7695SOL     OW25091  -0.517   3.638   4.547
 7695SOL    HW125092  -0.599   3.612  15.628
 7695SOL    HW225093  10.588   3.632   4.616
 7696SOL     OW25094   1.951   3.175   0.756
 7696SOL    HW125095   2.023   3.121   0.787
 7696SOL    HW225096   1.988   3.226   0.684
 7697SOL     OW25097   8.082   1.929   7.635
 7697SOL    HW125098  19.187  -9.168   7.596
 7697SOL    HW225099  -2.959 -20.073   7.579
 7698SOL     OW25100   4.991   5.670   0.023
 7698SOL    HW125101   4.915   5.704 -10.968
 7698SOL    HW225102  27.039   5.587  33.105
 7699SOL     OW25103   3.067   3.884   6.776
 7699SOL    HW125104   3.021   3.918  -4.186
 7699SOL    HW225105   3.080  -7.248   6.795
 7700SOL     OW25106   5.635   1.706   1.408
 7700SOL    HW125107   5.606   1.625   1.366
 7700SOL    HW225108   5.669   1.759   1.335
 7701SOL     OW25109   7.441   2.491   5.548
 7701SOL    HW125110   7.396  -8.486   5.491
 7701SOL    HW225111   7.534 -30.613   5.531
 7702SOL     OW25112  10.257   7.209   1.742
 7702SOL    HW125113  10.301   7.184   1.660
 7702SOL    HW225114  10.316  51.431  -9.258
 7703SOL     OW25115   1.904   2.062   1.273
 7703SOL    HW125116  -9.163   2.067   1.365
 7703SOL    HW225117   1.906   2.153   1.244
 7704SOL     OW25118  10.229   1.845   8.250
 7704SOL    HW125119  -0.880  12.950   8.257
 7704SOL    HW225120  21.304  -9.182   8.162
 7705SOL     OW25121   3.236   1.704  10.108
 7705SOL    HW125122  -7.897   1.690  10.120
 7705SOL    HW225123  25.349   1.617  10.085
 7706SOL     OW25124   9.896   9.895   1.783
 7706SOL    HW125125   9.887   9.848  12.740
 7706SOL    HW225126   9.942  -1.206   1.840
 7707SOL     OW25127   6.185  10.303   2.413
 7707SOL    HW125128   6.217  10.375   2.468
 7707SOL    HW225129   6.093  21.363  -8.642
 7708SOL     OW25130   1.284   5.577  11.484
 7708SOL    HW125131  12.349 -16.465  11.399
 7708SOL    HW225132   1.263  -5.387   0.499
 7709SOL     OW25133   1.589   4.834   3.968
 7709SOL    HW125134  -9.432  -6.251   4.050
 7709SOL    HW225135   1.671   4.833 -18.159
 7710SOL     OW25136   1.779   2.249   6.068
 7710SOL    HW125137  23.896   2.176   6.116
 7710SOL    HW225138   1.700   2.213  -5.012
 7711SOL     OW25139   8.052  10.448   5.783
 7711SOL    HW125140   7.983 -11.650 -27.400
 7711SOL    HW225141   8.122  10.488   5.732
 7712SOL     OW25142   2.350   3.164   6.597
 7712SOL    HW125143  -8.667   3.102   6.667
 7712SOL    HW225144   2.353   3.250   6.639
 7713SOL     OW25145   5.493   5.576  -0.617
 7713SOL    HW125146  16.545   5.573 -11.562
 7713SOL    HW225147   5.541   5.499  21.430
 7714SOL     OW25148  -0.951   6.281   9.274
 7714SOL    HW125149  21.179  17.287   9.347
 7714SOL    HW225150  -0.904  17.292   9.196
 7715SOL     OW25151   8.779   0.361   0.255
 7715SOL    HW125152   8.793   0.336  11.203
 7715SOL    HW225153   8.712   0.429   0.251
 7716SOL     OW25154   3.276   8.444   8.334
 7716SOL    HW125155   3.191  -2.555   8.353
 7716SOL    HW225156   3.321  -2.531   8.279
 7717SOL     OW25157   0.663   1.139   9.995
 7717SOL    HW125158   0.648  12.084  10.003
 7717SOL    HW225159   0.757   1.148   9.984
 7718SOL     OW25160   0.625   2.761   0.060
 7718SOL    HW125161   0.660   2.784  11.014
 7718SOL    HW225162   0.621  13.884 -10.933
 7719SOL     OW25163   7.312   1.365   2.299
 7719SOL    HW125164  29.453  -9.643   2.365
 7719SOL    HW225165   7.260   1.298   2.344
 7720SOL     OW25166   0.849   3.559   2.862
 7720SOL    HW125167   0.814   3.628   2.805
 7720SOL    HW225168   0.840   3.593   2.950
 7721SOL     OW25169   6.148   1.714   5.402
 7721SOL    HW125170 -15.863  12.819   5.403
 7721SOL    HW225171   6.128   1.698   5.495
 7722SOL     OW25172   5.565   1.346   7.767
 7722SOL    HW125173   5.616   1.407   7.713
 7722SOL    HW225174   5.603   1.261   7.748
 7723SOL     OW25175   7.658   5.224   5.347
 7723SOL    HW125176   7.738   5.177   5.325
 7723SOL    HW225177   7.663 -16.774   5.297
 7724SOL     OW25178   3.192   7.506   4.618
 7724SOL    HW125179  25.336   7.504   4.547
 7724SOL    HW225180  14.284   7.513   4.698
 7725SOL     OW25181  10.560   7.212   4.647
 7725SOL    HW125182  10.549  18.181   4.583
 7725SOL    HW225183  10.654   7.229   4.649
 7726SOL     OW25184   0.487   4.886  10.847
 7726SOL    HW125185  22.480   4.851  10.825
 7726SOL    HW225186  33.590   4.979  10.866
 7727SOL     OW25187   6.036   8.914   7.727
 7727SOL    HW125188   6.067   8.965  40.772
 7727SOL    HW225189   6.112  -2.136   7.784
 7728SOL     OW25190   1.283  -0.076   9.010
 7728SOL    HW125191  23.426  10.923  31.030
 7728SOL    HW225192   1.230  22.059   8.954
 7729SOL     OW25193  10.547   4.129   2.114
 7729SOL    HW125194  10.469   4.075  13.168
 7729SOL    HW225195  10.537   4.202 -19.904
 7730SOL     OW25196   7.653   7.009   0.854
 7730SOL    HW125197   7.601   7.086   0.833
 7730SOL    HW225198  40.713  -4.085   0.908
 7731SOL     OW25199   7.530   6.111   9.189
 7731SOL    HW125200   7.544   6.159   9.108
 7731SOL    HW225201   7.492   6.028  31.241
 7732SOL     OW25202   6.525   4.890   1.859
 7732SOL    HW125203   6.579   4.861   1.933
 7732SOL    HW225204  17.485  -6.202  12.906
 7733SOL     OW25205   6.827   2.175  10.499
 7733SOL    HW125206  17.939   2.210  10.449
 7733SOL    HW225207  17.903   2.100  10.546
 7734SOL     OW25208   0.665   7.964   7.598
 7734SOL    HW125209   0.697   7.939  29.590
 7734SOL    HW225210  11.667   8.051 -14.493
 7735SOL     OW25211   6.309   4.198   8.703
 7735SOL    HW125212 -15.744 -17.888   8.611
 7735SOL    HW225213   6.217   4.169   8.704
 7736SOL     OW25214   5.521   4.164   5.909
 7736SOL    HW125215  16.591   4.098   5.848
 7736SOL    HW225216   5.430   4.181   5.882
 7737SOL     OW25217   9.673   1.763   4.415
 7737SOL    HW125218   9.673 -20.389   4.354
 7737SOL    HW225219  20.708  12.762   4.502
 7738SOL     OW25220   4.024   6.262   8.910
 7738SOL    HW125221   4.033 -15.884   8.841
 7738SOL    HW225222   3.930   6.273   8.920
 7739SOL     OW25223   0.036   0.794   6.662
 7739SOL    HW125224   0.119   0.782  28.786
 7739SOL    HW225225  -0.030   0.764   6.724
 7740SOL     OW25226   4.585   7.461   5.037
 7740SOL    HW125227   4.589  18.572   4.974
 7740SOL    HW225228   4.560  29.463  -6.055
 7741SOL     OW25229   9.565   9.322   9.152
 7741SOL    HW125230   9.559 -12.681  20.133
 7741SOL    HW225231   9.598   9.357   9.234
 7742SOL     OW25232   4.249   4.739   9.394
 7742SOL    HW125233  -6.806   4.780   9.309
 7742SOL    HW225234   4.343   4.746  -1.632
 7743SOL     OW25235   8.915   4.937   8.841
 7743SOL    HW125236   8.842   4.977   8.794
 7743SOL    HW225237  31.052   4.904   8.772
 7744SOL     OW25238   8.558   8.961   6.848
 7744SOL    HW125239   8.553   9.053   6.820
 7744SOL    HW225240   8.494   8.954   6.918
 7745SOL     OW25241   9.021   8.590   7.800
 7745SOL    HW125242   9.072  30.632  18.912
 7745SOL    HW225243   9.072   8.666   7.772
 7746SOL     OW25244   3.030   3.866   4.262
 7746SOL    HW125245  36.083   3.930 -17.790
 7746SOL    HW225246  25.169   3.861   4.336
 7747SOL     OW25247  11.739   6.922  10.427
 7747SOL    HW125248 -10.296  18.046  10.442
 7747SOL    HW225249   0.745   6.860  -0.556
 7748SOL     OW25250   8.829   2.949   3.012
 7748SOL    HW125251  19.909 -19.062   2.959
 7748SOL    HW225252   8.902  13.947  14.098
 7749SOL     OW25253   5.440   1.660   7.554
 7749SOL    HW125254  38.554  -9.308   7.490
 7749SOL    HW225255   5.388   1.590   7.515
 7750SOL     OW25256   9.768   4.297   5.530
 7750SOL    HW125257  -1.220   4.220   5.553
 7750SOL    HW225258  -1.266  26.381  -5.605
 7751SOL     OW25259   5.117   0.512   1.354
 7751SOL    HW125260   5.093   0.545   1.267
 7751SOL    HW225261   5.168   0.584  -9.646
 7752SOL     OW25262   1.718   1.141   9.357
 7752SOL    HW125263   1.660  12.105   9.347
 7752SOL    HW225264   1.658   1.216   9.366
 7753SOL     OW25265   4.317   4.610  11.643
 7753SOL    HW125266  15.349   4.652   0.689
 7753SOL    HW225267   4.359   4.526   0.620
 7754SOL     OW25268   6.716   0.785   3.332
 7754SOL    HW125269   6.674 -10.169  25.416
 7754SOL    HW225270   6.653   0.730 -18.793
 7755SOL     OW25271   2.198  -0.416   3.253
 7755SOL    HW125272  -8.893  10.640  -7.866
 7755SOL    HW225273  -8.907  -0.431   3.321
 7756SOL     OW25274   5.081   6.363   5.959
 7756SOL    HW125275   5.002   6.360   6.014
 7756SOL    HW225276   5.058   6.423  50.046
 7757SOL     OW25277   4.261   0.277   4.699
 7757SOL    HW125278 -17.733   0.235   4.706
 7757SOL    HW225279  -6.792  11.358   4.785
 7758SOL     OW25280   4.009   4.700   4.152
 7758SOL    HW125281   3.918  59.890   4.123
 7758SOL    HW225282  15.047  15.811  -6.823
 7759SOL     OW25283   4.278   9.082  10.874
 7759SOL    HW125284  15.362   9.166  10.890
 7759SOL    HW225285  37.365   9.055  10.960
 7760SOL     OW25286  -0.711   0.561   4.433
 7760SOL    HW125287  10.388   0.535  -6.677
 7760SOL    HW225288  10.278   0.482   4.452
 7761SOL     OW25289   6.305   3.722   1.927
 7761SOL    HW125290   6.259  -7.311   2.011
 7761SOL    HW225291   6.323   3.813  23.981
 7762SOL     OW25292   8.446   6.726  10.935
 7762SOL    HW125293  -2.657  17.785  10.866
 7762SOL    HW225294 -13.562   6.788  10.919
 7763SOL     OW25295   0.764  -0.430   3.115
 7763SOL    HW125296   0.800  21.694 -19.041
 7763SOL    HW225297   0.810 -11.553   3.117
 7764SOL     OW25298   3.389  11.225   5.629
 7764SOL    HW125299  14.464 -10.939   5.656
 7764SOL    HW225300  -7.583 -54.949   5.656
 7765SOL     OW25301   7.720   3.976   1.437
 7765SOL    HW125302   7.730   4.014  12.564
 7765SOL    HW225303  -3.245   3.918   1.427
 7766SOL     OW25304  10.257   5.855   9.687
 7766SOL    HW125305  10.228   5.814  20.808
 7766SOL    HW225306  10.177   5.869   9.637
 7767SOL     OW25307   1.410   6.273   7.293
 7767SOL    HW125308  -9.700   6.236   7.240
 7767SOL    HW225309   1.403  17.407   7.280
 7768SOL     OW25310   7.038   6.285   7.282
 7768SOL    HW125311   7.025   6.305  18.414
 7768SOL    HW225312   7.118   6.232  -3.759
 7769SOL     OW25313   9.377  12.144   3.394
 7769SOL    HW125314  -1.753  -9.945   3.366
 7769SOL    HW225315   9.413  12.210  -7.706
 7770SOL     OW25316   7.872   3.861  12.206
 7770SOL    HW125317 -14.272   3.791  -9.881
 7770SOL    HW225318  -3.135   3.855  12.296
 7771SOL     OW25319  10.961   8.841  -1.133
 7771SOL    HW125320  10.973   8.936  20.945
 7771SOL    HW225321  10.998   8.813  -1.049
 7772SOL     OW25322   2.784   8.301   6.992
 7772SOL    HW125323   2.822   8.360   7.058
 7772SOL    HW225324   2.691  -2.743   7.015
 7773SOL     OW25325   7.177  -0.742   1.623
 7773SOL    HW125326   7.260  10.327   1.660
 7773SOL    HW225327   7.136  10.248  23.773
 7774SOL     OW25328  10.780   6.764   3.559
 7774SOL    HW125329  10.864 -15.303  25.682
 7774SOL    HW225330  -0.281   6.671   3.573
 7775SOL     OW25331   1.433   2.313   2.128
 7775SOL    HW125332  12.382  24.366  -8.892
 7775SOL    HW225333 -20.653   2.403  24.176
 7776SOL     OW25334   5.001   9.996   5.115
 7776SOL    HW125335   4.964  10.015   5.201
 7776SOL    HW225336   5.053   9.917   5.129
 7777SOL     OW25337   0.566  11.319   5.236
 7777SOL    HW125338  11.562   0.365   5.234
 7777SOL    HW225339   0.599   0.268  -5.893
 7778SOL     OW25340   3.576   4.587  10.542
 7778SOL    HW125341  47.749   4.532  -0.421
 7778SOL    HW225342  47.740   4.677  10.575
 7779SOL     OW25343   1.812   8.074  -0.338
 7779SOL    HW125344  23.962   8.132  -0.309
 7779SOL    HW225345   1.848   8.030  10.624
 7780SOL     OW25346   1.253   4.383   7.511
 7780SOL    HW125347   1.159   4.383  18.565
 7780SOL    HW225348 -20.813   4.439   7.435
 7781SOL     OW25349   9.071   5.723   4.996
 7781SOL    HW125350   9.073  -5.355  -6.131
 7781SOL    HW225351   9.015   5.801   4.987
 7782SOL     OW25352  12.558   8.047   7.112
 7782SOL    HW125353 -20.643  -2.964   7.152
 7782SOL    HW225354  12.579   8.117  18.089
 7783SOL     OW25355   5.694   0.771   9.639
 7783SOL    HW125356   5.691   0.771   9.544
 7783SOL    HW225357   5.750   0.696   9.661
 7784SOL     OW25358   5.102   6.586   5.744
 7784SOL    HW125359   5.153  -4.406   5.678
 7784SOL    HW225360  16.076   6.650   5.774
 7785SOL     OW25361   6.510   1.582   8.287
 7785SOL    HW125362   6.521   1.566  30.460
 7785SOL    HW225363   6.463   1.665   8.282
 7786SOL     OW25364   4.947   7.641  10.475
 7786SOL    HW125365   4.976   7.553  10.501
 7786SOL    HW225366   4.975   7.649  10.384
 7787SOL     OW25367  -1.113  10.825   0.335
 7787SOL    HW125368  20.900  10.881   0.295
 7787SOL    HW225369  -1.135  10.824   0.428
 7788SOL     OW25370   5.731  -0.657   8.577
 7788SOL    HW125371   5.809  21.374   8.549
 7788SOL    HW225372 -38.425  -0.576   8.525
 7789SOL     OW25373   4.782   7.411   4.028
 7789SOL    HW125374   4.698  18.404   4.028
 7789SOL    HW225375  15.886   7.344   4.051
 7790SOL     OW25376   4.403   0.599   7.482
 7790SOL    HW125377  -6.676   0.583   7.396
 7790SOL    HW225378   4.346  22.630  18.583
 7791SOL     OW25379   8.665   7.977   3.746
 7791SOL    HW125380   8.759   7.973   3.763
 7791SOL    HW225381  19.696  -3.069   3.651
 7792SOL     OW25382  -0.750   1.058  -0.201
 7792SOL    HW125383  10.229   1.068  10.765
 7792SOL    HW225384  21.414   1.040  21.837
 7793SOL     OW25385   6.560   4.322  10.378
 7793SOL    HW125386   6.497   4.365  10.436
 7793SOL    HW225387  28.628   4.367  10.294
 7794SOL     OW25388   4.350   3.409   9.478
 7794SOL    HW125389   4.355  14.422   9.386
 7794SOL    HW225390   4.394   3.339  20.565
 7795SOL     OW25391   4.622   9.939   2.175
 7795SOL    HW125392   4.672  10.016   2.148
 7795SOL    HW225393   4.535   9.973  -8.845
 7796SOL     OW25394   7.115  10.316  11.422
 7796SOL    HW125395   7.048  10.360  11.370
 7796SOL    HW225396  18.118  -0.727   0.470
 7797SOL     OW25397   2.258   3.263   9.831
 7797SOL    HW125398 -19.763  14.350  -1.269
 7797SOL    HW225399  -8.734   3.264   9.915
 7798SOL     OW25400   7.579   2.957   0.917
 7798SOL    HW125401   7.615   2.890 -10.065
 7798SOL    HW225402   7.509   2.998   0.968
 7799SOL     OW25403   9.752   2.391   4.073
 7799SOL    HW125404   9.672   2.437  26.177
 7799SOL    HW225405   9.800  -8.584   4.020
 7800SOL     OW25406   9.591   8.062   8.448
 7800SOL    HW125407   9.527   7.993   8.468
 7800SOL    HW225408   9.625   8.089   8.533
 7801SOL     OW25409   9.657   7.114  12.474
 7801SOL    HW125410   9.689   7.071 -20.565
 7801SOL    HW225411   9.652 -26.076  12.410
 7802SOL     OW25412   0.759   5.574   1.866
 7802SOL    HW125413   0.707  38.649   1.799
 7802SOL    HW225414   0.835   5.517   1.879
 7803SOL     OW25415   2.300   0.245   1.407
 7803SOL    HW125416 -30.878   0.179 -20.709
 7803SOL    HW225417   2.303   0.224   1.501
 7804SOL     OW25418   2.443   0.990   9.882
 7804SOL    HW125419  13.530  12.090  20.978
 7804SOL    HW225420  13.551   0.932 -12.232
 7805SOL     OW25421   9.085   0.590   6.224
 7805SOL    HW125422   9.116   0.571   6.312
 7805SOL    HW225423   9.164  22.678   6.171
 7806SOL     OW25424   8.008   7.759   7.064
 7806SOL    HW125425   7.985   7.666   7.055
 7806SOL    HW225426 -25.054  18.802   7.141
 7807SOL     OW25427   6.869   0.578   7.131
 7807SOL    HW125428  17.920   0.635  18.247
 7807SOL    HW225429  17.952   0.497   7.154
 7808SOL     OW25430   2.507   4.736   3.460
 7808SOL    HW125431  13.529   4.784  -7.498
 7808SOL    HW225432   2.469   4.792  -7.647
 7809SOL     OW25433   7.600   1.749  10.169
 7809SOL    HW125434  18.546   1.768  10.158
 7809SOL    HW225435  18.683   1.808  10.107
 7810SOL     OW25436  11.015   4.693  10.049
 7810SOL    HW125437  11.074  -6.365  10.123
 7810SOL    HW225438 -11.050  -6.254  10.030
 7811SOL     OW25439   3.807   0.175   4.371
 7811SOL    HW125440   3.885   0.168   4.315
 7811SOL    HW225441  -7.297   0.117   4.331
 7812SOL     OW25442   6.546   7.362   9.437
 7812SOL    HW125443  39.640   7.317   9.356
 7812SOL    HW225444   6.464   7.401   9.468
 7813SOL     OW25445   4.580   3.128   2.009
 7813SOL    HW125446   4.570   3.171  -9.116
 7813SOL    HW225447   4.615   3.197   2.065
 7814SOL     OW25448   0.865   9.754   7.559
 7814SOL    HW125449   0.858   9.849  29.630
 7814SOL    HW225450   0.805   9.719 -25.626
 7815SOL     OW25451   0.197   2.449   9.183
 7815SOL    HW125452   0.217   2.362   9.217
 7815SOL    HW225453   0.166  -8.606   9.094
 7816SOL     OW25454   6.802   4.649  10.701
 7816SOL    HW125455   6.890   4.651  -0.302
 7816SOL    HW225456   6.755   4.718  -0.291
 7817SOL     OW25457   7.084   5.294   7.103
 7817SOL    HW125458   7.091  -5.660   7.061
 7817SOL    HW225459   7.088   5.231   7.031
 7818SOL     OW25460  -1.158   7.789   7.617
 7818SOL    HW125461  20.997   7.834   7.581
 7818SOL    HW225462  -1.179  18.762  18.592
 7819SOL     OW25463   8.740   4.271   3.978
 7819SOL    HW125464   8.768   4.302   3.892
 7819SOL    HW225465  19.849   4.299   4.037
 7820SOL     OW25466   9.635   0.415   1.682
 7820SOL    HW125467   9.588   0.441   1.603
 7820SOL    HW225468   9.707   0.361  12.691
 7821SOL     OW25469   9.316   7.324   0.963
 7821SOL    HW125470   9.365   7.302   1.042
 7821SOL    HW225471   9.383   7.355 -10.138
 7822SOL     OW25472   5.553   7.901   2.524
 7822SOL    HW125473   5.483   7.841  24.576
 7822SOL    HW225474   5.524  30.013   2.610
 7823SOL     OW25475   3.464   6.959   1.275
 7823SOL    HW125476 -29.669   7.051   1.254
 7823SOL    HW225477  -7.578  -4.125  -9.849
 7824SOL     OW25478   8.688   5.238   2.294
 7824SOL    HW125479  19.714   5.202  13.246
 7824SOL    HW225480  19.644  -5.817  13.379
 7825SOL     OW25481   4.742   9.239   4.767
 7825SOL    HW125482   4.687   9.231 -17.233
 7825SOL    HW225483   4.715   9.322   4.728
 7826SOL     OW25484   9.264   4.942   4.747
 7826SOL    HW125485   9.304   4.903   4.825
 7826SOL    HW225486   9.180   4.976  -6.262
 7827SOL     OW25487   1.206   8.289   8.580
 7827SOL    HW125488   1.156   8.307   8.659
 7827SOL    HW225489   1.144   8.245  19.561
 7828SOL     OW25490  -0.217   3.656   1.204
 7828SOL    HW125491  10.872   3.585  12.204
 7828SOL    HW225492  21.908   3.736  12.217
 7829SOL     OW25493   4.433   7.637   1.307
 7829SOL    HW125494   4.454  18.734  23.312
 7829SOL    HW225495  -6.689  18.711   1.341
 7830SOL     OW25496   8.276   8.379   3.286
 7830SOL    HW125497  30.303   8.395   3.208
 7830SOL    HW225498   8.359   8.424   3.269
 7831SOL     OW25499   6.275   6.415   1.518
 7831SOL    HW125500 -15.839  17.368  -9.540
 7831SOL    HW225501   6.341   6.401   1.586
 7832SOL     OW25502  10.441   8.187   7.905
 7832SOL    HW125503  10.494   8.193   7.984
 7832SOL    HW225504  10.391  19.146   7.916
 7833SOL     OW25505   7.967   2.454   1.675
 7833SOL    HW125506  30.120  -8.525   1.678
 7833SOL    HW225507  30.020   2.452   1.583
 7834SOL     OW25508   8.106   5.162   1.777
 7834SOL    HW125509   8.048  -5.859  12.743
 7834SOL    HW225510   8.052   5.115   1.840
 7835SOL     OW25511   1.474   9.051   3.547
 7835SOL    HW125512   1.426   9.066   3.628
 7835SOL    HW225513   1.487  19.996 -18.535
 7836SOL     OW25514   3.048   8.429   9.661
 7836SOL    HW125515  25.206  19.520  31.755
 7836SOL    HW225516   2.979 -24.624   9.646
 7837SOL     OW25517   1.925   0.389   4.341
 7837SOL    HW125518   1.960  11.509   4.302
 7837SOL    HW225519  13.021 -10.668   4.416
 7838SOL     OW25520   9.343   3.255   0.056
 7838SOL    HW125521   9.269 -18.831   0.117
 7838SOL    HW225522   9.332  -7.859  -0.004
 7839SOL     OW25523   7.026   9.293   7.927
 7839SOL    HW125524   6.951   9.237   7.950
 7839SOL    HW225525   7.093   9.270   7.991
 7840SOL     OW25526   0.511   3.142   6.000
 7840SOL    HW125527   0.516   3.053   5.965
 7840SOL    HW225528   0.597  14.198   6.039
 7841SOL     OW25529   6.799   1.206  10.072
 7841SOL    HW125530   6.716   1.211  10.025
 7841SOL    HW225531   6.856   1.155 -23.104
 7842SOL     OW25532  -0.301   3.554   6.632
 7842SOL    HW125533  -0.289  47.764   6.552
 7842SOL    HW225534  21.684   3.551   6.645
 7843SOL     OW25535   2.932   7.850   1.485
 7843SOL    HW125536   2.902   7.773   1.533
 7843SOL    HW225537  14.022   7.814  -9.627
 7844SOL     OW25538   3.609   1.802   0.477
 7844SOL    HW125539   3.651   1.885   0.454
 7844SOL    HW225540   3.663 -20.312   0.548
 7845SOL     OW25541   3.000   5.986   5.541
 7845SOL    HW125542   2.906   5.965   5.539
 7845SOL    HW225543  14.070   5.966   5.453
 7846SOL     OW25544   8.911   2.105   5.712
 7846SOL    HW125545   8.916   2.059   5.628
 7846SOL    HW225546   8.844  -8.983  -5.278
 7847SOL     OW25547   9.667   3.905   5.599
 7847SOL    HW125548   9.732   3.971  -5.418
 7847SOL    HW225549  -1.365  25.974  27.584
 7848SOL     OW25550   5.921  10.347   5.532
 7848SOL    HW125551   5.968  10.347   5.449
 7848SOL    HW225552   5.982  10.390  16.633
 7849SOL     OW25553   2.818   7.011   7.205
 7849SOL    HW125554   2.889   7.048 -14.926
 7849SOL    HW225555   2.785   7.084   7.257
 7850SOL     OW25556   4.641   0.379   3.520
 7850SOL    HW125557   4.633   0.442 -40.568
 7850SOL    HW225558  -6.338   0.312   3.553
 7851SOL     OW25559   1.504   4.782   9.022
 7851SOL    HW125560  -9.604  15.759   8.996
 7851SOL    HW225561   1.583   4.750   8.978
 7852SOL     OW25562   7.853   2.494  11.025
 7852SOL    HW125563  29.885   2.563  -0.062
 7852SOL    HW225564  30.017   2.534  11.047
 7853SOL     OW25565   4.584   8.672   1.442
 7853SOL    HW125566   4.652   8.605   1.454
 7853SOL    HW225567   4.597   8.704   1.353
 7854SOL     OW25568   2.904   7.908   5.185
 7854SOL    HW125569  -8.120   7.974   5.117
 7854SOL    HW225570  -8.065   7.923  -5.791
 7855SOL     OW25571   5.040  10.267   3.868
 7855SOL    HW125572   4.966  10.228   3.823
 7855SOL    HW225573   5.001  10.318   3.939
 7856SOL     OW25574   3.465   2.271   6.593
 7856SOL    HW125575   3.401   2.258   6.523
 7856SOL    HW225576   3.426  13.377   6.650
 7857SOL     OW25577   9.801   1.032   2.153
 7857SOL    HW125578   9.890  23.145   2.165
 7857SOL    HW225579   9.800   0.998   2.064
 7858SOL     OW25580   7.137   9.939   8.160
 7858SOL    HW125581  -3.966  10.010   8.155
 7858SOL    HW225582  -3.914   9.890  -2.961
 7859SOL     OW25583   8.759   4.061   6.679
 7859SOL    HW125584   8.728  26.171  17.804
 7859SOL    HW225585  -2.263  -6.900   6.629
 7860SOL     OW25586   5.121  10.063   6.125
 7860SOL    HW125587   5.027  10.083   6.121
 7860SOL    HW225588   5.126   9.968   6.115
 7861SOL     OW25589   2.733   3.251   3.468
 7861SOL    HW125590 -19.322   3.162   3.493
 7861SOL    HW225591   2.803  25.385  25.581
 7862SOL     OW25592   7.062   7.851   9.637
 7862SOL    HW125593   7.125 -25.340   9.636
 7862SOL    HW225594   6.977 -14.271   9.626
 7863SOL     OW25595   9.230   6.846   1.220
 7863SOL    HW125596   9.175  17.879   1.142
 7863SOL    HW225597   9.197   6.923   1.266
 7864SOL     OW25598   1.518  10.492   2.358
 7864SOL    HW125599   1.458  32.639   2.325
 7864SOL    HW225600 -20.523 -11.626  -8.760
 7865SOL     OW25601   1.539   6.141  10.353
 7865SOL    HW125602  -9.538 -15.877  -0.623
 7865SOL    HW225603   1.610   6.190  10.312
 7866SOL     OW25604   6.608   5.449  -0.524
 7866SOL    HW125605   6.619  16.393  10.506
 7866SOL    HW225606   6.630  -5.556  10.429
 7867SOL     OW25607  12.062  10.305   5.504
 7867SOL    HW125608  12.136  10.245   5.498
 7867SOL    HW225609 -10.066  10.274  27.660
 7868SOL     OW25610  10.512  12.220  10.236
 7868SOL    HW125611 -11.489 -31.883  10.245
 7868SOL    HW225612  10.505  12.204  10.142
 7869SOL     OW25613   7.135   3.548   6.222
 7869SOL    HW125614   7.154   3.603   6.146
 7869SOL    HW225615   7.073   3.483   6.189
 7870SOL     OW25616   6.386   9.362   3.355
 7870SOL    HW125617   6.297  -1.709   3.367
 7870SOL    HW225618   6.382   9.418  -7.762
 7871SOL     OW25619   2.934   4.285   8.767
 7871SOL    HW125620  -8.120   4.190   8.771
 7871SOL    HW225621   2.850   4.323   8.793
 7872SOL     OW25622   6.131   5.076   2.514
 7872SOL    HW125623   6.223  16.143   2.521
 7872SOL    HW225624   6.122   5.004  -8.463
 7873SOL     OW25625  10.108   9.383   5.860
 7873SOL    HW125626  -0.982   9.421  -5.251
 7873SOL    HW225627  10.176   9.448   5.879
 7874SOL     OW25628  10.558   2.188  11.358
 7874SOL    HW125629  10.616   2.119  11.326
 7874SOL    HW225630  10.568   2.260   0.256
 7875SOL     OW25631   9.121   7.708   5.581
 7875SOL    HW125632   9.045   7.759  -5.487
 7875SOL    HW225633   9.196   7.754  16.582
 7876SOL     OW25634   7.207   3.552   5.664
 7876SOL    HW125635   7.278   3.615 -38.506
 7876SOL    HW225636  18.193   3.589  38.853
 7877SOL     OW25637   4.028   9.725  11.702
 7877SOL    HW125638   4.024 -12.266 -10.341
 7877SOL    HW225639   4.116 -12.361  11.665
 7878SOL     OW25640   5.090   5.036   1.452
 7878SOL    HW125641  -5.989   5.066   1.534
 7878SOL    HW225642   5.183   5.056   1.461
 7879SOL     OW25643   4.368   2.349   1.233
 7879SOL    HW125644  -6.748   2.406  12.284
 7879SOL    HW225645   4.349   2.299   1.154
 7880SOL     OW25646   5.399   1.772   6.234
 7880SOL    HW125647   5.372  12.767   6.154
 7880SOL    HW225648 -27.749   1.862   6.222
 7881SOL     OW25649   9.596   6.117  11.315
 7881SOL    HW125650   9.582   6.095  11.223
 7881SOL    HW225651 -12.495   6.212 -10.761
 7882SOL     OW25652   0.434   2.380   8.954
 7882SOL    HW125653  11.403   2.321 -13.099
 7882SOL    HW225654  11.459   2.396   8.861
 7883SOL     OW25655   1.147   6.146   0.203
 7883SOL    HW125656   1.200   6.215   0.243
 7883SOL    HW225657   1.138   6.080   0.271
 7884SOL     OW25658   0.632   9.610   0.870
 7884SOL    HW125659  11.616   9.537  22.978
 7884SOL    HW225660  22.797   9.590  34.026
 7885SOL     OW25661   0.825  -1.595   0.417
 7885SOL    HW125662   0.864   9.401   0.340
 7885SOL    HW225663   0.757  20.540  11.420
 7886SOL     OW25664   1.397   3.861   9.775
 7886SOL    HW125665   1.483   3.882  20.777
 7886SOL    HW225666   1.417   3.824   9.861
 7887SOL     OW25667   1.397   3.295   6.637
 7887SOL    HW125668   1.428 -18.694  17.663
 7887SOL    HW225669   1.359   3.296   6.725
 7888SOL     OW25670   9.447   7.262   1.540
 7888SOL    HW125671   9.469   7.205   1.467
 7888SOL    HW225672  20.564   7.260   1.596
 7889SOL     OW25673   3.150  10.991   4.716
 7889SOL    HW125674   3.166  11.082   4.691
 7889SOL    HW225675   3.185  10.984   4.804
 7890SOL     OW25676   9.781   1.987   2.976
 7890SOL    HW125677   9.812   1.926   3.042
 7890SOL    HW225678   9.860  -9.030   2.926
 7891SOL     OW25679   7.602  10.612   8.449
 7891SOL    HW125680   7.540  10.563   8.396
 7891SOL    HW225681   7.686  10.570   8.433
 7892SOL     OW25682  10.575   7.057   1.527
 7892SOL    HW125683  10.508   7.123   1.511
 7892SOL    HW225684  10.576  40.122   1.448
 7893SOL     OW25685   6.553   2.889   6.000
 7893SOL    HW125686   6.495   2.906  16.966
 7893SOL    HW225687   6.529  13.995   6.065
 7894SOL     OW25688   8.087   8.354   4.210
 7894SOL    HW125689   7.995   8.340  15.274
 7894SOL    HW225690   8.108   8.278  -6.885
 7895SOL     OW25691   4.370   7.662   8.554
 7895SOL    HW125692   4.457 -25.489  -2.509
 7895SOL    HW225693  15.394   7.734   8.493
 7896SOL     OW25694  -2.337   6.878   8.371
 7896SOL    HW125695  -2.274   6.912   8.308
 7896SOL    HW225696  41.875   6.850   8.445
 7897SOL     OW25697   8.360   4.497   5.455
 7897SOL    HW125698   8.316   4.509   5.371
 7897SOL    HW225699   8.446   4.462   5.433
 7898SOL     OW25700   3.473   1.884   5.091
 7898SOL    HW125701  14.447  -9.169   5.159
 7898SOL    HW225702   3.526  12.843 -39.066
 7899SOL     OW25703   8.230   0.664   0.769
 7899SOL    HW125704 -13.811   0.597  11.865
 7899SOL    HW225705  19.208   0.617 -10.327
 7900SOL     OW25706   0.270   4.006   6.192
 7900SOL    HW125707   0.349   3.999   6.137
 7900SOL    HW225708   0.290   3.953  17.308
 7901SOL     OW25709   7.753   4.695   2.551
 7901SOL    HW125710   7.758  37.901   2.513
 7901SOL    HW225711  40.887  81.985   2.644
 7902SOL     OW25712   6.915   4.780   1.061
 7902SOL    HW125713  18.005   4.798   1.140
 7902SOL    HW225714   6.826   4.810  12.120
 7903SOL     OW25715   0.844   3.228  10.127
 7903SOL    HW125716   0.811   3.212  -1.000
 7903SOL    HW225717   0.815  14.192  -0.862
 7904SOL     OW25718   3.427   4.799   9.015
 7904SOL    HW125719   3.463 -17.266   8.927
 7904SOL    HW225720   3.378 -17.200  -2.006
 7905SOL     OW25721   4.372   4.099   2.312
 7905SOL    HW125722  15.387  15.224  24.356
 7905SOL    HW225723   4.398   4.048   2.234
 7906SOL     OW25724   4.573   3.510   0.361
 7906SOL    HW125725   4.617  14.467   0.381
 7906SOL    HW225726   4.548   3.501   0.269
 7907SOL     OW25727  -0.679   0.919   3.110
 7907SOL    HW125728  21.491   0.943   3.130
 7907SOL    HW225729  -0.673   0.867  -8.009
 7908SOL     OW25730   8.170   5.275   4.949
 7908SOL    HW125731   8.256  16.355  16.003
 7908SOL    HW225732   8.136   5.259   5.037
 7909SOL     OW25733   5.875   1.717   6.564
 7909SOL    HW125734  16.987   1.760   6.518
 7909SOL    HW225735   5.802   1.779   6.555
 7910SOL     OW25736   8.756  10.772   3.907
 7910SOL    HW125737   8.770  10.750  37.118
 7910SOL    HW225738   8.797  10.858  70.134
 7911SOL     OW25739   1.568   7.706   1.294
 7911SOL    HW125740  12.540   7.765  -9.710
 7911SOL    HW225741   1.594   7.746  -9.829
 7912SOL     OW25742   7.873   0.640   2.582
 7912SOL    HW125743   7.906   0.728 -30.555
 7912SOL    HW225744  -3.177   0.601   2.495
 7913SOL     OW25745   1.067   7.635   1.274
 7913SOL    HW125746   1.159   7.617   1.254
 7913SOL    HW225747   1.026  29.728   1.188
 7914SOL     OW25748   1.867   4.692   3.313
 7914SOL    HW125749   1.892   4.774   3.356
 7914SOL    HW225750   1.781   4.671 -29.769
 7915SOL     OW25751   2.017   9.418   1.748
 7915SOL    HW125752   2.062   9.374  12.860
 7915SOL    HW225753  -9.088   9.355   1.718
 7916SOL     OW25754   5.994   6.724   7.730
 7916SOL    HW125755   5.951  17.764   7.645
 7916SOL    HW225756  16.987   6.789   7.781
 7917SOL     OW25757   6.683   7.508   8.428
 7917SOL    HW125758   6.593   7.474  -2.612
 7917SOL    HW225759   6.688  -3.477  -2.690
 7918SOL     OW25760   8.208   3.809   9.614
 7918SOL    HW125761   8.212  -7.307  31.751
 7918SOL    HW225762   8.129   3.796   9.562
 7919SOL     OW25763   1.206   2.375   5.485
 7919SOL    HW125764  23.249  13.443 -16.509
 7919SOL    HW225765   1.301  -8.664   5.498
 7920SOL     OW25766   3.147   2.048   8.221
 7920SOL    HW125767   3.106   1.978   8.168
 7920SOL    HW225768  14.221   2.003   8.298
 7921SOL     OW25769   3.759   6.608   1.538
 7921SOL    HW125770   3.665   6.626   1.527
 7921SOL    HW225771   3.779   6.636   1.627
 7922SOL     OW25772   2.760   8.256   4.365
 7922SOL    HW125773   2.693   8.218   4.308
 7922SOL    HW225774   2.728  -2.799   4.454
 7923SOL     OW25775   6.294   7.416   2.718
 7923SOL    HW125776   6.382   7.437 -19.393
 7923SOL    HW225777   6.253   7.367   2.647
 7924SOL     OW25778   3.987  11.011  10.613
 7924SOL    HW125779   3.950  10.964  10.539
 7924SOL    HW225780   3.952  10.965  -0.349
 7925SOL     OW25781   4.489   0.089   6.313
 7925SOL    HW125782   4.505   0.103   6.407
 7925SOL    HW225783  15.539  -0.005   6.300
 7926SOL     OW25784  10.731   7.186   5.444
 7926SOL    HW125785  10.731   7.167  16.577
 7926SOL    HW225786  -0.315  -3.939  16.441
 7927SOL     OW25787   3.600   7.910   0.022
 7927SOL    HW125788   3.653   7.832   0.040
 7927SOL    HW225789   3.531   7.879  11.002
 7928SOL     OW25790   8.883   8.923   9.996
 7928SOL    HW125791 -13.242  31.076  -1.004
 7928SOL    HW225792  -2.083   8.963  -1.090
 7929SOL     OW25793   2.057   2.673   1.133
 7929SOL    HW125794   2.090   2.628   1.054
 7929SOL    HW225795  46.231   2.765   1.115
 7930SOL     OW25796   5.120   2.760   4.410
 7930SOL    HW125797   5.161 -19.290   4.328
 7930SOL    HW225798   5.101  -8.372   4.396
 7931SOL     OW25799   7.505   6.522   6.976
 7931SOL    HW125800   7.544   6.485   6.897
 7931SOL    HW225801   7.577   6.569   7.019
 7932SOL     OW25802   0.861   5.675   0.607
 7932SOL    HW125803   0.930   5.614  22.660
 7932SOL    HW225804   0.782   5.642   0.564
 7933SOL     OW25805   8.545   4.686  11.825
 7933SOL    HW125806  19.649   4.640 -21.238
 7933SOL    HW225807   8.596   4.756   0.743
 7934SOL     OW25808  11.273   7.259   7.687
 7934SOL    HW125809   0.204   7.192   7.625
 7934SOL    HW225810   0.285   7.210  -3.288
 7935SOL     OW25811   3.880   5.733   8.879
 7935SOL    HW125812  -7.206  -5.384  -2.130
 7935SOL    HW225813  -7.211   5.764   8.804
 7936SOL     OW25814   4.325   6.242   2.606
 7936SOL    HW125815   4.257   6.294   2.648
 7936SOL    HW225816 -17.674   6.295   2.614
 7937SOL     OW25817   8.509   5.406   8.273
 7937SOL    HW125818   8.496   5.478   8.335
 7937SOL    HW225819  19.464   5.361   8.271
 7938SOL     OW25820   9.216   4.119   1.004
 7938SOL    HW125821   9.234   4.056   0.934
 7938SOL    HW225822   9.300   4.162   1.020
 7939SOL     OW25823   4.494   1.036   1.314
 7939SOL    HW125824   4.461  12.122   1.391
 7939SOL    HW225825   4.588   1.027   1.330
 7940SOL     OW25826   4.294   1.499   8.516
 7940SOL    HW125827   4.309  12.569   8.605
 7940SOL    HW225828   4.247   1.416  19.566
 7941SOL     OW25829   6.358   9.392   2.200
 7941SOL    HW125830   6.268   9.406   2.230
 7941SOL    HW225831  17.432   9.325   2.259
 7942SOL     OW25832   9.307   5.461   4.807
 7942SOL    HW125833   9.255   5.505   4.739
 7942SOL    HW225834  -1.736   5.520  15.922
 7943SOL     OW25835   0.918   0.061  -0.584
 7943SOL    HW125836   0.994 -10.978  21.437
 7943SOL    HW225837   0.891  11.009  32.538
 7944SOL     OW25838   4.444   2.529   7.500
 7944SOL    HW125839   4.445  13.567   7.405
 7944SOL    HW225840  -6.565   2.442   7.527
 7945SOL     OW25841   5.715   9.144   5.758
 7945SOL    HW125842  -5.232  20.169  38.898
 7945SOL    HW225843   5.669  20.112   5.801
 7946SOL     OW25844   3.348   8.045   3.355
 7946SOL    HW125845   3.305  30.210  14.398
 7946SOL    HW225846   3.296   7.995  25.371
 7947SOL     OW25847  10.633   5.914  -1.520
 7947SOL    HW125848  10.614  17.008  20.483
 7947SOL    HW225849 -11.356   5.936  20.583
 7948SOL     OW25850   8.536   2.380  10.816
 7948SOL    HW125851  19.613  24.403  10.883
 7948SOL    HW225852  30.687  24.515  10.787
 7949SOL     OW25853   3.984   6.289   2.087
 7949SOL    HW125854  15.065   6.355   2.031
 7949SOL    HW225855  26.042   6.217   2.028
 7950SOL     OW25856  10.896   1.976   2.705
 7950SOL    HW125857  10.957   1.947   2.773
 7950SOL    HW225858  10.950   1.995   2.629
 7951SOL     OW25859   6.184   2.429   6.289
 7951SOL    HW125860   6.266  -8.568  -4.777
 7951SOL    HW225861  17.167   2.436   6.212
 7952SOL     OW25862   7.522   1.992   1.885
 7952SOL    HW125863  -3.422   1.997   1.894
 7952SOL    HW225864   7.501   1.900   1.897
 7953SOL     OW25865   7.747   7.097   6.843
 7953SOL    HW125866   7.706  18.051   6.834
 7953SOL    HW225867   7.765   7.126  -4.286
 7954SOL     OW25868   6.875   3.729   5.980
 7954SOL    HW125869   6.839   3.780   5.907
 7954SOL    HW225870   6.906   3.648  39.057
 7955SOL     OW25871   4.916   8.545  12.026
 7955SOL    HW125872   4.896   8.633 -10.084
 7955SOL    HW225873  15.973   8.556  12.119
 7956SOL     OW25874   0.094  11.336   9.095
 7956SOL    HW125875   0.156  11.269   9.122
 7956SOL    HW225876   0.010   0.270  -1.906
 7957SOL     OW25877   3.706  10.730   2.073
 7957SOL    HW125878 -40.462  10.649  -9.018
 7957SOL    HW225879   3.616  10.760   2.088
 7958SOL     OW25880   5.895   7.775   8.834
 7958SOL    HW125881 -16.254   7.717   8.866
 7958SOL    HW225882   5.951   7.717   8.782
 7959SOL     OW25883   6.490   2.503   2.079
 7959SOL    HW125884   6.458   2.420  -8.924
 7959SOL    HW225885  17.492   2.570   2.136
 7960SOL     OW25886   5.350   3.461   3.711
 7960SOL    HW125887   5.429   3.475   3.659
 7960SOL    HW225888   5.340   3.541   3.763
 7961SOL     OW25889   3.484   0.394  -0.136
 7961SOL    HW125890   3.473   0.355  22.030
 7961SOL    HW225891   3.424  22.423  10.848
 7962SOL     OW25892   3.666   5.177  10.359
 7962SOL    HW125893  14.757   5.124  10.420
 7962SOL    HW225894   3.614  -5.926  21.350
 7963SOL     OW25895   3.848   9.038   6.085
 7963SOL    HW125896   3.888   8.960   6.124
 7963SOL    HW225897  37.020   9.111   6.118
 7964SOL     OW25898   2.914   2.854   6.195
 7964SOL    HW125899   2.836   2.849 -26.869
 7964SOL    HW225900   2.914   2.772 -15.933
 7965SOL     OW25901   1.180   9.328   2.692
 7965SOL    HW125902   1.196   9.380   2.770
 7965SOL    HW225903   1.207   9.239   2.716
 7966SOL     OW25904   6.389   6.620   3.819
 7966SOL    HW125905  17.389   6.567   3.750
 7966SOL    HW225906   6.483   6.618  -7.241
 7967SOL     OW25907   3.918  10.324   6.217
 7967SOL    HW125908  -7.193  10.346  17.315
 7967SOL    HW225909   3.997  10.352   6.264
 7968SOL     OW25910   3.673   1.773   8.757
 7968SOL    HW125911 -18.351   1.775 -13.244
 7968SOL    HW225912   3.618  12.735   8.769
 7969SOL     OW25913   8.091   2.758   1.285
 7969SOL    HW125914   8.039 -19.401  45.432
 7969SOL    HW225915   8.119  -8.259   1.197
 7970SOL     OW25916   0.896   6.474   6.018
 7970SOL    HW125917   0.865   6.539   6.081
 7970SOL    HW225918   0.823   6.413   6.008
 7971SOL     OW25919   6.505   6.071   8.354
 7971SOL    HW125920   6.495  -5.026   8.278
 7971SOL    HW225921   6.514   6.158   8.317
 7972SOL     OW25922  10.440   8.809   9.204
 7972SOL    HW125923 -22.649 -35.383  -1.751
 7972SOL    HW225924  10.470   8.745  20.179
 7973SOL     OW25925   4.239   1.740   0.892
 7973SOL    HW125926   4.323   1.703   0.866
 7973SOL    HW225927 -17.833   1.834 -10.164
 7974SOL     OW25928   3.896   3.964   0.641
 7974SOL    HW125929  -7.146 -18.211  11.684
 7974SOL    HW225930   3.926  -7.055   0.553
 7975SOL     OW25931   9.990   8.117  10.728
 7975SOL    HW125932   9.894  -2.931  10.723
 7975SOL    HW225933  21.062   8.062  10.656
 7976SOL     OW25934  -0.700   2.493  -0.612
 7976SOL    HW125935  -0.755   2.431  10.476
 7976SOL    HW225936  21.330   2.575  -0.610
 7977SOL     OW25937   3.193   0.453   0.164
 7977SOL    HW125938   3.252   0.519  44.286
 7977SOL    HW225939   3.215   0.449   0.257
 7978SOL     OW25940   3.157   3.239   4.986
 7978SOL    HW125941  -7.899   3.325  -6.013
 7978SOL    HW225942   3.241   3.212   5.022
 7979SOL     OW25943   6.550   4.891  -0.755
 7979SOL    HW125944   6.611   4.964  43.388
 7979SOL    HW225945 -15.563   4.870 -11.882
 7980SOL     OW25946  -0.586   5.870   9.247
 7980SOL    HW125947  10.510   5.799  20.316
 7980SOL    HW225948  -0.672   5.850   9.282
 7981SOL     OW25949   8.566   1.821   0.770
 7981SOL    HW125950  -2.479   1.725   0.772
 7981SOL    HW225951   8.520   1.846   0.690
 7982SOL     OW25952   9.713   1.390   7.997
 7982SOL    HW125953   9.770   1.327   8.040
 7982SOL    HW225954   9.769   1.467 -25.137
 7983SOL     OW25955  10.774   3.247   4.415
 7983SOL    HW125956  10.741  -7.738   4.487
 7983SOL    HW225957  10.870   3.256   4.420
 7984SOL     OW25958   8.385  11.612   4.242
 7984SOL    HW125959  19.389  11.648   4.323
 7984SOL    HW225960  -2.732   0.549   4.190
 7985SOL     OW25961   3.666   3.011   3.667
 7985SOL    HW125962 -51.616   3.022  14.662
 7985SOL    HW225963   3.669  -7.959   3.732
 7986SOL     OW25964   5.458   3.094   1.157
 7986SOL    HW125965   5.544   3.070   1.191
 7986SOL    HW225966   5.447  25.117  -9.960
 7987SOL     OW25967   2.055  10.697   4.948
 7987SOL    HW125968   2.015  10.709   5.034
 7987SOL    HW225969   1.982  10.702 -17.192
 7988SOL     OW25970   6.771   8.969   6.234
 7988SOL    HW125971   6.803   9.031   6.168
 7988SOL    HW225972   6.815   8.996 -15.764
 7989SOL     OW25973   0.058  10.108   9.402
 7989SOL    HW125974  11.187  10.083   9.423
 7989SOL    HW225975  11.043  10.041   9.445
 7990SOL     OW25976   2.361  10.807  10.604
 7990SOL    HW125977   2.375  10.863  -0.359
 7990SOL    HW225978 -30.671  10.800  10.563
 7991SOL     OW25979   1.776   1.410  11.019
 7991SOL    HW125980   1.685   1.439  -0.022
 7991SOL    HW225981   1.771   1.315  11.015
 7992SOL     OW25982   7.905   7.077   6.123
 7992SOL    HW125983   7.960   7.151   6.100
 7992SOL    HW225984   7.947  18.077  17.239
 7993SOL     OW25985   8.560   7.466   9.511
 7993SOL    HW125986   8.523   7.555   9.510
 7993SOL    HW225987   8.625  18.505   9.442
 7994SOL     OW25988   0.256   2.821   1.880
 7994SOL    HW125989 -10.836   2.864   1.813
 7994SOL    HW225990  11.238   2.816   1.957
 7995SOL     OW25991   1.605   8.399   5.898
 7995SOL    HW125992   1.571   8.435   5.816
 7995SOL    HW225993  12.655   8.306   5.880
 7996SOL     OW25994   4.618   0.400   1.629
 7996SOL    HW125995   4.541   0.442   1.590
 7996SOL    HW225996   4.632   0.322 -20.503
 7997SOL     OW25997  10.591   1.252  10.807
 7997SOL    HW125998  10.618   1.246  10.898
 7997SOL    HW225999 -11.410  -9.809 -22.362
 7998SOL     OW26000   9.592   6.190   1.694
 7998SOL    HW126001  20.541   6.191   1.724
 7998SOL    HW226002   9.638   6.249  23.833
 7999SOL     OW26003   7.104   5.702   4.791
 7999SOL    HW126004  18.162 -16.306   4.851
 7999SOL    HW226005   7.014  27.797   4.761
 8000SOL     OW26006   3.643   5.982   2.059
 8000SOL    HW126007   3.678 -16.110   2.148
 8000SOL    HW226008   3.718  28.092   2.008
 8001SOL     OW26009   3.433   5.582   6.253
 8001SOL    HW126010 -18.621   5.494   6.226
 8001SOL    HW226011   3.338   5.582   6.253
 8002SOL     OW26012   9.718   0.792   4.379
 8002SOL    HW126013   9.700   0.775  -6.568
 8002SOL    HW226014   9.813   0.794  -6.667
 8003SOL     OW26015   8.389   2.877   8.794
 8003SOL    HW126016  -2.648   2.948  30.808
 8003SOL    HW226017   8.477   2.839   8.791
 8004SOL     OW26018   7.074   0.705   1.632
 8004SOL    HW126019   7.116   0.627   1.595
 8004SOL    HW226020   7.134  11.773   1.701
 8005SOL     OW26021  10.700  10.237   6.926
 8005SOL    HW126022  10.756 -11.802  -4.047
 8005SOL    HW226023  10.760 -11.868   6.856
 8006SOL     OW26024   4.864   9.406   7.345
 8006SOL    HW126025  15.945   9.357   7.275
 8006SOL    HW226026  15.921   9.498   7.325
 8007SOL     OW26027   0.021   1.066   0.064
 8007SOL    HW126028   0.089  12.060   0.114
 8007SOL    HW226029   0.069   1.128   0.010
 8008SOL     OW26030   3.264   8.348   6.140
 8008SOL    HW126031   3.218  19.392   6.057
 8008SOL    HW226032  -7.741  19.477   6.152
 8009SOL     OW26033   1.195   2.080   4.386
 8009SOL    HW126034  12.319   2.079   4.341
 8009SOL    HW226035   1.213  -8.922   4.472
 8010SOL     OW26036   1.255  10.456   4.529
 8010SOL    HW126037  12.342  -0.635   4.465
 8010SOL    HW226038   1.230  10.393  -6.442
 8011SOL     OW26039   0.305   3.561   9.446
 8011SOL    HW126040   0.252   3.502   9.499
 8011SOL    HW226041   0.243   3.622  -1.633
 8012SOL     OW26042   5.964   1.985   3.319
 8012SOL    HW126043   5.985  24.099  25.311
 8012SOL    HW226044  16.932   2.040   3.350
 8013SOL     OW26045   8.101   7.983   7.652
 8013SOL    HW126046   8.099  19.117   7.667
 8013SOL    HW226047   8.112  -3.065   7.558
 8014SOL     OW26048   1.730   9.258   9.729
 8014SOL    HW126049  23.782   9.316   9.799
 8014SOL    HW226050   1.718   9.309   9.649
 8015SOL     OW26051   7.387   9.509   1.894
 8015SOL    HW126052  -3.666   9.456   1.816
 8015SOL    HW226053   7.462   9.469   1.938
 8016SOL     OW26054   6.360   5.160   2.182
 8016SOL    HW126055  17.329   5.221   2.162
 8016SOL    HW226056  28.411   5.078   2.140
 8017SOL     OW26057   3.534   4.578   3.148
 8017SOL    HW126058   3.605 -17.516   3.086
 8017SOL    HW226059 -18.566   4.671   3.139
 8018SOL     OW26060   3.091  10.314   6.795
 8018SOL    HW126061  -7.979  10.287  -4.331
 8018SOL    HW226062   3.087  -0.630  -4.246
 8019SOL     OW26063   6.592   5.630  10.731
 8019SOL    HW126064   6.601  16.762 -11.371
 8019SOL    HW226065   6.588   5.585  10.647
 8020SOL     OW26066   0.919   5.005   6.590
 8020SOL    HW126067   0.946   4.984   6.501
 8020SOL    HW226068  11.945 -39.058   6.589
 8021SOL     OW26069   4.341   2.865   6.955
 8021SOL    HW126070   4.269  -8.204  28.978
 8021SOL    HW226071 -17.757  -8.215  18.079
 8022SOL     OW26072   1.705   5.927   3.007
 8022SOL    HW126073   1.651  -5.038   3.035
 8022SOL    HW226074   1.712   5.937  13.952
 8023SOL     OW26075   5.427   7.039   8.997
 8023SOL    HW126076  27.587  -4.011  -2.092
 8023SOL    HW226077   5.419   7.133   9.010
 8024SOL     OW26078  10.911   3.196   0.781
 8024SOL    HW126079  10.938   3.104   0.789
 8024SOL    HW226080  10.860   3.213  11.900
 8025SOL     OW26081   2.916   0.387  12.720
 8025SOL    HW126082  13.922   0.353   1.764
 8025SOL    HW226083  25.090   0.381  -9.351
 8026SOL     OW26084  10.840   2.039   1.468
 8026SOL    HW126085  -0.247   2.087   1.400
 8026SOL    HW226086  21.971   2.066   1.457
 8027SOL     OW26087   7.421   7.171  10.069
 8027SOL    HW126088  -3.531   7.200  10.047
 8027SOL    HW226089   7.400  29.296  10.151
 8028SOL     OW26090   7.356   7.535   2.486
 8028SOL    HW126091  -3.751   7.540   2.418
 8028SOL    HW226092   7.311   7.498   2.562
 8029SOL     OW26093   8.840   6.637   9.846
 8029SOL    HW126094   8.777   6.699   9.809
 8029SOL    HW226095   8.848  17.608   9.780
 8030SOL     OW26096   2.176   2.987  -1.855
 8030SOL    HW126097   2.125  -8.127  31.230
 8030SOL    HW226098   2.171   2.979  53.438
 8031SOL     OW26099   9.577   6.175   7.388
 8031SOL    HW126100   9.594 -15.917  18.334
 8031SOL    HW226101   9.651   6.227   7.419
 8032SOL     OW26102   5.386   2.420   9.379
 8032SOL    HW126103   5.315   2.482   9.390
 8032SOL    HW226104  16.505  -8.566   9.377
 8033SOL     OW26105   3.345   3.508   3.241
 8033SOL    HW126106   3.293   3.452 -18.896
 8033SOL    HW226107   3.323   3.478   3.329
 8034SOL     OW26108   2.244   0.850  -0.626
 8034SOL    HW126109  13.268   0.759  10.389
 8034SOL    HW226110  -8.868  22.977  10.373
 8035SOL     OW26111   6.223   6.447   6.168
 8035SOL    HW126112  -4.862   6.517   6.121
 8035SOL    HW226113   6.265   6.396   6.098
 8036SOL     OW26114   0.142   7.241  10.272
 8036SOL    HW126115   0.174  -3.874  -0.717
 8036SOL    HW226116   0.112  18.242  10.190
 8037SOL     OW26117   5.026  11.272   5.378
 8037SOL    HW126118   4.971  11.291   5.302
 8037SOL    HW226119   5.038 -10.902   5.376
 8038SOL     OW26120   2.284   5.249   7.109
 8038SOL    HW126121   2.208   5.225   7.162
 8038SOL    HW226122 -19.723   5.199   7.147
 8039SOL     OW26123   7.128   9.608  11.543
 8039SOL    HW126124  29.139   9.617  11.476
 8039SOL    HW226125  29.218   9.513 -10.525
 8040SOL     OW26126   9.105   1.691   7.760
 8040SOL    HW126127 -13.042   1.756 -14.334
 8040SOL    HW226128  -1.913   1.658 -25.446
 8041SOL     OW26129   3.178   8.779   0.446
 8041SOL    HW126130   3.136   8.731   0.517
 8041SOL    HW226131   3.108  -2.208  33.525
 8042SOL     OW26132   4.201   8.404   8.813
 8042SOL    HW126133   4.156   8.324   8.840
 8042SOL    HW226134   4.293   8.389   8.835
 8043SOL     OW26135   5.591   2.435   5.218
 8043SOL    HW126136   5.613   2.430  16.351
 8043SOL    HW226137  38.615   2.419   5.215
 8044SOL     OW26138   4.808   3.508  10.293
 8044SOL    HW126139   4.722   3.473  10.270
 8044SOL    HW226140   4.816   3.590  -0.795
 8045SOL     OW26141   3.481   3.288   4.411
 8045SOL    HW126142  14.438 -18.745   4.427
 8045SOL    HW226143   3.454   3.205   4.372
 8046SOL     OW26144   5.530   9.698   5.723
 8046SOL    HW126145  27.633   9.621   5.671
 8046SOL    HW226146   5.613   9.735  38.870
 8047SOL     OW26147   5.014  10.324   5.080
 8047SOL    HW126148   5.063  10.403  16.143
 8047SOL    HW226149 -17.055  -0.773   5.156
 8048SOL     OW26150   2.799   8.269  12.849
 8048SOL    HW126151   2.722 -13.775   1.855
 8048SOL    HW226152   2.785   8.175  -9.232
 8049SOL     OW26153   7.772   1.197  -0.475
 8049SOL    HW126154  29.924  23.214  10.558
 8049SOL    HW226155   7.744   1.211  10.474
 8050SOL     OW26156   1.813  10.992  -0.599
 8050SOL    HW126157   1.802  10.957  10.352
 8050SOL    HW226158  12.901  11.074  -0.611
 8051SOL     OW26159   8.930   9.586   1.814
 8051SOL    HW126160   9.019   9.595   1.780
 8051SOL    HW226161   8.941   9.541  12.937
 8052SOL     OW26162   9.180   7.890   1.991
 8052SOL    HW126163   9.160  29.938  13.119
 8052SOL    HW226164   9.118   7.961   1.975
 8053SOL     OW26165   4.289   0.766   6.994
 8053SOL    HW126166   4.328   0.838   7.042
 8053SOL    HW226167   4.315   0.688  -3.998
 8054SOL     OW26168   2.739  10.794   7.122
 8054SOL    HW126169  -8.389  -0.274   7.101
 8054SOL    HW226170   2.730  10.848   7.200
 8055SOL     OW26171   3.975   3.578   1.725
 8055SOL    HW126172 -18.119  58.783   1.631
 8055SOL    HW226173   3.889   3.595   1.764
 8056SOL     OW26174   4.514   7.865   0.499
 8056SOL    HW126175  26.637   7.781   0.502
 8056SOL    HW226176   4.539 -14.171   0.581
 8057SOL     OW26177   8.984   8.511   5.099
 8057SOL    HW126178   8.968  -2.623  16.141
 8057SOL    HW226179   8.984   8.532   5.006
 8058SOL     OW26180   2.975   3.233   5.276
 8058SOL    HW126181  13.949   3.267   5.337
 8058SOL    HW226182  25.069 -18.774  27.293
 8059SOL     OW26183   9.638  -0.157   6.454
 8059SOL    HW126184   9.566  10.884 -15.688
 8059SOL    HW226185  20.673  -0.073   6.498
 8060SOL     OW26186   5.992   8.451   5.886
 8060SOL    HW126187   6.083   8.480   5.892
 8060SOL    HW226188  17.015   8.408   5.970
 8061SOL     OW26189   8.716   2.746   9.814
 8061SOL    HW126190   8.657  24.791   9.881
 8061SOL    HW226191  -2.244   2.693  -1.218
 8062SOL     OW26192   5.110  -0.159   3.353
 8062SOL    HW126193  27.161  21.876   3.434
 8062SOL    HW226194   5.044  -0.184   3.288
 8063SOL     OW26195   5.357  10.722   1.870
 8063SOL    HW126196   5.386  10.658   1.805
 8063SOL    HW226197   5.283  -0.359   1.914
 8064SOL     OW26198   7.344   5.826  12.189
 8064SOL    HW126199   7.420  27.931  12.138
 8064SOL    HW226200  -3.770   5.844  -9.948
 8065SOL     OW26201   1.171   7.117   1.057
 8065SOL    HW126202  12.205   7.029   1.093
 8065SOL    HW226203   1.217   7.167   1.125
 8066SOL     OW26204   7.295   6.218   7.194
 8066SOL    HW126205   7.316 -26.843   7.267
 8066SOL    HW226206   7.369   6.156   7.190
 8067SOL     OW26207   2.348   8.726   0.010
 8067SOL    HW126208  13.426   8.778   0.081
 8067SOL    HW226209   2.400   8.749  -0.067
 8068SOL     OW26210   4.610  10.699   3.681
 8068SOL    HW126211  26.705  10.705   3.587
 8068SOL    HW226212   4.636 -11.294 -18.364
 8069SOL     OW26213  10.300  12.024   3.850
 8069SOL    HW126214  10.352  12.091   3.806
 8069SOL    HW226215  -0.826 -10.048   3.810
 8070SOL     OW26216   0.760   6.524  11.606
 8070SOL    HW126217   0.670   6.528  11.573
 8070SOL    HW226218   0.763   6.592   0.635
 8071SOL     OW26219   6.649   1.176   4.721
 8071SOL    HW126220  -4.435   1.176   4.806
 8071SOL    HW226221  17.645  -9.795   4.671
 8072SOL     OW26222   3.661   2.263   2.280
 8072SOL    HW126223   3.572   2.282   2.250
 8072SOL    HW226224   3.649   2.220   2.365
 8073SOL     OW26225   7.255   0.196  10.899
 8073SOL    HW126226   7.204   0.217  10.977
 8073SOL    HW226227   7.346   0.197  -0.111
 8074SOL     OW26228   7.802   6.432   9.149
 8074SOL    HW126229   7.805   6.513  31.279
 8074SOL    HW226230   7.765   6.458   9.065
 8075SOL     OW26231  10.506   7.894  10.853
 8075SOL    HW126232 -11.599   7.942  10.932
 8075SOL    HW226233  -0.439  18.924  10.861
 8076SOL     OW26234  -0.899   0.019   3.033
 8076SOL    HW126235  21.156  22.165  36.087
 8076SOL    HW226236  -0.914  11.100   3.117
 8077SOL     OW26237   2.488   3.703   9.596
 8077SOL    HW126238   2.481   3.790   9.637
 8077SOL    HW226239   2.445   3.714   9.511
 8078SOL     OW26240   8.272   5.377   1.790
 8078SOL    HW126241   8.248 -49.913   1.795
 8078SOL    HW226242   8.311   5.387   1.704
 8079SOL     OW26243   2.462   4.590   6.377
 8079SOL    HW126244   2.367   4.589   6.367
 8079SOL    HW226245   2.497  15.621   6.288
 8080SOL     OW26246   9.140   9.231   4.627
 8080SOL    HW126247   9.230   9.213  -6.437
 8080SOL    HW226248  42.237 -12.766   4.581
 8081SOL     OW26249   7.887  10.146   4.096
 8081SOL    HW126250   7.853  10.146   4.006
 8081SOL    HW226251   7.906  10.238   4.115
 8082SOL     OW26252   0.923   4.672   5.235
 8082SOL    HW126253   0.949  37.841   5.312
 8082SOL    HW226254   0.972  15.629   5.243
 8083SOL     OW26255   9.950   6.990   3.960
 8083SOL    HW126256   9.931   7.025   4.047
 8083SOL    HW226257  -1.173  -4.045  -7.126
 8084SOL     OW26258  -1.237   4.461   6.243
 8084SOL    HW126259  20.891  15.492   6.325
 8084SOL    HW226260  -1.175  -6.540   6.182
 8085SOL     OW26261   0.659   8.425  11.251
 8085SOL    HW126262  55.772  30.547 -10.835
 8085SOL    HW226263  33.787   8.378   0.129
 8086SOL     OW26264   1.567   8.078  -1.523
 8086SOL    HW126265  -9.534   8.148  20.578
 8086SOL    HW226266  -9.501   8.046  20.471
 8087SOL     OW26267   9.050   9.410   1.229
 8087SOL    HW126268   9.090   9.336  23.264
 8087SOL    HW226269   9.021   9.468   1.159
 8088SOL     OW26270   5.931   8.386   5.501
 8088SOL    HW126271   5.987   8.461  16.560
 8088SOL    HW226272   5.847   8.407   5.543
 8089SOL     OW26273   0.209   0.874   3.693
 8089SOL    HW126274   0.129   0.848 -18.432
 8089SOL    HW226275   0.268   0.903   3.624
 8090SOL     OW26276  10.889   3.772   6.904
 8090SOL    HW126277  -0.061  -7.263   6.870
 8090SOL    HW226278  10.863   3.681  17.928
 8091SOL     OW26279   9.629   1.608   5.003
 8091SOL    HW126280  31.778   1.577  -5.978
 8091SOL    HW226281   9.627   1.544 -17.147
 8092SOL     OW26282   2.658  10.102  10.006
 8092SOL    HW126283  -8.455  10.095  10.068
 8092SOL    HW226284   2.666  10.196  21.029
 8093SOL     OW26285  -1.191   4.152   8.314
 8093SOL    HW126286  20.983   4.145  -2.716
 8093SOL    HW226287  -1.204   4.208   8.238
 8094SOL     OW26288   6.512  -1.419   1.431
 8094SOL    HW126289   6.433  20.704  -9.577
 8094SOL    HW226290   6.544  20.717   1.361
 8095SOL     OW26291   1.990   5.260   8.168
 8095SOL    HW126292   2.014   5.347   8.201
 8095SOL    HW226293   1.951  27.356  -2.957
 8096SOL     OW26294  10.274   1.470   9.763
 8096SOL    HW126295  10.333   1.543  31.858
 8096SOL    HW226296  10.326   1.407   9.713
 8097SOL     OW26297  10.321  10.037   3.729
 8097SOL    HW126298  10.231  10.066   3.748
 8097SOL    HW226299  10.338  10.069   3.641
 8098SOL     OW26300   8.491   2.359   2.246
 8098SOL    HW126301   8.566   2.307   2.276
 8098SOL    HW226302   8.526   2.449 -19.838
 8099SOL     OW26303   1.068   5.252   9.915
 8099SOL    HW126304   1.145   5.224   9.867
 8099SOL    HW226305   1.100   5.275  10.002
 8100SOL     OW26306   9.870   5.984   5.133
 8100SOL    HW126307   9.876  28.046  -5.813
 8100SOL    HW226308   9.885   5.899   5.092
 8101SOL     OW26309   7.946   2.425   8.680
 8101SOL    HW126310  -3.024   2.457   8.623
 8101SOL    HW226311   7.911   2.504   8.722
 8102SOL     OW26312   7.114   0.686   9.636
 8102SOL    HW126313  18.184  22.704  20.743
 8102SOL    HW226314   7.175   0.674  -1.476
 8103SOL     OW26315  10.807   3.890   9.586
 8103SOL    HW126316  10.777 -18.132   9.657
 8103SOL    HW226317  10.795  14.841  31.698
 8104SOL     OW26318   4.295   4.543   9.102
 8104SOL    HW126319 -28.916   4.527   9.080
 8104SOL    HW226320  -6.714   4.603  -2.006
 8105SOL     OW26321   5.029   9.498  10.173
 8105SOL    HW126322   5.009   9.454  -0.949
 8105SOL    HW226323  -6.009 -12.488  10.150
 8106SOL     OW26324   6.523   1.838   3.894
 8106SOL    HW126325  17.571  -9.296  14.921
 8106SOL    HW226326   6.519   1.873   3.805
 8107SOL     OW26327   6.537   0.700   8.301
 8107SOL    HW126328 -15.473   0.746   8.252
 8107SOL    HW226329 -15.500 -10.421  19.369
 8108SOL     OW26330   4.782   2.826  11.672
 8108SOL    HW126331   4.787 -30.335 -10.493
 8108SOL    HW226332  15.895  -8.249  11.721
 8109SOL     OW26333   8.243   6.024   0.307
 8109SOL    HW126334   8.306   6.075   0.358
 8109SOL    HW226335   8.158 -16.016   0.327
 8110SOL     OW26336  -1.314   2.323   3.042
 8110SOL    HW126337  -1.407  24.382   3.049
 8110SOL    HW226338  42.871   2.284  -8.081
 8111SOL     OW26339   1.385  10.187   5.610
 8111SOL    HW126340   1.382 -11.844   5.692
 8111SOL    HW226341   1.370  -0.786   5.543
 8112SOL     OW26342   3.383   8.841   7.980
 8112SOL    HW126343 -18.607  19.879  52.103
 8112SOL    HW226344   3.334   8.894   7.918
 8113SOL     OW26345   0.038   3.925   2.601
 8113SOL    HW126346  -0.001   4.005  13.674
 8113SOL    HW226347  -0.016   3.854   2.637
 8114SOL     OW26348   8.409   9.559   6.720
 8114SOL    HW126349   8.415  -1.575   6.706
 8114SOL    HW226350   8.367   9.567  -4.234
 8115SOL     OW26351   2.576   1.340   2.660
 8115SOL    HW126352 -41.558   1.266   2.715
 8115SOL    HW226353   2.544   1.406   2.721
 8116SOL     OW26354   9.869   5.985   9.324
 8116SOL    HW126355 -34.276   6.022   9.236
 8116SOL    HW226356   9.774  -5.069   9.330
 8117SOL     OW26357   4.021   4.920   9.748
 8117SOL    HW126358   4.100 -17.194   9.706
 8117SOL    HW226359   4.002   4.859  20.858
 8118SOL     OW26360   5.561   8.889   0.901
 8118SOL    HW126361   5.646  19.928   0.857
 8118SOL    HW226362   5.534   8.797   0.903
 8119SOL     OW26363   3.652  10.372   3.727
 8119SOL    HW126364  -7.313  10.375   3.787
 8119SOL    HW226365   3.576  10.382   3.784
 8120SOL     OW26366   5.040   3.172   5.788
 8120SOL    HW126367   5.008   3.169   5.879
 8120SOL    HW226368   5.098   3.097   5.780
 8121SOL     OW26369   5.446   3.739   6.661
 8121SOL    HW126370   5.540 -18.333  -4.393
 8121SOL    HW226371  -5.632   3.735   6.573
 8122SOL     OW26372  10.083   2.199   6.794
 8122SOL    HW126373  10.140   2.267   6.756
 8122SOL    HW226374  10.138   2.156   6.860
 8123SOL     OW26375   1.935   9.765   7.360
 8123SOL    HW126376   1.893   9.689   7.320
 8123SOL    HW226377   1.864  -1.211   7.373
 8124SOL     OW26378   0.887   7.992   0.828
 8124SOL    HW126379 -10.244  -3.049  22.882
 8124SOL    HW226380   0.893   8.061  11.933
 8125SOL     OW26381   7.143   9.703   5.790
 8125SOL    HW126382  29.132   9.711   5.819
 8125SOL    HW226383   7.193   9.684   5.870
 8126SOL     OW26384   8.943   4.645   4.588
 8126SOL    HW126385 -13.119  -6.486   4.609
 8126SOL    HW226386   8.866  -6.397  -6.509
 8127SOL     OW26387   5.490   8.324   4.736
 8127SOL    HW126388   5.468  19.419   4.661
 8127SOL    HW226389  16.625   8.325  26.818
 8128SOL     OW26390   5.897   1.439   3.930
 8128SOL    HW126391   5.849   1.366  15.009
 8128SOL    HW226392  -5.191  34.578  14.889
 8129SOL     OW26393   6.602   2.658  11.060
 8129SOL    HW126394   6.557   2.664   0.105
 8129SOL    HW226395   6.655   2.578  11.067
 8130SOL     OW26396   8.373   0.294   3.075
 8130SOL    HW126397  -2.756   0.277   3.045
 8130SOL    HW226398  19.424  11.428  -7.976
 8131SOL     OW26399   4.314   0.128   8.507
 8131SOL    HW126400   4.302  22.299  19.524
 8131SOL    HW226401 -28.712   0.121   8.532
 8132SOL     OW26402   3.035   4.875   7.991
 8132SOL    HW126403   3.111   4.863   8.048
 8132SOL    HW226404  25.143   4.942   7.928
 8133SOL     OW26405   3.386   4.171   6.837
 8133SOL    HW126406   3.477  15.198  28.944
 8133SOL    HW226407  -7.654   4.142   6.746
 8134SOL     OW26408   1.286   1.430   3.098
 8134SOL    HW126409   1.360   1.381   3.134
 8134SOL    HW226410   1.315   1.521  -7.941
 8135SOL     OW26411   1.894  10.641   0.308
 8135SOL    HW126412   1.895  10.667   0.216
 8135SOL    HW226413   1.987  10.629   0.330
 8136SOL     OW26414   5.228   9.311   1.079
 8136SOL    HW126415   5.270 -23.843  12.040
 8136SOL    HW226416   5.155   9.363   1.046
 8137SOL     OW26417   9.936   7.456   6.346
 8137SOL    HW126418  10.020   7.414  39.484
 8137SOL    HW226419   9.872   7.406   6.396
 8138SOL     OW26420   1.438   3.245   2.074
 8138SOL    HW126421   1.498   3.303   2.121
 8138SOL    HW226422   1.456   3.158  24.190
 8139SOL     OW26423   1.115  10.735   0.794
 8139SOL    HW126424  34.159  10.705   0.743
 8139SOL    HW226425   1.183  10.753   0.728
 8140SOL     OW26426  10.090   0.047   4.580
 8140SOL    HW126427  21.111   0.105   4.506
 8140SOL    HW226428  10.173   0.006   4.558
 8141SOL     OW26429   0.946   1.211   8.010
 8141SOL    HW126430   0.969  12.343  -3.025
 8141SOL    HW226431  12.068  34.284   8.028
 8142SOL     OW26432  10.161   1.395   6.801
 8142SOL    HW126433  10.231   1.459   6.788
 8142SOL    HW226434  10.196   1.335   6.868
 8143SOL     OW26435  -0.355   7.490   9.824
 8143SOL    HW126436  10.633   7.525   9.896
 8143SOL    HW226437  -0.273   7.463   9.865
 8144SOL     OW26438  10.106   3.804   4.144
 8144SOL    HW126439  10.020   3.775  26.194
 8144SOL    HW226440  10.097  14.938   4.154
 8145SOL     OW26441   9.847   4.509   3.351
 8145SOL    HW126442   9.760  26.615   3.320
 8145SOL    HW226443   9.907   4.569   3.306
 8146SOL     OW26444   2.790   7.088   6.194
 8146SOL    HW126445   2.700   7.058   6.207
 8146SOL    HW226446  13.884   7.012   6.214
 8147SOL     OW26447   2.923  10.793   6.368
 8147SOL    HW126448  -8.133  10.795   6.462
 8147SOL    HW226449   2.877  -0.169   6.335
 8148SOL     OW26450   0.300   2.414   2.813
 8148SOL    HW126451   0.310 -19.648  13.759
 8148SOL    HW226452   0.208   2.434  13.871
 8149SOL     OW26453   6.143   1.860   5.064
 8149SOL    HW126454  28.258   1.789   5.119
 8149SOL    HW226455   6.210  -9.164   4.998
 8150SOL     OW26456   6.446   2.256   0.091
 8150SOL    HW126457   6.455   2.320   0.161
 8150SOL    HW226458   6.440   2.308  11.051
 8151SOL     OW26459   0.463   1.640   2.204
 8151SOL    HW126460   0.533   1.574  -8.833
 8151SOL    HW226461   0.508   1.722   2.182
 8152SOL     OW26462   0.410   1.695   8.926
 8152SOL    HW126463  11.486   1.609   8.905
 8152SOL    HW226464  11.379 -20.403   8.988
 8153SOL     OW26465   8.059   5.494   1.903
 8153SOL    HW126466   8.117 -27.656   1.834
 8153SOL    HW226467 -25.003   5.505   1.980
 8154SOL     OW26468   0.616   6.397   4.645
 8154SOL    HW126469   0.705   6.361   4.652
 8154SOL    HW226470   0.626   6.490  -6.375
 8155SOL     OW26471   6.818   6.192   7.159
 8155SOL    HW126472   6.894  -4.819   7.209
 8155SOL    HW226473   6.805  -4.939  18.227
 8156SOL     OW26474   3.846   4.455  10.693
 8156SOL    HW126475   3.891   4.538  10.708
 8156SOL    HW226476  -7.137   4.408  10.631
 8157SOL     OW26477  -2.296   7.322  10.874
 8157SOL    HW126478  30.814  18.455  -0.144
 8157SOL    HW226479   8.828   7.316  10.829
 8158SOL     OW26480   5.309   8.287   0.053
 8158SOL    HW126481   5.262   8.365   0.023
 8158SOL    HW226482  -5.641 -13.779   0.021
 8159SOL     OW26483   2.609   5.907   2.926
 8159SOL    HW126484   2.551  16.954   3.001
 8159SOL    HW226485   2.568  -5.199  -8.170
 8160SOL     OW26486   3.114   4.671   2.097
 8160SOL    HW126487   3.181   4.662  13.203
 8160SOL    HW226488  -7.965   4.757   2.113
 8161SOL     OW26489   6.279   0.014   4.463
 8161SOL    HW126490 -26.827   0.090   4.519
 8161SOL    HW226491   6.314   0.041  -6.662
 8162SOL     OW26492   3.711   9.042   0.411
 8162SOL    HW126493   3.651   9.045   0.485
 8162SOL    HW226494   3.654   9.043  11.373
 8163SOL     OW26495   7.064   4.287   4.082
 8163SOL    HW126496  18.018   4.307   4.043
 8163SOL    HW226497   7.124   4.284  37.126
 8164SOL     OW26498   6.113   0.624   0.590
 8164SOL    HW126499   6.110   0.608   0.495
 8164SOL    HW226500   6.124   0.719   0.598
 8165SOL     OW26501   2.371   5.423   9.640
 8165SOL    HW126502   2.388   5.487   9.710
 8165SOL    HW226503   2.371  -5.701   9.684
 8166SOL     OW26504   8.828   9.445  10.110
 8166SOL    HW126505  -2.252   9.410  10.189
 8166SOL    HW226506  30.918   9.538  10.128
 8167SOL     OW26507   8.881   3.970   9.019
 8167SOL    HW126508   8.930   3.890   9.000
 8167SOL    HW226509  19.902   3.964   9.113
 8168SOL     OW26510   5.888   7.945   4.225
 8168SOL    HW126511   5.874   7.865  15.213
 8168SOL    HW226512   5.957   7.922   4.286
 8169SOL     OW26513   2.448   4.071   2.124
 8169SOL    HW126514   2.394   4.063   2.202
 8169SOL    HW226515   2.445   4.164   2.102
 8170SOL     OW26516   1.597  10.256  10.916
 8170SOL    HW126517   1.607  10.236  11.009
 8170SOL    HW226518  34.747 -11.901  -0.169
 8171SOL     OW26519   4.107  11.297   8.002
 8171SOL    HW126520   4.123  11.203  19.047
 8171SOL    HW226521   4.027   0.271  19.093
 8172SOL     OW26522   4.497  10.397   1.149
 8172SOL    HW126523   4.479 -11.774   1.170
 8172SOL    HW226524  15.482  -0.593  -9.829
 8173SOL     OW26525   1.340   8.236   6.153
 8173SOL    HW126526   1.423  30.359   6.170
 8173SOL    HW226527   1.333  19.209   6.222
 8174SOL     OW26528   5.939   2.411   6.071
 8174SOL    HW126529  16.932   2.474   6.016
 8174SOL    HW226530   5.978   2.349   6.009
 8175SOL     OW26531   2.944   7.174   2.795
 8175SOL    HW126532   3.015   7.166  -8.181
 8175SOL    HW226533   2.988   7.168   2.710
 8176SOL     OW26534   2.692   8.540   8.665
 8176SOL    HW126535  -8.253   8.529   8.656
 8176SOL    HW226536  -8.371   8.604   8.599
 8177SOL     OW26537   0.370  10.944   2.858
 8177SOL    HW126538   0.383  10.851 -19.241
 8177SOL    HW226539  11.393  10.985   2.773
 8178SOL     OW26540   3.924   1.834   0.459
 8178SOL    HW126541   4.008   1.789   0.456
 8178SOL    HW226542  -7.163   1.792   0.531
 8179SOL     OW26543   6.619   4.031   3.251
 8179SOL    HW126544   6.602   4.086   3.328
 8179SOL    HW226545   6.581   3.946  36.392
 8180SOL     OW26546   2.975   0.134   9.503
 8180SOL    HW126547   3.020  11.210   9.426
 8180SOL    HW226548   3.030   0.159   9.577
 8181SOL     OW26549  -0.883   4.841   3.642
 8181SOL    HW126550  -0.808   4.900  14.667
 8181SOL    HW226551  21.120 -17.188   3.612
 8182SOL     OW26552   7.501   8.171   4.474
 8182SOL    HW126553  -3.551   8.133   4.387
 8182SOL    HW226554   7.580   8.129   4.508
 8183SOL     OW26555   5.577   0.239   9.308
 8183SOL    HW126556   5.623 -10.862  -1.789
 8183SOL    HW226557  27.568  22.281 -12.761
 8184SOL     OW26558   2.918   8.755   1.681
 8184SOL    HW126559   2.887   8.736  23.671
 8184SOL    HW226560   2.867  -2.343   1.737
 8185SOL     OW26561   1.141   4.971   2.232
 8185SOL    HW126562   1.196   4.900   2.200
 8185SOL    HW226563   1.063   4.967   2.177
 8186SOL     OW26564  10.341   7.530   7.082
 8186SOL    HW126565  10.320   7.548  18.213
 8186SOL    HW226566  10.351  -3.424  29.121
 8187SOL     OW26567   0.963   3.737   3.661
 8187SOL    HW126568   0.893   3.768   3.719
 8187SOL    HW226569 -10.059   3.648   3.691
 8188SOL     OW26570   0.015   6.050  10.340
 8188SOL    HW126571  11.098  39.099  10.290
 8188SOL    HW226572  11.095   6.047  10.426
 8189SOL     OW26573   7.389   6.836   0.207
 8189SOL    HW126574  18.366   6.874   0.145
 8189SOL    HW226575   7.473   6.839   0.161
 8190SOL     OW26576   9.011   4.449   8.394
 8190SOL    HW126577   9.059  -6.516   8.358
 8190SOL    HW226578  -2.061  26.481  -2.722
 8191SOL     OW26579  -1.085   3.742  10.267
 8191SOL    HW126580  -1.144   3.816  10.254
 8191SOL    HW226581  21.078  -7.258  -0.747
 8192SOL     OW26582  -0.614   5.195   4.155
 8192SOL    HW126583  -0.550   5.260  -6.914
 8192SOL    HW226584  10.374   5.240  15.261
 8193SOL     OW26585   1.915   5.623   4.089
 8193SOL    HW126586  23.909   5.666  15.120
 8193SOL    HW226587   1.979   5.695   4.086
 8194SOL     OW26588   1.133   3.738   0.802
 8194SOL    HW126589   1.195   3.687   0.751
 8194SOL    HW226590   1.052   3.686  11.840
 8195SOL     OW26591  10.720  11.789   2.333
 8195SOL    HW126592  10.790  11.773   2.397
 8195SOL    HW226593  10.750 -10.214   2.283
 8196SOL     OW26594   6.942   1.366  10.696
 8196SOL    HW126595   7.016   1.305  10.697
 8196SOL    HW226596   6.873   1.321  10.745
 8197SOL     OW26597   3.410   2.574   0.532
 8197SOL    HW126598  -7.632  24.579   0.471
 8197SOL    HW226599  14.518  -8.487   0.595
 8198SOL     OW26600   4.025   9.350   2.243
 8198SOL    HW126601  -6.943   9.372   2.302
 8198SOL    HW226602   4.066   9.339   2.157
 8199SOL     OW26603   7.655   1.546   3.410
 8199SOL    HW126604   7.686   1.512   3.494
 8199SOL    HW226605  29.642  12.607  14.466
 8200SOL     OW26606   1.922   3.404   2.280
 8200SOL    HW126607   1.958   3.410  13.231
 8200SOL    HW226608   1.951   3.318  -8.728
 8201SOL     OW26609   4.291   4.142   4.640
 8201SOL    HW126610  26.390   4.053 -28.450
 8201SOL    HW226611   4.376  -6.860   4.619
 8202SOL     OW26612   3.774   3.110   6.568
 8202SOL    HW126613   3.737  36.303  28.695
 8202SOL    HW226614   3.699   3.058   6.541
 8203SOL     OW26615   9.505   5.801   5.619
 8203SOL    HW126616   9.500  16.757   5.573
 8203SOL    HW226617   9.438   5.855   5.578
 8204SOL     OW26618   6.628   2.838   7.070
 8204SOL    HW126619   6.624   2.776   7.143
 8204SOL    HW226620  17.755   2.877  18.117
 8205SOL     OW26621   5.695   6.065   2.346
 8205SOL    HW126622   5.729 -16.053   2.265
 8205SOL    HW226623  -5.272   6.059   2.408
 8206SOL     OW26624   5.476  -0.744   7.840
 8206SOL    HW126625   5.525  21.289  18.947
 8206SOL    HW226626  -5.497  -0.698   7.789
 8207SOL     OW26627   6.818   3.150   3.904
 8207SOL    HW126628   6.795  -7.934  26.064
 8207SOL    HW226629   6.897   3.105  14.913
 8208SOL     OW26630   1.796   1.184   7.793
 8208SOL    HW126631   1.755  12.163   7.732
 8208SOL    HW226632   1.809   1.264   7.742
 8209SOL     OW26633   2.257   2.575   9.362
 8209SOL    HW126634   2.162   2.585   9.369
 8209SOL    HW226635   2.270 -19.597   9.344
 8210SOL     OW26636   8.196  10.558   1.895
 8210SOL    HW126637   8.213  10.501   1.819
 8210SOL    HW226638   8.274  10.613   1.901
 8211SOL     OW26639  -1.720   3.828   1.024
 8211SOL    HW126640  42.505   3.796 -10.076
 8211SOL    HW226641  -1.672   3.883   1.086
 8212SOL     OW26642   2.694   3.445   9.384
 8212SOL    HW126643   2.788  36.548   9.378
 8212SOL    HW226644   2.686   3.526   9.434
 8213SOL     OW26645   9.664   4.253   2.332
 8213SOL    HW126646  20.733   4.274  -8.797
 8213SOL    HW226647   9.647   4.339 -19.708
 8214SOL     OW26648   0.961   3.087   6.425
 8214SOL    HW126649   0.933   3.037   6.348
 8214SOL    HW226650   1.056   3.086   6.420
 8215SOL     OW26651   1.672   1.949   1.180
 8215SOL    HW126652   1.755   1.975  -9.820
 8215SOL    HW226653   1.607   2.006   1.222
 8216SOL     OW26654   4.479   7.929   1.914
 8216SOL    HW126655  -6.581   8.014   1.876
 8216SOL    HW226656   4.395   7.893   1.940
 8217SOL     OW26657   3.963   2.706   9.339
 8217SOL    HW126658   3.888  13.698   9.373
 8217SOL    HW226659  -7.036   2.745   9.416
 8218SOL     OW26660   1.814  10.990   8.146
 8218SOL    HW126661  -9.202  11.078   8.175
 8218SOL    HW226662   1.896  10.952   8.115
 8219SOL     OW26663   5.514   0.593  -0.327
 8219SOL    HW126664   5.519  11.540  -0.352
 8219SOL    HW226665   5.446 -10.443  32.858
 8220SOL     OW26666   3.758  10.311   7.939
 8220SOL    HW126667   3.809  10.279   7.864
 8220SOL    HW226668  14.723  10.355  18.939
 8221SOL     OW26669  10.382   9.384   6.311
 8221SOL    HW126670  10.296   9.352  17.377
 8221SOL    HW226671  10.401   9.339   6.229
 8222SOL     OW26672   0.812   7.679   5.931
 8222SOL    HW126673   0.906   7.683   5.910
 8222SOL    HW226674   0.809   7.643   6.019
 8223SOL     OW26675   5.033   9.882   9.544
 8223SOL    HW126676   5.003   9.791   9.545
 8223SOL    HW226677  16.045   9.916   9.459
 8224SOL     OW26678   2.365   3.923   7.632
 8224SOL    HW126679  13.382   3.997 -47.509
 8224SOL    HW226680   2.387   3.963 -14.531
 8225SOL     OW26681   2.057   0.712   1.826
 8225SOL    HW126682   2.016  11.793 -20.177
 8225SOL    HW226683   2.086   0.627   1.857
 8226SOL     OW26684   3.674   6.270   5.068
 8226SOL    HW126685  -7.444   6.232  16.069
 8226SOL    HW226686   3.740   6.200  -5.978
 8227SOL     OW26687   6.469  10.607   2.250
 8227SOL    HW126688   6.436  -0.522   2.249
 8227SOL    HW226689   6.444  10.641   2.337
 8228SOL     OW26690   3.112   7.688   8.411
 8228SOL    HW126691 -30.066   7.764   8.409
 8228SOL    HW226692  -7.931  -3.387   8.322
 8229SOL     OW26693  11.319   2.282  10.315
 8229SOL    HW126694   0.270   2.376  10.301
 8229SOL    HW226695  11.279   2.242  21.277
 8230SOL     OW26696  10.338   2.739   8.291
 8230SOL    HW126697  21.419   2.720  -2.833
 8230SOL    HW226698  10.409   2.727   8.355
 8231SOL     OW26699   8.338   4.738   1.516
 8231SOL    HW126700  -2.715  -6.386  -9.567
 8231SOL    HW226701  -2.746 -17.350   1.600
 8232SOL     OW26702   6.474   3.083  10.638
 8232SOL    HW126703  -4.600   2.996  10.660
 8232SOL    HW226704  17.482   3.140  -0.331
 8233SOL     OW26705   1.151   2.688   2.020
 8233SOL    HW126706   1.171  13.722  -8.927
 8233SOL    HW226707  -9.848   2.769   1.991
 8234SOL     OW26708   3.681   4.625   8.907
 8234SOL    HW126709  25.709  -6.495   8.911
 8234SOL    HW226710   3.650   4.669  -2.212
 8235SOL     OW26711   5.784   2.501   7.486
 8235SOL    HW126712   5.705   2.500   7.432
 8235SOL    HW226713   5.793   2.411  18.558
 8236SOL     OW26714   7.690  10.614   6.696
 8236SOL    HW126715   7.599  10.610   6.727
 8236SOL    HW226716   7.743  -0.432   6.775
 8237SOL     OW26717  10.920   7.259   3.246
 8237SOL    HW126718 -11.136   7.345 -18.800
 8237SOL    HW226719  10.825   7.253   3.260
 8238SOL     OW26720   9.909   5.939   9.729
 8238SOL    HW126721   9.911   5.915 -12.258
 8238SOL    HW226722   9.834  -5.042  -1.319
 8239SOL     OW26723   0.384   7.337   9.000
 8239SOL    HW126724   0.429   7.402  31.132
 8239SOL    HW226725   0.315   7.386  19.995
 8240SOL     OW26726   9.226   0.273   2.244
 8240SOL    HW126727   9.314   0.308  -8.786
 8240SOL    HW226728   9.238   0.179   2.239
 8241SOL     OW26729   9.714   0.429   8.397
 8241SOL    HW126730  -1.325   0.377  -2.562
 8241SOL    HW226731  -1.331  11.405   8.326
 8242SOL     OW26732   8.309   3.102   6.190
 8242SOL    HW126733  -2.786   3.092   6.267
 8242SOL    HW226734   8.363  -7.861  -4.830
 8243SOL     OW26735   4.510   4.739   9.430
 8243SOL    HW126736  15.557   4.769   9.521
 8243SOL    HW226737  15.619   4.785  -1.656
 8244SOL     OW26738   7.219   1.834  11.386
 8244SOL    HW126739   7.298   1.797 -10.733
 8244SOL    HW226740   7.203   1.916   0.299
 8245SOL     OW26741   4.324   5.976   4.015
 8245SOL    HW126742   4.355   5.965 -40.053
 8245SOL    HW226743   4.351 -16.015   3.991
 8246SOL     OW26744   6.174  12.237   8.534
 8246SOL    HW126745   6.090   1.204  -2.459
 8246SOL    HW226746  17.225  -9.757 -13.586
 8247SOL     OW26747   4.790   6.759   6.443
 8247SOL    HW126748   4.749   6.797 -15.713
 8247SOL    HW226749  -6.293   6.674   6.454
 8248SOL     OW26750   4.685   3.912   3.711
 8248SOL    HW126751   4.704   3.859   3.634
 8248SOL    HW226752  15.743 -18.225   3.785
 8249SOL     OW26753   3.090   3.742   7.927
 8249SOL    HW126754  25.246   3.705   7.883
 8249SOL    HW226755   3.060   3.673   7.985
 8250SOL     OW26756  11.084   2.181   3.758
 8250SOL    HW126757   0.078   2.098   3.792
 8250SOL    HW226758  10.989   2.171   3.760
 8251SOL     OW26759  11.706   6.852   9.745
 8251SOL    HW126760 -21.382   6.925   9.690
 8251SOL    HW226761 -10.467  17.908   9.756
 8252SOL     OW26762   9.188  12.195   6.772
 8252SOL    HW126763   9.190  -9.809  17.871
 8252SOL    HW226764  -1.943  12.168   6.769
 8253SOL     OW26765   8.597   8.554   7.430
 8253SOL    HW126766  19.636   8.459  -3.622
 8253SOL    HW226767   8.686   8.574   7.459
 8254SOL     OW26768   3.251   8.586   8.721
 8254SOL    HW126769  -7.710  -2.486  -2.273
 8254SOL    HW226770 -18.794   8.629   8.643
 8255SOL     OW26771   1.875   8.695   4.669
 8255SOL    HW126772   1.810   8.637   4.708
 8255SOL    HW226773   1.929   8.638   4.614
 8256SOL     OW26774   4.529   8.751   9.881
 8256SOL    HW126775   4.461  -2.223   9.894
 8256SOL    HW226776   4.611   8.800   9.882
 8257SOL     OW26777   9.547   7.408   8.511
 8257SOL    HW126778   9.453   7.413  19.571
 8257SOL    HW226779  20.590   7.410  19.455
 8258SOL     OW26780   2.615   9.265   3.616
 8258SOL    HW126781  13.565   9.246   3.589
 8258SOL    HW226782   2.663  20.315   3.533
 8259SOL     OW26783   6.400   5.704   2.518
 8259SOL    HW126784  17.462   5.789   2.556
 8259SOL    HW226785  39.503   5.648   2.594
 8260SOL     OW26786   3.108   7.036   1.459
 8260SOL    HW126787  -7.869   6.977   1.501
 8260SOL    HW226788   3.084   7.098   1.528
 8261SOL     OW26789   5.177  10.127   6.560
 8261SOL    HW126790 -16.808  -0.897   6.564
 8261SOL    HW226791   5.163  10.048   6.612
 8262SOL     OW26792   8.557   4.483  10.756
 8262SOL    HW126793  -2.545   4.451  -0.219
 8262SOL    HW226794   8.580  15.446  10.704
 8263SOL     OW26795  12.739   3.277   8.080
 8263SOL    HW126796  -9.391   3.213   8.129
 8263SOL    HW226797   1.647   3.357  -2.957
 8264SOL     OW26798   9.203   4.754   5.867
 8264SOL    HW126799   9.162   4.704   5.938
 8264SOL    HW226800   9.282   4.703   5.845
 8265SOL     OW26801   1.922  11.940   7.907
 8265SOL    HW126802   1.845  11.894  -3.099
 8265SOL    HW226803 -20.087 -10.163   7.968
 8266SOL     OW26804   3.972   4.732   0.489
 8266SOL    HW126805   3.982   4.748   0.583
 8266SOL    HW226806   3.887  15.808   0.467
 8267SOL     OW26807   4.637   4.933   1.086
 8267SOL    HW126808   4.578  16.007   1.020
 8267SOL    HW226809   4.652  27.085   1.146
 8268SOL     OW26810   2.070   2.885   5.740
 8268SOL    HW126811  -9.064 -19.202   5.753
 8268SOL    HW226812   2.084   2.858   5.650
 8269SOL     OW26813   8.684   6.685   4.495
 8269SOL    HW126814   8.653 -15.441  -6.468
 8269SOL    HW226815  -2.399   6.641  -6.619
 8270SOL     OW26816   4.644   8.081   3.869
 8270SOL    HW126817   4.576   8.065  25.883
 8270SOL    HW226818   4.596   8.113  37.065
 8271SOL     OW26819   2.077   8.728   8.729
 8271SOL    HW126820   2.077   8.742   8.824
 8271SOL    HW226821   1.985   8.716  41.825
 8272SOL     OW26822   1.280  10.526   1.286
 8272SOL    HW126823   1.263 -22.615   1.195
 8272SOL    HW226824   1.269  10.445   1.335
 8273SOL     OW26825   0.490   1.699   1.680
 8273SOL    HW126826  11.485   1.784  12.721
 8273SOL    HW226827  11.604  23.791   1.622
 8274SOL     OW26828   3.594   8.153   0.202
 8274SOL    HW126829   3.518   8.168   0.258
 8274SOL    HW226830   3.587   8.061   0.176
 8275SOL     OW26831   1.461   3.014   7.884
 8275SOL    HW126832   1.551   2.987   7.864
 8275SOL    HW226833   1.424  14.076   7.799
 8276SOL     OW26834   7.415  10.155   7.107
 8276SOL    HW126835   7.398  -0.858  -4.023
 8276SOL    HW226836   7.509  -0.867   7.120
 8277SOL     OW26837   2.983   0.938  11.245
 8277SOL    HW126838   2.946   1.000  11.308
 8277SOL    HW226839   3.016 -10.173 -10.780
 8278SOL     OW26840   3.553   3.665   3.163
 8278SOL    HW126841 -18.453   3.659  -7.814
 8278SOL    HW226842   3.480   3.621   3.208
 8279SOL     OW26843   2.798   7.784   8.306
 8279SOL    HW126844   2.735   7.807   8.374
 8279SOL    HW226845  13.808   7.699  19.313
 8280SOL     OW26846   3.539   3.023   7.845
 8280SOL    HW126847   3.618   2.978   7.817
 8280SOL    HW226848  14.524   3.026   7.766
 8281SOL     OW26849  10.466   7.852   7.313
 8281SOL    HW126850  10.381   7.894   7.321
 8281SOL    HW226851  10.446   7.758   7.309
 8282SOL     OW26852   9.388   6.347   5.685
 8282SOL    HW126853 -12.753  50.572   5.657
 8282SOL    HW226854 -23.671   6.393   5.744
 8283SOL     OW26855  10.882   0.724   4.594
 8283SOL    HW126856  10.906   0.670  -6.521
 8283SOL    HW226857  -0.146  11.854 -17.516
 8284SOL     OW26858   6.413   1.045   8.444
 8284SOL    HW126859   6.480  23.103   8.508
 8284SOL    HW226860  -4.682   1.111   8.488
 8285SOL     OW26861   8.397   4.220   5.407
 8285SOL    HW126862   8.321  15.312   5.430
 8285SOL    HW226863   8.361   4.147  -5.684
 8286SOL     OW26864   8.888   0.631   1.637
 8286SOL    HW126865   8.873   0.688   1.713
 8286SOL    HW226866  31.027   0.564  34.788
 8287SOL     OW26867   7.367   7.833   9.341
 8287SOL    HW126868  -3.699   7.880   9.262
 8287SOL    HW226869   7.298 -14.310 -23.763
 8288SOL     OW26870   8.862   9.473   6.474
 8288SOL    HW126871 -24.202   9.398 -26.620
 8288SOL    HW226872   8.901   9.547  -4.519
 8289SOL     OW26873   0.640  -1.678   8.761
 8289SOL    HW126874   0.546  20.389   8.775
 8289SOL    HW226875   0.650   9.364  19.706
 8290SOL     OW26876   4.252  10.911   5.287
 8290SOL    HW126877   4.255  10.876   5.376
 8290SOL    HW226878  -6.861  -0.175   5.245
 8291SOL     OW26879   7.606   8.535   3.887
 8291SOL    HW126880   7.566   8.530   3.974
 8291SOL    HW226881  18.732   8.494   3.897
 8292SOL     OW26882  11.370  10.749   5.279
 8292SOL    HW126883 -32.758  10.770   5.190
 8292SOL    HW226884  11.419  10.670  -5.737
 8293SOL     OW26885   2.298   5.370   0.954
 8293SOL    HW126886  13.263   5.412   0.911
 8293SOL    HW226887   2.280  -5.660  -9.992
 8294SOL     OW26888   8.994   5.604   8.381
 8294SOL    HW126889   8.937   5.547   8.433
 8294SOL    HW226890   9.064   5.629  19.480
 8295SOL     OW26891   5.277   6.295   8.069
 8295SOL    HW126892  16.352  -4.832   8.087
 8295SOL    HW226893   5.182 -15.797   8.069
 8296SOL     OW26894   5.189  12.341   5.298
 8296SOL    HW126895   5.221  12.288   5.225
 8296SOL    HW226896  16.212 -20.692   5.260
 8297SOL     OW26897   3.200   0.801   3.171
 8297SOL    HW126898   3.113  11.880   3.179
 8297SOL    HW226899  14.234   0.720  14.263
 8298SOL     OW26900   8.496   7.889  10.347
 8298SOL    HW126901   8.442   7.813  21.363
 8298SOL    HW226902   8.584   7.854  10.357
 8299SOL     OW26903   0.766   1.558   3.964
 8299SOL    HW126904   0.791   1.469  15.028
 8299SOL    HW226905   0.842 -20.489   3.914
 8300SOL     OW26906   1.015   8.144   9.556
 8300SOL    HW126907   0.943  19.134   9.594
 8300SOL    HW226908  12.104   8.080   9.505
 8301SOL     OW26909   6.924   1.250   4.830
 8301SOL    HW126910   6.890  45.378   4.914
 8301SOL    HW226911   6.874   1.202  15.804
 8302SOL     OW26912   6.531   6.631   7.414
 8302SOL    HW126913   6.576   6.654   7.496
 8302SOL    HW226914  -4.456   6.560  -3.662
 8303SOL     OW26915   3.957   0.674  -2.032
 8303SOL    HW126916   3.945  22.672  42.176
 8303SOL    HW226917   3.871 -32.427  42.087
 8304SOL     OW26918  11.557   9.181   0.410
 8304SOL    HW126919  11.636   9.195   0.358
 8304SOL    HW226920   0.547  -1.912   0.484
 8305SOL     OW26921   6.878   4.486   4.619
 8305SOL    HW126922   6.883   4.482  15.563
 8305SOL    HW226923   6.787   4.506  26.717
 8306SOL     OW26924   1.756   6.033   1.645
 8306SOL    HW126925  34.875   6.105   1.708
 8306SOL    HW226926  56.879   5.979   1.671
 8307SOL     OW26927   2.396  10.556   9.462
 8307SOL    HW126928   2.474  10.612 -23.650
 8307SOL    HW226929   2.399  10.521  -1.666
 8308SOL     OW26930   3.502   8.491   7.036
 8308SOL    HW126931  -7.613   8.435  29.096
 8308SOL    HW226932 -18.609   8.580  18.066
 8309SOL     OW26933   1.662   2.066   5.362
 8309SOL    HW126934   1.660   2.083  -5.583
 8309SOL    HW226935   1.702  13.183  -5.716
 8310SOL     OW26936   3.218   0.764   5.364
 8310SOL    HW126937   3.214   0.668   5.374
 8310SOL    HW226938   3.268   0.777   5.284
 8311SOL     OW26939   1.636   7.233   1.225
 8311SOL    HW126940  12.619   7.195  12.332
 8311SOL    HW226941   1.680  18.197   1.185
 8312SOL     OW26942   4.165   7.551   9.527
 8312SOL    HW126943   4.210   7.613   9.584
 8312SOL    HW226944   4.120   7.491   9.587
 8313SOL     OW26945   7.978   0.069   9.972
 8313SOL    HW126946  19.043   0.129   9.902
 8313SOL    HW226947   7.883   0.079   9.979
 8314SOL     OW26948   3.310   7.496   6.868
 8314SOL    HW126949   3.397   7.460  -4.188
 8314SOL    HW226950   3.314   7.585   6.831
 8315SOL     OW26951   2.180   0.876   4.253
 8315SOL    HW126952   2.268  33.965  15.317
 8315SOL    HW226953   2.145   0.916   4.332
 8316SOL     OW26954   9.256   7.313   5.218
 8316SOL    HW126955  -1.769 -14.734  38.247
 8316SOL    HW226956 -12.911   7.275 -16.863
 8317SOL     OW26957   3.023   4.320   1.400
 8317SOL    HW126958  -7.933   4.329   1.354
 8317SOL    HW226959   2.960   4.363  12.381
 8318SOL     OW26960   1.503   5.927   9.046
 8318SOL    HW126961   1.510   5.977   9.127
 8318SOL    HW226962   1.478   5.839   9.074
 8319SOL     OW26963   8.957   8.462  10.125
 8319SOL    HW126964  -2.086   8.466  21.069
 8319SOL    HW226965   8.969   8.369  10.144
 8320SOL     OW26966   2.132   1.601   9.212
 8320SOL    HW126967   2.220   1.635   9.193
 8320SOL    HW226968  13.129   1.672   9.260
 8321SOL     OW26969   0.979   3.016   3.538
 8321SOL    HW126970 -10.083   2.996  -7.410
 8321SOL    HW226971   1.069  25.127   3.542
 8322SOL     OW26972   5.968   9.766   4.016
 8322SOL    HW126973   5.978 -12.409  26.092
 8322SOL    HW226974   6.000   9.795   3.931
 8323SOL     OW26975  -0.371   2.745   5.889
 8323SOL    HW126976  -0.432   2.815   5.911
 8323SOL    HW226977  10.640   2.714  -5.236
 8324SOL     OW26978   1.714   8.170   9.987
 8324SOL    HW126979  -9.377   8.091   9.975
 8324SOL    HW226980  -9.330  -2.824   9.903
 8325SOL     OW26981   2.699   4.596   1.492
 8325SOL    HW126982   2.735   4.549  -9.623
 8325SOL    HW226983 -19.306   4.646  23.605
 8326SOL     OW26984   4.776   1.966   9.244
 8326SOL    HW126985   4.715   1.941 -23.806
 8326SOL    HW226986   4.862   1.940   9.277
 8327SOL     OW26987   6.801   6.414  -0.395
 8327SOL    HW126988   6.842   6.480  10.700
 8327SOL    HW226989   6.837   6.331  -0.363
 8328SOL     OW26990   4.843   1.564   2.559
 8328SOL    HW126991  15.913  12.513  24.632
 8328SOL    HW226992   4.821   1.587  13.508
 8329SOL     OW26993   0.961   1.084   3.067
 8329SOL    HW126994  34.053   1.000  -8.009
 8329SOL    HW226995 -10.160  -9.914  -7.944
 8330SOL     OW26996   6.436   8.082   5.716
 8330SOL    HW126997   6.474   8.108   5.800
 8330SOL    HW226998   6.414   7.990   5.727
 8331SOL     OW26999  10.242   3.986   6.346
 8331SOL    HW127000  10.303   4.023   6.282
 8331SOL    HW227001  21.196  -7.048   6.303
 8332SOL     OW27002   7.050   3.650   8.752
 8332SOL    HW127003   7.002   3.731  -2.304
 8332SOL    HW227004   7.072   3.616   8.664
 8333SOL     OW27005   4.211   4.735  -1.370
 8333SOL    HW127006   4.185  15.683  20.717
 8333SOL    HW227007   4.230  37.865   9.577
 8334SOL     OW27008   8.670   9.529   4.942
 8334SOL    HW127009   8.601   9.586   4.978
 8334SOL    HW227010  -2.385  20.484  16.022
 8335SOL     OW27011   8.835   9.788  11.721
 8335SOL    HW127012  -2.123   9.757 -32.478
 8335SOL    HW227013   8.823   9.731  11.796
 8336SOL     OW27014  10.560  11.038  10.071
 8336SOL    HW127015  10.616  11.012   9.998
 8336SOL    HW227016  -0.419 -11.004  10.136
 8337SOL     OW27017   3.375   5.285   6.908
 8337SOL    HW127018   3.306   5.237   6.955
 8337SOL    HW227019   3.433   5.317  -4.063
 8338SOL     OW27020   5.419   9.574   7.363
 8338SOL    HW127021  16.379  -1.413  18.405
 8338SOL    HW227022   5.490  20.677   7.377
 8339SOL     OW27023   6.972   3.038   1.795
 8339SOL    HW127024   6.997   3.125  12.804
 8339SOL    HW227025   6.957  -8.051   1.714
 8340SOL     OW27026  12.061   2.832   4.517
 8340SOL    HW127027  12.039   2.817   4.425
 8340SOL    HW227028 -32.050   2.752   4.544
 8341SOL     OW27029   7.202   5.869   9.368
 8341SOL    HW127030  18.154   5.902   9.386
 8341SOL    HW227031   7.206   5.785   9.413
 8342SOL     OW27032  10.094   2.210   2.007
 8342SOL    HW127033  10.106   2.244   1.919
 8342SOL    HW227034  10.127  13.160   2.004
 8343SOL     OW27035   8.370   4.667   4.765
 8343SOL    HW127036  19.319  15.696  26.872
 8343SOL    HW227037   8.365   4.718   4.684
 8344SOL     OW27038   1.382   4.863   0.183
 8344SOL    HW127039   1.312   4.835   0.123
 8344SOL    HW227040   1.457   4.878   0.126
 8345SOL     OW27041   0.490   6.559   5.632
 8345SOL    HW127042  11.560  -4.445   5.549
 8345SOL    HW227043   0.395   6.565  -5.411
 8346SOL     OW27044  10.755   6.012  -0.516
 8346SOL    HW127045  10.811   6.064 -11.498
 8346SOL    HW227046  10.761   6.056  32.518
 8347SOL     OW27047   5.790   2.600   1.585
 8347SOL    HW127048   5.859   2.617  12.688
 8347SOL    HW227049  27.842   2.509  12.642
 8348SOL     OW27050   9.226   7.590   2.992
 8348SOL    HW127051   9.268  -3.496   3.064
 8348SOL    HW227052 -23.940   7.522   2.944
 8349SOL     OW27053   9.375   9.068   7.166
 8349SOL    HW127054   9.374 -13.053   7.252
 8349SOL    HW227055   9.288  31.185   7.156
 8350SOL     OW27056   4.434  10.053   1.449
 8350SOL    HW127057  37.556  10.072   1.355
 8350SOL    HW227058  15.421  10.124   1.486
 8351SOL     OW27059   7.501   9.556   1.409
 8351SOL    HW127060   7.528  -1.518   1.494
 8351SOL    HW227061  18.523   9.649   1.424
 8352SOL     OW27062   2.752  10.362   6.282
 8352SOL    HW127063   2.753  10.267  28.351
 8352SOL    HW227064   2.727  10.377  -4.667
 8353SOL     OW27065   9.724   6.398   0.376
 8353SOL    HW127066   9.635   6.365  22.442
 8353SOL    HW227067   9.765 -15.744  11.475
 8354SOL     OW27068   5.925   8.806  10.832
 8354SOL    HW127069 -16.079   8.746  -0.210
 8354SOL    HW227070   5.944   8.866  10.905
 8355SOL     OW27071   3.371   1.195   3.100
 8355SOL    HW127072  14.416  -9.929   3.055
 8355SOL    HW227073   3.297   1.184   3.161
 8356SOL     OW27074   7.888   2.233   7.080
 8356SOL    HW127075  18.864  -8.830   7.012
 8356SOL    HW227076 -25.275   2.211   7.162
 8357SOL     OW27077   6.956   0.999   9.407
 8357SOL    HW127078  -4.088   1.009   9.312
 8357SOL    HW227079   7.049 -10.046  20.466
 8358SOL     OW27080   2.339   8.222   3.517
 8358SOL    HW127081   2.404  -2.854  25.655
 8358SOL    HW227082  24.449   8.311   3.498
 8359SOL     OW27083   5.800   6.978   4.379
 8359SOL    HW127084   5.721  -4.025   4.419
 8359SOL    HW227085  -5.256  -4.156  15.417
 8360SOL     OW27086   9.877   1.276   4.004
 8360SOL    HW127087   9.935   1.207   4.036
 8360SOL    HW227088 -12.277  -9.764   4.064
 8361SOL     OW27089   3.535  10.137   1.354
 8361SOL    HW127090  -7.456  10.084   1.417
 8361SOL    HW227091   3.471  -0.962  -9.723
 8362SOL     OW27092   8.894   8.357   6.848
 8362SOL    HW127093   8.858  19.473   6.803
 8362SOL    HW227094   8.976  30.418   6.802
 8363SOL     OW27095   7.677  10.239   3.549
 8363SOL    HW127096 -36.480  10.329   3.582
 8363SOL    HW227097  -3.339  10.248   3.457
 8364SOL     OW27098   2.202   6.437   4.440
 8364SOL    HW127099   2.196   6.465 -28.770
 8364SOL    HW227100  13.334   6.416   4.453
 8365SOL     OW27101   5.063   7.653   7.692
 8365SOL    HW127102   5.055  18.600  -3.326
 8365SOL    HW227103   4.995   7.696   7.744
 8366SOL     OW27104   1.531   3.098   5.652
 8366SOL    HW127105   1.524  -7.921   5.558
 8366SOL    HW227106   1.440 -18.984   5.682
 8367SOL     OW27107   5.370   8.437   5.790
 8367SOL    HW127108  16.424   8.522   5.831
 8367SOL    HW227109   5.439   8.381   5.826
 8368SOL     OW27110   6.433   5.539   9.413
 8368SOL    HW127111  17.441   5.471 -23.645
 8368SOL    HW227112   6.491   5.493   9.353
 8369SOL     OW27113  -0.602   9.043   3.005
 8369SOL    HW127114  -0.598   9.115  13.983
 8369SOL    HW227115  10.393   9.079   3.082
 8370SOL     OW27116   5.887  10.636   2.566
 8370SOL    HW127117   5.843  10.675   2.490
 8370SOL    HW227118   5.842  10.552  -8.462
 8371SOL     OW27119   1.833   7.090   7.022
 8371SOL    HW127120   1.808  29.083  -3.985
 8371SOL    HW227121   1.918  29.155   6.979
 8372SOL     OW27122   6.426   2.004   3.642
 8372SOL    HW127123  -4.571   1.991  36.676
 8372SOL    HW227124   6.460   2.088  14.713
 8373SOL     OW27125  10.487  10.329   0.652
 8373SOL    HW127126  21.435  -0.690   0.670
 8373SOL    HW227127  -0.511  10.329   0.739
 8374SOL     OW27128   5.249  10.711   2.394
 8374SOL    HW127129   5.156  10.687   2.401
 8374SOL    HW227130   5.255  10.757   2.311
 8375SOL     OW27131   4.246   9.814  10.747
 8375SOL    HW127132   4.275   9.866  -0.218
 8375SOL    HW227133  -6.871   9.860  21.753
 8376SOL     OW27134   0.287   6.522  10.639
 8376SOL    HW127135   0.312   6.502  10.548
 8376SOL    HW227136  11.406  -4.536  10.690
 8377SOL     OW27137   5.993  -0.611   3.097
 8377SOL    HW127138  -5.027  -0.649 -29.936
 8377SOL    HW227139   6.051  21.424   3.036
 8378SOL     OW27140   0.964   1.898   4.440
 8378SOL    HW127141  34.159   1.952   4.418
 8378SOL    HW227142   0.891   1.960   4.443
 8379SOL     OW27143   9.783   8.061   0.740
 8379SOL    HW127144   9.718   7.995 -10.322
 8379SOL    HW227145   9.845  -3.023   0.798
 8380SOL     OW27146   0.776   5.320  10.950
 8380SOL    HW127147  33.867 -16.712  11.028
 8380SOL    HW227148   0.757   5.380  10.878
 8381SOL     OW27149   0.253   4.699   6.213
 8381SOL    HW127150   0.223  15.666 -26.961
 8381SOL    HW227151   0.199   4.694 -15.788
 8382SOL     OW27152   8.622   4.601   6.186
 8382SOL    HW127153   8.671   4.538 -15.946
 8382SOL    HW227154   8.544   4.620  -4.905
 8383SOL     OW27155   6.847   9.925   9.743
 8383SOL    HW127156   6.794   9.861 -23.327
 8383SOL    HW227157  28.967   9.874   9.674
 8384SOL     OW27158   0.566   8.328   4.307
 8384SOL    HW127159  11.541   8.391   4.339
 8384SOL    HW227160   0.650   8.364   4.335
 8385SOL     OW27161   8.488  -0.692   8.335
 8385SOL    HW127162   8.443  -0.710   8.418
 8385SOL    HW227163   8.424  21.435   8.283
 8386SOL     OW27164   6.753   2.210   4.724
 8386SOL    HW127165 -15.306  13.340   4.703
 8386SOL    HW227166   6.681  -8.853   4.665
 8387SOL     OW27167   6.243   2.224   3.279
 8387SOL    HW127168  17.195   2.212  14.283
 8387SOL    HW227169   6.298   2.166   3.227
 8388SOL     OW27170   6.337   5.552   1.297
 8388SOL    HW127171   6.271  -5.468   1.363
 8388SOL    HW227172   6.323   5.617   1.229
 8389SOL     OW27173   3.693   1.800   1.307
 8389SOL    HW127174   3.731   1.731   1.253
 8389SOL    HW227175  25.802  -9.259   1.395
 8390SOL     OW27176   8.529   8.417   3.516
 8390SOL    HW127177   8.595   8.373  -7.576
 8390SOL    HW227178   8.568   8.501   3.540
 8391SOL     OW27179   2.888   0.401   4.566
 8391SOL    HW127180  -8.227  22.449   4.615
 8391SOL    HW227181   2.964   0.363  15.650
 8392SOL     OW27182   5.831   6.404  10.158
 8392SOL    HW127183   5.861  28.455  10.071
 8392SOL    HW227184   5.911   6.429  10.204
 8393SOL     OW27185   9.931   3.715   9.476
 8393SOL    HW127186   9.948  -7.407   9.521
 8393SOL    HW227187   9.920  -7.348   9.384
 8394SOL     OW27188   8.621   9.015  11.158
 8394SOL    HW127189  -2.361   8.961 -10.867
 8394SOL    HW227190   8.655   9.006  11.069
 8395SOL     OW27191   9.775   1.929   7.819
 8395SOL    HW127192   9.681   1.914   7.820
 8395SOL    HW227193  20.853   1.847   7.848
 8396SOL     OW27194   9.561   7.305   3.026
 8396SOL    HW127195   9.496   7.269   2.966
 8396SOL    HW227196   9.596   7.381   2.980
 8397SOL     OW27197   2.242   4.276   6.697
 8397SOL    HW127198  35.402  15.399   6.723
 8397SOL    HW227199   2.148   4.294 -15.379
 8398SOL     OW27200  11.174   0.828   4.885
 8398SOL    HW127201   0.202   0.807   4.950
 8398SOL    HW227202  11.109   0.760   4.895
 8399SOL     OW27203  -2.157   5.894  -0.114
 8399SOL    HW127204  19.913   5.825  10.859
 8399SOL    HW227205  19.982   5.857  -0.050
 8400SOL     OW27206  -1.903   7.684   6.305
 8400SOL    HW127207   9.228   7.682  -4.765
 8400SOL    HW227208  31.196  -3.448   6.322
 8401SOL     OW27209   2.118  10.386  10.348
 8401SOL    HW127210   2.154  10.456  10.293
 8401SOL    HW227211  13.162  10.420  10.437
 8402SOL     OW27212   3.903   0.501   7.146
 8402SOL    HW127213   3.943   0.415   7.132
 8402SOL    HW227214   3.810   0.483   7.158
 8403SOL     OW27215   7.846   0.910   7.869
 8403SOL    HW127216  -3.201   0.822   7.908
 8403SOL    HW227217   7.801   0.967   7.931
 8404SOL     OW27218   0.385  -1.801   2.515
 8404SOL    HW127219   0.389  31.230   2.554
 8404SOL    HW227220   0.306   9.277   2.551
 8405SOL     OW27221   3.200   5.652   8.004
 8405SOL    HW127222  -7.931   5.676   8.017
 8405SOL    HW227223   3.198   5.582   7.939
 8406SOL     OW27224   9.760   4.694   8.667
 8406SOL    HW127225  20.872   4.745   8.703
 8406SOL    HW227226   9.790   4.603   8.672
 8407SOL     OW27227   3.424   8.956   1.141
 8407SOL    HW127228   3.436  20.084   1.175
 8407SOL    HW227229   3.344  31.040  12.128
 8408SOL     OW27230   6.374   2.974   1.218
 8408SOL    HW127231   6.291   3.010   1.185
 8408SOL    HW227232   6.406   2.918   1.148
 8409SOL     OW27233   4.571   3.044   4.900
 8409SOL    HW127234  15.561   3.114   4.857
 8409SOL    HW227235  37.677  14.100   4.994
 8410SOL     OW27236   5.334   0.312   8.147
 8410SOL    HW127237  16.346  11.313 -14.015
 8410SOL    HW227238   5.258   0.301 -13.875
 8411SOL     OW27239   3.578   0.942  13.182
 8411SOL    HW127240   3.629  12.001 -19.858
 8411SOL    HW227241  25.668   0.847   2.130
 8412SOL     OW27242   7.397   8.142  -1.110
 8412SOL    HW127243   7.342   8.108   9.858
 8412SOL    HW227244 -14.692  19.276   9.925
 8413SOL     OW27245   6.385   4.505   4.204
 8413SOL    HW127246   6.458   4.564   4.222
 8413SOL    HW227247   6.422 -28.682  -6.892
 8414SOL     OW27248  11.629   0.999   1.624
 8414SOL    HW127249   0.560   0.968   1.709
 8414SOL    HW227250  11.557   1.054  12.631
 8415SOL     OW27251   0.465  10.394  -0.327
 8415SOL    HW127252   0.542  10.444  10.688
 8415SOL    HW227253   0.478  10.373  -0.234
 8416SOL     OW27254  10.050  10.314   8.624
 8416SOL    HW127255  10.072 -22.895   8.601
 8416SOL    HW227256   9.989  10.343  19.595
 8417SOL     OW27257   5.548  10.938  10.236
 8417SOL    HW127258   5.636  10.972  10.251
 8417SOL    HW227259  27.624  10.857 -22.832
 8418SOL     OW27260   3.681  11.073   7.121
 8418SOL    HW127261   3.626   0.074   7.189
 8418SOL    HW227262   3.763   0.012  -3.873
 8419SOL     OW27263  10.385   9.536   4.302
 8419SOL    HW127264  10.346   9.450 -17.763
 8419SOL    HW227265  10.401   9.540   4.208
 8420SOL     OW27266   8.751   7.735   4.935
 8420SOL    HW127267   8.755   7.751   4.840
 8420SOL    HW227268   8.842   7.742   4.964
 8421SOL     OW27269   7.171   4.891   6.479
 8421SOL    HW127270   7.213  15.894   6.401
 8421SOL    HW227271   7.172   4.821  -4.496
 8422SOL     OW27272   8.222   0.833  10.078
 8422SOL    HW127273  -2.867   0.774 -11.945
 8422SOL    HW227274   8.276  22.964  10.138
 8423SOL     OW27275   8.446   3.595   9.235
 8423SOL    HW127276  30.527   3.685   9.202
 8423SOL    HW227277  30.485  -7.495  -1.875
 8424SOL     OW27278   1.848   0.609  10.243
 8424SOL    HW127279  12.879   0.539  10.177
 8424SOL    HW227280   1.778  22.750 -11.859
 8425SOL     OW27281   8.080   5.214   1.134
 8425SOL    HW127282   8.071   5.121   1.113
 8425SOL    HW227283   8.173   5.225   1.152
 8426SOL     OW27284   6.184   8.410   8.149
 8426SOL    HW127285   6.213   8.375   8.065
 8426SOL    HW227286   6.126   8.482  -2.913
 8427SOL     OW27287   6.915   6.482   4.282
 8427SOL    HW127288  17.967   6.458   4.190
 8427SOL    HW227289   6.837   6.538   4.282
 8428SOL     OW27290   1.203   5.820   5.319
 8428SOL    HW127291   1.269  38.983 -16.813
 8428SOL    HW227292   1.241  38.936   5.407
 8429SOL     OW27293   5.961  -0.190   8.927
 8429SOL    HW127294   5.928  -0.127   8.863
 8429SOL    HW227295   6.054  32.949   8.935
 8430SOL     OW27296   0.637   6.272   3.078
 8430SOL    HW127297   0.659   6.360  14.146
 8430SOL    HW227298  22.691   6.226   3.159
 8431SOL     OW27299   5.036   4.449   5.933
 8431SOL    HW127300   5.081  37.642   5.973
 8431SOL    HW227301  -6.077  26.510   5.991
 8432SOL     OW27302   8.542  10.035  -0.418
 8432SOL    HW127303   8.628  10.016  -0.380
 8432SOL    HW227304  19.536  -1.088  10.623
 8433SOL     OW27305   6.202   2.495   3.230
 8433SOL    HW127306   6.114   2.528   3.245
 8433SOL    HW227307   6.201   2.406   3.265
 8434SOL     OW27308   7.857   9.780   5.505
 8434SOL    HW127309   7.807  42.855   5.436
 8434SOL    HW227310  18.969  -1.217  16.499
 8435SOL     OW27311   5.611   3.821   1.303
 8435SOL    HW127312   5.589   3.728   1.308
 8435SOL    HW227313   5.573 -18.220  45.540
 8436SOL     OW27314   3.903   9.298  10.238
 8436SOL    HW127315   3.810   9.289  10.220
 8436SOL    HW227316   3.913   9.270 -11.750
 8437SOL     OW27317   2.847   0.110   8.564
 8437SOL    HW127318   2.895  11.193   8.635
 8437SOL    HW227319   2.916  22.148  19.550
 8438SOL     OW27320   5.775   9.785   1.702
 8438SOL    HW127321   5.758  -1.202  23.703
 8438SOL    HW227322   5.688   9.758   1.732
 8439SOL     OW27323   8.384   1.728   4.051
 8439SOL    HW127324   8.411   1.739   4.142
 8439SOL    HW227325   8.309  23.747   4.056
 8440SOL     OW27326   9.903  11.915   3.315
 8440SOL    HW127327   9.913  12.000   3.272
 8440SOL    HW227328   9.981 -10.213   3.290
 8441SOL     OW27329  -1.051   4.601   8.175
 8441SOL    HW127330  10.046  15.713   8.151
 8441SOL    HW227331  10.004  -6.452   8.268
 8442SOL     OW27332   4.435   6.286   5.456
 8442SOL    HW127333   4.489 -15.719   5.485
 8442SOL    HW227334  -6.671   6.277   5.524
 8443SOL     OW27335   6.291   7.357   2.075
 8443SOL    HW127336  17.258  29.450 -20.066
 8443SOL    HW227337   6.312   7.264   2.067
 8444SOL     OW27338   2.985   7.037   5.939
 8444SOL    HW127339   2.972   7.120   5.986
 8444SOL    HW227340  -8.140   7.017 -16.178
 8445SOL     OW27341   7.347   6.599  12.283
 8445SOL    HW127342  18.424  17.671  12.365
 8445SOL    HW227343   7.296   6.672 -20.870
 8446SOL     OW27344   4.330   6.038  10.133
 8446SOL    HW127345   4.402 -27.027  10.166
 8446SOL    HW227346   4.352   5.949  10.161
 8447SOL     OW27347   2.329  -0.295   1.304
 8447SOL    HW127348  13.457  -0.289   1.269
 8447SOL    HW227349   2.340  10.741   1.399
 8448SOL     OW27350   2.118   9.569   4.970
 8448SOL    HW127351   2.030 -23.521   4.946
 8448SOL    HW227352  -8.918  20.617   5.065
 8449SOL     OW27353   2.502   5.555   0.881
 8449SOL    HW127354   2.455  16.513  11.937
 8449SOL    HW227355   2.434 -16.462   0.855
 8450SOL     OW27356   9.797   4.318   8.519
 8450SOL    HW127357  20.879  -6.786  30.541
 8450SOL    HW227358   9.727  -6.685   8.465
 8451SOL     OW27359   9.325   9.833   4.093
 8451SOL    HW127360   9.288  -1.287  15.096
 8451SOL    HW227361   9.263   9.858   4.162
 8452SOL     OW27362   0.089   7.730   4.948
 8452SOL    HW127363   0.170   7.779  15.996
 8452SOL    HW227364   0.023   7.796   4.925
 8453SOL     OW27365   4.787   8.347  -0.201
 8453SOL    HW127366   4.692  41.468  -0.214
 8453SOL    HW227367   4.798   8.323  10.931
 8454SOL     OW27368   7.593   2.076   8.634
 8454SOL    HW127369   7.505   2.085   8.598
 8454SOL    HW227370   7.628  35.115   8.594
 8455SOL     OW27371   8.927   3.093   4.638
 8455SOL    HW127372   8.856 -41.116 -17.480
 8455SOL    HW227373   8.974   3.030  -6.347
 8456SOL     OW27374   1.303   2.471   3.388
 8456SOL    HW127375   1.248   2.512  -7.719
 8456SOL    HW227376  -9.799  24.505   3.445
 8457SOL     OW27377   9.451   7.367   0.717
 8457SOL    HW127378   9.367   7.359 -10.368
 8457SOL    HW227379   9.516  -3.667   0.647
 8458SOL     OW27380  -0.346   5.349   9.702
 8458SOL    HW127381  -0.365  16.402   9.795
 8458SOL    HW227382  43.861   5.427   9.676
 8459SOL     OW27383  10.590   7.822   6.506
 8459SOL    HW127384  10.629   7.827  17.458
 8459SOL    HW227385  10.540   7.741   6.506
 8460SOL     OW27386   7.403  10.549   4.378
 8460SOL    HW127387   7.432  10.466   4.416
 8460SOL    HW227388  -3.556  10.597  15.399
 8461SOL     OW27389   8.005   5.669   4.288
 8461SOL    HW127390   7.968   5.638 -17.709
 8461SOL    HW227391 -14.018   5.743   4.313
 8462SOL     OW27392   8.137   4.384   3.894
 8462SOL    HW127393  19.247   4.419  25.918
 8462SOL    HW227394   8.061   4.438   3.871
 8463SOL     OW27395   3.905   1.194   5.938
 8463SOL    HW127396   3.970   1.138   5.981
 8463SOL    HW227397  -7.090   1.278  -5.112
 8464SOL     OW27398   0.622  10.041   6.825
 8464SOL    HW127399   0.672  10.070   6.748
 8464SOL    HW227400   0.602  10.122   6.872
 8465SOL     OW27401   0.266   5.912   5.734
 8465SOL    HW127402   0.330   5.861   5.683
 8465SOL    HW227403   0.185  39.022   5.685
 8466SOL     OW27404   0.353   4.762   4.628
 8466SOL    HW127405  22.498  -6.250  15.732
 8466SOL    HW227406   0.281  15.865   4.640
 8467SOL     OW27407   5.131   8.337   7.090
 8467SOL    HW127408   5.048   8.296   7.066
 8467SOL    HW227409   5.107   8.409  -3.892
 8468SOL     OW27410   8.388   7.147  -1.785
 8468SOL    HW127411   8.322  -3.828  31.309
 8468SOL    HW227412   8.407   7.167  20.386
 8469SOL     OW27413   3.104   4.728   8.801
 8469SOL    HW127414 -19.058   4.721   8.752
 8469SOL    HW227415   3.145   4.808  19.807
 8470SOL     OW27416   5.861   0.804   6.810
 8470SOL    HW127417  27.978  11.813 -15.187
 8470SOL    HW227418   5.767   0.793 -15.258
 8471SOL     OW27419   7.382   2.260   2.877
 8471SOL    HW127420   7.425   2.309   2.807
 8471SOL    HW227421   7.297   2.302   2.888
 8472SOL     OW27422   6.895  10.110   2.472
 8472SOL    HW127423   6.873  10.152  -8.485
 8472SOL    HW227424  18.009  10.053 -30.626
 8473SOL     OW27425   3.034   5.401   9.422
 8473SOL    HW127426   2.992   5.424  31.418
 8473SOL    HW227427  14.166   5.418   9.408
 8474SOL     OW27428   8.050   7.993   2.232
 8474SOL    HW127429   7.993  -3.120   2.255
 8474SOL    HW227430   8.131   7.951  24.282
 8475SOL     OW27431   5.555   5.519   0.097
 8475SOL    HW127432   5.518   5.510   0.185
 8475SOL    HW227433   5.590   5.608  22.174
 8476SOL     OW27434   1.753   7.416  10.883
 8476SOL    HW127435   1.793   7.500  10.863
 8476SOL    HW227436   1.805   7.381  10.955
 8477SOL     OW27437  10.679   7.196   5.009
 8477SOL    HW127438 -11.329  18.285  16.090
 8477SOL    HW227439  10.621   7.173   5.082
 8478SOL     OW27440   9.894   1.934   9.639
 8478SOL    HW127441   9.902   1.950   9.544
 8478SOL    HW227442   9.915   2.019   9.678
 8479SOL     OW27443   8.695   4.974  -0.377
 8479SOL    HW127444   8.676   4.963  -0.470
 8479SOL    HW227445   8.790   4.969  10.670
 8480SOL     OW27446  10.201   2.459   5.861
 8480SOL    HW127447  -0.810   2.399  -5.110
 8480SOL    HW227448  10.276   2.467  16.841
 8481SOL     OW27449   9.665   7.930   9.189
 8481SOL    HW127450   9.591   7.881   9.225
 8481SOL    HW227451  20.781   7.890   9.229
 8482SOL     OW27452   5.534   0.678   2.244
 8482SOL    HW127453   5.521   0.644   2.332
 8482SOL    HW227454   5.456   0.732 -30.892
 8483SOL     OW27455   4.643   3.351   3.000
 8483SOL    HW127456 -17.487 -40.882   2.970
 8483SOL    HW227457  -6.451   3.390   3.069
 8484SOL     OW27458   8.192  10.141   5.510
 8484SOL    HW127459   8.255  10.175  16.486
 8484SOL    HW227460   8.240  10.137  16.632
 8485SOL     OW27461   9.645   5.279   6.613
 8485SOL    HW127462   9.604   5.194   6.627
 8485SOL    HW227463   9.577  16.372  -4.467
 8486SOL     OW27464   7.551   7.338   6.738
 8486SOL    HW127465 -14.524   7.395   6.815
 8486SOL    HW227466   7.613  -3.663   6.676
 8487SOL     OW27467   1.346   5.022   8.032
 8487SOL    HW127468   1.302   4.942   8.062
 8487SOL    HW227469  12.463   5.029   8.088
 8488SOL     OW27470   4.746   9.717  10.576
 8488SOL    HW127471  15.692  20.772  10.591
 8488SOL    HW227472  15.804   9.759  10.492
 8489SOL     OW27473  10.032  10.539  10.949
 8489SOL    HW127474  -0.984  10.619  10.996
 8489SOL    HW227475  10.089  10.539  10.872
 8490SOL     OW27476   4.646   9.653   6.955
 8490SOL    HW127477  15.697  31.641   6.981
 8490SOL    HW227478   4.691   9.660   6.871
 8491SOL     OW27479   4.474  11.112   7.355
 8491SOL    HW127480   4.448  -0.018   7.337
 8491SOL    HW227481  26.558  11.153   7.268
 8492SOL     OW27482   6.499   3.650   4.782
 8492SOL    HW127483   6.511   3.717 -17.230
 8492SOL    HW227484  -4.555   3.699  -6.338
 8493SOL     OW27485   0.860   2.851   9.634
 8493SOL    HW127486  11.979 -19.175   9.635
 8493SOL    HW227487   0.815   2.876   9.554
 8494SOL     OW27488   4.070   3.569   3.984
 8494SOL    HW127489  15.042   3.597   4.047
 8494SOL    HW227490   4.031   3.587 -18.181
 8495SOL     OW27491   3.231   2.784   9.857
 8495SOL    HW127492  -7.788 -19.284   9.950
 8495SOL    HW227493  -7.856   2.701   9.853
 8496SOL     OW27494   9.205   3.565   5.337
 8496SOL    HW127495  -1.767   3.589   5.401
 8496SOL    HW227496  -1.813  14.658 -16.820
 8497SOL     OW27497   4.778   7.619   7.056
 8497SOL    HW127498  15.911   7.625   7.037
 8497SOL    HW227499  15.791   7.536   7.017
 8498SOL     OW27500  10.333   3.980   3.974
 8498SOL    HW127501  21.346   3.894 -18.138
 8498SOL    HW227502  10.360  26.043   4.064
 8499SOL     OW27503   2.404   7.232   2.300
 8499SOL    HW127504   2.432  -3.724   2.335
 8499SOL    HW227505   2.401   7.244  35.324
 8500SOL     OW27506   3.740   1.891   6.596
 8500SOL    HW127507  14.763   1.979   6.630
 8500SOL    HW227508   3.669  -9.165   6.533
 8501SOL     OW27509   4.386   7.489   5.818
 8501SOL    HW127510   4.377   7.430  -5.147
 8501SOL    HW227511   4.478   7.480   5.791
 8502SOL     OW27512   2.167   5.391   7.813
 8502SOL    HW127513   2.132   5.304   7.792
 8502SOL    HW227514  35.209   5.448   7.817
 8503SOL     OW27515   7.676   5.993   5.898
 8503SOL    HW127516   7.581   5.992   5.888
 8503SOL    HW227517   7.707   5.929   5.834
 8504SOL     OW27518   4.394   0.422   3.961
 8504SOL    HW127519  -6.633   0.384   4.047
 8504SOL    HW227520 -17.740   0.359   3.914
 8505SOL     OW27521   3.187   9.055   8.635
 8505SOL    HW127522   3.115  -1.944   8.587
 8505SOL    HW227523  25.306  20.166   8.685
 8506SOL     OW27524   6.027  11.961  10.784
 8506SOL    HW127525   6.079  11.923  10.854
 8506SOL    HW227526   5.955 -10.073  -0.212
 8507SOL     OW27527   1.774   7.906   4.427
 8507SOL    HW127528   1.778   7.952   4.511
 8507SOL    HW227529  -9.261 -36.345  -6.589
 8508SOL     OW27530  10.996   2.652   8.221
 8508SOL    HW127531  10.992  -8.341  -2.735
 8508SOL    HW227532  10.910 -19.468 -24.906
 8509SOL     OW27533   7.396   2.300   4.632
 8509SOL    HW127534   7.425   2.209  15.678
 8509SOL    HW227535   7.435   2.333   4.551
 8510SOL     OW27536   6.301   8.875   7.837
 8510SOL    HW127537  -4.729   8.813  18.948
 8510SOL    HW227538   6.324  19.999  -3.165
 8511SOL     OW27539   4.730   0.294   3.875
 8511SOL    HW127540   4.698  11.417   3.839
 8511SOL    HW227541   4.719  11.343   3.969
 8512SOL     OW27542   5.956   7.447  12.296
 8512SOL    HW127543   5.993   7.362  -9.807
 8512SOL    HW227544   5.875   7.453   1.206
 8513SOL     OW27545  10.450   0.342   0.541
 8513SOL    HW127546  10.469   0.325   0.449
 8513SOL    HW227547  10.501   0.421   0.562
 8514SOL     OW27548   3.306   3.706  10.074
 8514SOL    HW127549  14.286   3.736  -1.034
 8514SOL    HW227550   3.258  25.799  10.155
 8515SOL     OW27551   2.768   0.958   8.769
 8515SOL    HW127552   2.727  45.188   8.817
 8515SOL    HW227553  -8.177   0.975   8.777
 8516SOL     OW27554  10.424   1.249   0.865
 8516SOL    HW127555 -11.642   1.308  11.979
 8516SOL    HW227556 -11.734   1.200  11.926
 8517SOL     OW27557   5.386   3.290   6.889
 8517SOL    HW127558   5.380  -7.657   6.865
 8517SOL    HW227559   5.372   3.243   6.807
 8518SOL     OW27560   0.990   6.371   3.754
 8518SOL    HW127561  23.048 -26.824 -18.379
 8518SOL    HW227562   0.913  17.467   3.745
 8519SOL     OW27563  10.978  11.263   5.244
 8519SOL    HW127564  11.047 -21.920 -16.819
 8519SOL    HW227565  -0.132  11.212 -16.876
 8520SOL     OW27566   0.450  -2.184   7.688
 8520SOL    HW127567   0.467  -2.175 -14.485
 8520SOL    HW227568   0.359  42.002   7.699
 8521SOL     OW27569   6.360   2.925   5.770
 8521SOL    HW127570   6.338  -8.208   5.767
 8521SOL    HW227571   6.339   2.957   5.682
 8522SOL     OW27572   9.148   4.802   5.057
 8522SOL    HW127573   9.077   4.749   5.022
 8522SOL    HW227574   9.104   4.874   5.103
 8523SOL     OW27575   2.433  10.092   9.241
 8523SOL    HW127576  24.448 -11.992   9.170
 8523SOL    HW227577   2.385  10.130   9.314
 8524SOL     OW27578   7.159   6.711   2.586
 8524SOL    HW127579   7.099  17.761 -30.459
 8524SOL    HW227580  -3.886   6.618   2.563
 8525SOL     OW27581   7.922   3.427   6.068
 8525SOL    HW127582   7.884   3.462  17.027
 8525SOL    HW227583   8.003  25.463   6.040
 8526SOL     OW27584  11.025   7.097   1.114
 8526SOL    HW127585  11.030 -15.021  12.066
 8526SOL    HW227586  10.985   7.183   1.099
 8527SOL     OW27587   1.682   1.337   6.354
 8527SOL    HW127588  -9.385   1.312   6.442
 8527SOL    HW227589   1.669  12.298   6.301
 8528SOL     OW27590   8.257   1.585   4.523
 8528SOL    HW127591 -13.837   1.497   4.558
 8528SOL    HW227592  -2.868  23.707  -6.513
 8529SOL     OW27593   8.058   5.908   2.682
 8529SOL    HW127594   8.049  -5.078   2.603
 8529SOL    HW227595   8.025  17.003   2.753
 8530SOL     OW27596   3.235   4.485   7.371
 8530SOL    HW127597 -18.902  -6.560   7.447
 8530SOL    HW227598   3.194  -6.611   7.306
 8531SOL     OW27599   1.881   0.499   4.005
 8531SOL    HW127600 -20.158 -10.479   4.067
 8531SOL    HW227601   1.901  33.654 -18.161
 8532SOL     OW27602   8.160   1.658   8.616
 8532SOL    HW127603   8.139   1.579  -2.373
 8532SOL    HW227604  19.183   1.730   8.677
 8533SOL     OW27605   2.315  10.589   2.601
 8533SOL    HW127606   2.223  10.613 -30.516
 8533SOL    HW227607   2.339  10.579   2.693
 8534SOL     OW27608   6.610   1.674   8.892
 8534SOL    HW127609   6.533   1.644   8.940
 8534SOL    HW227610   6.575  -9.311   8.822
 8535SOL     OW27611   5.916  -0.842   8.462
 8535SOL    HW127612 -16.071  10.223   8.460
 8535SOL    HW227613   5.892  10.183   8.371
 8536SOL     OW27614   3.057   6.880   8.471
 8536SOL    HW127615   3.050   6.844   8.560
 8536SOL    HW227616   3.146  -4.182   8.443
 8537SOL     OW27617   7.880   0.001  10.824
 8537SOL    HW127618   7.929  -0.051  10.760
 8537SOL    HW227619 -14.278   0.030  10.777
 8538SOL     OW27620  10.596   4.279   7.427
 8538SOL    HW127621  -0.444   4.198   7.377
 8538SOL    HW227622  10.560  37.463 -25.752
 8539SOL     OW27623   2.713   8.151  10.943
 8539SOL    HW127624  -8.254   8.200  10.904
 8539SOL    HW227625  13.753 -24.942  11.035
 8540SOL     OW27626   6.624   4.304   4.689
 8540SOL    HW127627   6.565   4.260   4.628
 8540SOL    HW227628   6.683  15.275   4.720
 8541SOL     OW27629  11.839   4.580   4.218
 8541SOL    HW127630 -10.298   4.551   4.147
 8541SOL    HW227631   0.835  -6.541   4.254
 8542SOL     OW27632   5.946   4.474   3.305
 8542SOL    HW127633   6.020   4.415   3.318
 8542SOL    HW227634   5.978  15.600   3.329
 8543SOL     OW27635   8.264   0.594   9.473
 8543SOL    HW127636   8.302   0.593   9.385
 8543SOL    HW227637   8.220   0.509   9.481
 8544SOL     OW27638   1.707   8.853   7.011
 8544SOL    HW127639  23.706  30.885   6.986
 8544SOL    HW227640   1.698  19.979   6.971
 8545SOL     OW27641  -0.747   5.943   1.920
 8545SOL    HW127642  21.355   5.994   1.843
 8545SOL    HW227643  -0.664   5.908   1.952
 8546SOL     OW27644  10.985   2.634   5.046
 8546SOL    HW127645  10.970 -19.391   4.969
 8546SOL    HW227646  10.977 -19.535   5.014
 8547SOL     OW27647   4.240  11.466   3.232
 8547SOL    HW127648   4.297   0.463   3.165
 8547SOL    HW227649   4.300  11.430   3.297
 8548SOL     OW27650   1.629  10.358   2.092
 8548SOL    HW127651   1.670  10.284   2.137
 8548SOL    HW227652  -9.340  10.420   2.078
 8549SOL     OW27653   8.723   4.198   6.939
 8549SOL    HW127654   8.671 -17.805   6.911
 8549SOL    HW227655   8.750  37.339  29.107
 8550SOL     OW27656   2.480   4.803   6.546
 8550SOL    HW127657   2.403   4.796   6.602
 8550SOL    HW227658   2.480  -6.318   6.495
 8551SOL     OW27659   7.304   5.139   2.146
 8551SOL    HW127660  -3.662   5.107 -19.880
 8551SOL    HW227661   7.271   5.061   2.101
 8552SOL     OW27662   3.321  -0.221  10.537
 8552SOL    HW127663   3.265  -0.299  -0.498
 8552SOL    HW227664   3.397  32.876 -11.487
 8553SOL     OW27665   8.464   9.134   2.709
 8553SOL    HW127666   8.401   9.155   2.640
 8553SOL    HW227667  19.575   9.089   2.664
 8554SOL     OW27668   2.435   7.541   3.270
 8554SOL    HW127669  24.466   7.480 -18.867
 8554SOL    HW227670   2.426   7.626   3.227
 8555SOL     OW27671   4.135   6.847   5.467
 8555SOL    HW127672   4.182  -4.163   5.388
 8555SOL    HW227673  15.229   6.876   5.540
 8556SOL     OW27674  10.560   4.775   4.152
 8556SOL    HW127675  10.566   4.799   4.059
 8556SOL    HW227676  -0.396   4.731  26.250
 8557SOL     OW27677   8.339  -1.591   9.703
 8557SOL    HW127678   8.276  20.519   9.638
 8557SOL    HW227679   8.420   9.495   9.683
 8558SOL     OW27680  10.162   6.391   4.995
 8558SOL    HW127681  10.208  17.437  -5.960
 8558SOL    HW227682  10.069  61.585  -6.021
 8559SOL     OW27683   8.366   5.246   3.213
 8559SOL    HW127684   8.330  16.363 -18.823
 8559SOL    HW227685   8.295  27.294   3.157
 8560SOL     OW27686   7.731   9.671   6.436
 8560SOL    HW127687   7.638  20.721  39.574
 8560SOL    HW227688  -3.264   9.732   6.495
 8561SOL     OW27689   4.928   5.593  10.445
 8561SOL    HW127690   4.913  16.547  10.404
 8561SOL    HW227691   4.927   5.574  10.539
 8562SOL     OW27692   8.475   7.799   9.961
 8562SOL    HW127693   8.398   7.827   9.912
 8562SOL    HW227694   8.549   7.827   9.907
 8563SOL     OW27695  -0.364   9.494   4.377
 8563SOL    HW127696  10.588   9.534  26.464
 8563SOL    HW227697  -0.338 -23.604   4.287
 8564SOL     OW27698  10.042   4.892   0.988
 8564SOL    HW127699   9.956   4.857   1.013
 8564SOL    HW227700  -0.950   4.816  23.034
 8565SOL     OW27701   6.132   6.558   9.086
 8565SOL    HW127702   6.212   6.599   9.117
 8565SOL    HW227703   6.162  39.614   9.019
 8566SOL     OW27704   5.775   2.168   0.857
 8566SOL    HW127705  16.816   2.225  22.859
 8566SOL    HW227706   5.762   2.080 -10.218
 8567SOL     OW27707  10.871   8.539   8.535
 8567SOL    HW127708  10.921   8.533   8.454
 8567SOL    HW227709  10.929   8.501  -2.438
 8568SOL     OW27710   4.272   7.327   7.639
 8568SOL    HW127711  -6.782   7.247   7.689
 8568SOL    HW227712  -6.674  40.448   7.624
 8569SOL     OW27713   0.706   9.702   1.785
 8569SOL    HW127714   0.746   9.615  12.832
 8569SOL    HW227715   0.634  20.730  45.881
 8570SOL     OW27716   0.197   9.366   6.127
 8570SOL    HW127717   0.201   9.271   6.137
 8570SOL    HW227718   0.125   9.380 -16.013
 8571SOL     OW27719   8.756   2.919   1.485
 8571SOL    HW127720   8.847   2.949  12.531
 8571SOL    HW227721   8.715   2.946   1.567
 8572SOL     OW27722   8.370   5.103   3.452
 8572SOL    HW127723   8.384 -16.899  36.515
 8572SOL    HW227724   8.446 -16.978   3.510
 8573SOL     OW27725  10.315   4.746   1.987
 8573SOL    HW127726  -0.708   4.652  13.017
 8573SOL    HW227727  10.251   4.766  35.037
 8574SOL     OW27728   4.940   3.331   9.155
 8574SOL    HW127729  15.965   3.382  -1.805
 8574SOL    HW227730   4.924   3.392   9.083
 8575SOL     OW27731  10.797   0.683   0.483
 8575SOL    HW127732  10.805 -10.266  11.496
 8575SOL    HW227733  10.851  22.713 -10.619
 8576SOL     OW27734   5.054   4.452   3.395
 8576SOL    HW127735   4.992 -17.567 -18.642
 8576SOL    HW227736   5.097   4.407 -18.611
 8577SOL     OW27737   4.196   8.138  10.104
 8577SOL    HW127738   4.197   8.232  21.126
 8577SOL    HW227739   4.143   8.101  10.033
 8578SOL     OW27740   6.448   1.593   7.029
 8578SOL    HW127741   6.526   1.608  18.014
 8578SOL    HW227742  17.521   1.551  -3.932
 8579SOL     OW27743  10.228   1.736   6.294
 8579SOL    HW127744  -0.777   1.647   6.283
 8579SOL    HW227745  -0.816  45.908   6.388
 8580SOL     OW27746   6.684   1.576   6.824
 8580SOL    HW127747  28.824   1.536   6.885
 8580SOL    HW227748  28.729   1.503   6.772
 8581SOL     OW27749   8.147   8.662   7.385
 8581SOL    HW127750   8.228   8.707   7.412
 8581SOL    HW227751  41.205   8.734   7.364
 8582SOL     OW27752   3.514   4.436   8.357
 8582SOL    HW127753  -7.490   4.429   8.446
 8582SOL    HW227754   3.586   4.405   8.300
 8583SOL     OW27755   3.960  10.260   8.107
 8583SOL    HW127756   3.970  10.166   8.093
 8583SOL    HW227757   3.872  10.281   8.078
 8584SOL     OW27758   7.174   8.882   6.529
 8584SOL    HW127759   7.191   8.797   6.488
 8584SOL    HW227760  -3.854   8.866  39.741
 8585SOL     OW27761   3.915   4.297   9.150
 8585SOL    HW127762   3.923  -6.744  -1.794
 8585SOL    HW227763   3.991  -6.792  20.159
 8586SOL     OW27764   7.631   5.107   9.745
 8586SOL    HW127765 -14.511   5.037   9.728
 8586SOL    HW227766   7.633   5.114   9.841
 8587SOL     OW27767  11.363  10.092   9.291
 8587SOL    HW127768   0.380  10.142   9.350
 8587SOL    HW227769  11.345  10.152   9.219
 8588SOL     OW27770   4.898   8.092   1.646
 8588SOL    HW127771   4.859   8.010   1.615
 8588SOL    HW227772   4.824   8.141   1.682
 8589SOL     OW27773   1.021   2.293   6.620
 8589SOL    HW127774   1.110 -19.803  -4.450
 8589SOL    HW227775   1.024   2.276  -4.325
 8590SOL     OW27776   4.060   5.434  10.563
 8590SOL    HW127777   4.056   5.416  10.657
 8590SOL    HW227778  37.156   5.527  10.555
 8591SOL     OW27779   4.391   1.246   7.882
 8591SOL    HW127780   4.443   1.320   7.913
 8591SOL    HW227781   4.331  12.266  -3.085
 8592SOL     OW27782   6.510   8.572   8.291
 8592SOL    HW127783  17.497   8.650  19.348
 8592SOL    HW227784   6.489   8.512   8.363
 8593SOL     OW27785   4.703  -1.171   9.147
 8593SOL    HW127786   4.656  20.825   9.153
 8593SOL    HW227787   4.638  -1.110   9.112
 8594SOL     OW27788   5.663   1.877   2.493
 8594SOL    HW127789  -5.417   1.819   2.429
 8594SOL    HW227790  16.778   1.914   2.447
 8595SOL     OW27791   7.036   2.354   1.581
 8595SOL    HW127792   7.026  -8.624  12.549
 8595SOL    HW227793   7.080  -8.761  56.740
 8596SOL     OW27794   1.689   7.874   3.338
 8596SOL    HW127795   1.725  18.855   3.404
 8596SOL    HW227796   1.764  29.975   3.282
 8597SOL     OW27797   0.708  10.089   2.364
 8597SOL    HW127798  22.727  10.124   2.429
 8597SOL    HW227799   0.719   9.997  -8.652
 8598SOL     OW27800   7.550  10.088   5.918
 8598SOL    HW127801   7.585  10.155 -16.220
 8598SOL    HW227802 -14.576  21.067   5.860
 8599SOL     OW27803  10.665   2.242   8.846
 8599SOL    HW127804  10.753   2.230  -2.156
 8599SOL    HW227805 -22.463   2.170 -24.334
 8600SOL     OW27806  10.839   1.514   3.759
 8600SOL    HW127807  -0.200 -20.494   3.822
 8600SOL    HW227808  10.770   1.455   3.790
 8601SOL     OW27809   5.313   9.757  -0.645
 8601SOL    HW127810  38.424 -12.352  43.423
 8601SOL    HW227811   5.228   9.796  21.454
 8602SOL     OW27812  10.131   8.765   0.922
 8602SOL    HW127813  -0.869   8.678   0.917
 8602SOL    HW227814  21.245  -2.214   0.927
 8603SOL     OW27815   3.467   4.342   9.422
 8603SOL    HW127816   3.401  -6.657   9.365
 8603SOL    HW227817   3.459   4.249  -1.636
 8604SOL     OW27818   2.977   0.896   6.151
 8604SOL    HW127819 -30.149   0.974   6.206
 8604SOL    HW227820   2.989   0.930   6.062
 8605SOL     OW27821   2.420   7.155   7.421
 8605SOL    HW127822   2.397  18.151  -3.700
 8605SOL    HW227823   2.508   7.189  29.485
 8606SOL     OW27824   1.403   6.714   5.052
 8606SOL    HW127825   1.401   6.659   4.974
 8606SOL    HW227826   1.496   6.715   5.078
 8607SOL     OW27827   2.278   6.034  -0.023
 8607SOL    HW127828   2.301  -5.091  10.981
 8607SOL    HW227829  -8.827   6.015  22.123
 8608SOL     OW27830   3.347   0.676  11.156
 8608SOL    HW127831   3.266   0.727 -10.924
 8608SOL    HW227832   3.412   0.735 -10.961
 8609SOL     OW27833   7.958   6.087   3.148
 8609SOL    HW127834   7.907   6.167   3.139
 8609SOL    HW227835   7.933  17.091   3.234
 8610SOL     OW27836   0.221   2.540   7.832
 8610SOL    HW127837   0.144   2.529  -3.152
 8610SOL    HW227838  22.369   2.568   7.892
 8611SOL     OW27839   4.509   6.391   9.323
 8611SOL    HW127840  -6.496  -4.600  31.328
 8611SOL    HW227841  -6.518   6.299  -1.741
 8612SOL     OW27842   0.784   8.478   4.847
 8612SOL    HW127843   0.878  19.532   4.860
 8612SOL    HW227844   0.778  19.472  -6.277
 8613SOL     OW27845   7.758  10.043   1.223
 8613SOL    HW127846   7.678  10.096  12.263
 8613SOL    HW227847   7.738   9.969  12.320
 8614SOL     OW27848   2.569  -0.705   7.290
 8614SOL    HW127849   2.578  -0.653   7.210
 8614SOL    HW227850   2.475  32.401   7.300
 8615SOL     OW27851   2.065   3.664   3.651
 8615SOL    HW127852  13.113   3.755   3.681
 8615SOL    HW227853   2.041  14.711   3.559
 8616SOL     OW27854   7.997   3.978   6.636
 8616SOL    HW127855   7.908  15.016   6.603
 8616SOL    HW227856   8.038   4.053  -4.447
 8617SOL     OW27857   1.060   0.255   0.741
 8617SOL    HW127858   1.064   0.350 -10.296
 8617SOL    HW227859   1.147   0.226   0.769
 8618SOL     OW27860   9.937   3.563   4.821
 8618SOL    HW127861  20.949   3.568   4.913
 8618SOL    HW227862   9.977  -7.391   4.804
 8619SOL     OW27863   2.694   7.919   6.003
 8619SOL    HW127864   2.711   7.903   6.096
 8619SOL    HW227865   2.634   7.993  -5.038
 8620SOL     OW27866   5.919   6.995   6.517
 8620SOL    HW127867   5.873  -3.986   6.456
 8620SOL    HW227868   5.886   7.019   6.603
 8621SOL     OW27869   8.793   8.029   0.961
 8621SOL    HW127870  19.858   8.112   1.000
 8621SOL    HW227871   8.766   7.975   1.035
 8622SOL     OW27872  10.178   1.146   3.440
 8622SOL    HW127873  10.124  12.134   3.499
 8622SOL    HW227874  10.263   1.150   3.483
 8623SOL     OW27875   8.039   1.786  -0.634
 8623SOL    HW127876   8.077  12.775  32.557
 8623SOL    HW227877  -3.056   1.851  -0.591
 8624SOL     OW27878   2.028   5.729   8.783
 8624SOL    HW127879   2.001   5.770   8.865
 8624SOL    HW227880   2.011  27.715   8.795
 8625SOL     OW27881   3.850  11.725   2.137
 8625SOL    HW127882   3.942 -10.381   2.136
 8625SOL    HW227883  14.845  11.658   2.189
 8626SOL     OW27884   0.776  11.904   0.315
 8626SOL    HW127885   0.837 -10.244   0.288
 8626SOL    HW227886  11.731   0.834   0.282
 8627SOL     OW27887   8.663   9.033  10.712
 8627SOL    HW127888   8.732  20.034  10.658
 8627SOL    HW227889  19.679   8.964  10.774
 8628SOL     OW27890   5.050  -0.495   1.503
 8628SOL    HW127891   4.992  -0.496   1.580
 8628SOL    HW227892  -6.036  10.598   1.439
 8629SOL     OW27893   6.532   3.732  10.568
 8629SOL    HW127894   6.560   3.680  10.493
 8629SOL    HW227895  39.680   3.821  10.547
 8630SOL     OW27896   5.898   3.478   3.939
 8630SOL    HW127897   5.983   3.513  26.043
 8630SOL    HW227898   5.862   3.541  25.956
 8631SOL     OW27899   5.845   0.952   8.422
 8631SOL    HW127900   5.799 -10.006   8.445
 8631SOL    HW227901   5.868   0.913   8.506
 8632SOL     OW27902  10.932   5.805   4.694
 8632SOL    HW127903  10.966   5.772   4.612
 8632SOL    HW227904  10.978   5.888  15.747
 8633SOL     OW27905   4.582   9.307   3.127
 8633SOL    HW127906   4.488   9.288   3.138
 8633SOL    HW227907  -6.436   9.361  25.281
 8634SOL     OW27908   4.697   8.380   5.111
 8634SOL    HW127909   4.681   8.286  16.142
 8634SOL    HW227910   4.730   8.391   5.200
 8635SOL     OW27911   3.973   0.838   4.357
 8635SOL    HW127912   3.880   0.856   4.344
 8635SOL    HW227913   3.976   0.747   4.387
 8636SOL     OW27914   4.855   4.804   0.361
 8636SOL    HW127915   4.854  -6.145  11.368
 8636SOL    HW227916  -6.144   4.753  22.370
 8637SOL     OW27917   8.704   8.829   6.633
 8637SOL    HW127918 -13.364   8.894   6.702
 8637SOL    HW227919  30.695   8.795  -4.393
 8638SOL     OW27920   3.440   3.912   4.356
 8638SOL    HW127921  14.543   3.939   4.423
 8638SOL    HW227922   3.462  15.005  -6.760
 8639SOL     OW27923  10.195   8.571   3.010
 8639SOL    HW127924 -22.997   8.576   2.950
 8639SOL    HW227925  21.289   8.647  -8.051
 8640SOL     OW27926   6.277   0.166   0.539
 8640SOL    HW127927 -26.803  11.144   0.600
 8640SOL    HW227928   6.344   0.179   0.472
 8641SOL     OW27929   6.749   8.175  10.398
 8641SOL    HW127930   6.810   8.169  10.326
 8641SOL    HW227931   6.681   8.236  10.367
 8642SOL     OW27932   6.981   9.968   2.224
 8642SOL    HW127933   6.995  10.016  13.346
 8642SOL    HW227934  17.987   9.882   2.252
 8643SOL     OW27935   7.173   7.869   5.392
 8643SOL    HW127936  -3.833   7.953  16.398
 8643SOL    HW227937 -14.951   7.830  27.396
 8644SOL     OW27938   4.086   1.633   9.299
 8644SOL    HW127939   4.058   1.542   9.289
 8644SOL    HW227940  -6.950   1.667   9.210
 8645SOL     OW27941   4.153   2.912   8.631
 8645SOL    HW127942   4.114   2.975  -2.469
 8645SOL    HW227943  26.174  -8.203   8.629
 8646SOL     OW27944   4.876   0.947  10.765
 8646SOL    HW127945   4.837   0.997 -11.242
 8646SOL    HW227946   4.823   0.969 -22.430
 8647SOL     OW27947   0.386   1.483   1.493
 8647SOL    HW127948  11.467   1.531   1.565
 8647SOL    HW227949   0.331   1.547   1.449
 8648SOL     OW27950   3.446  10.174   5.058
 8648SOL    HW127951  14.481  10.251   5.001
 8648SOL    HW227952   3.494  10.205   5.135
 8649SOL     OW27953   6.484   3.501   9.300
 8649SOL    HW127954   6.431 -18.653   9.327
 8649SOL    HW227955  -4.620   3.566  31.350
 8650SOL     OW27956   6.630   1.585   7.279
 8650SOL    HW127957   6.686   1.547   7.211
 8650SOL    HW227958   6.665  -9.489   7.361
 8651SOL     OW27959   7.686   8.154   8.198
 8651SOL    HW127960   7.631  19.121   8.229
 8651SOL    HW227961   7.743  -2.926   8.133
 8652SOL     OW27962   9.689   6.191   5.108
 8652SOL    HW127963   9.760   6.131 -16.946
 8652SOL    HW227964   9.650   6.150 -17.049
 8653SOL     OW27965   6.363   2.679   8.650
 8653SOL    HW127966   6.312   2.626   8.712
 8653SOL    HW227967 -15.781   2.734   8.606
 8654SOL     OW27968   9.963   8.799   5.292
 8654SOL    HW127969   9.930 -35.332  27.456
 8654SOL    HW227970   9.945  -2.166   5.234
 8655SOL     OW27971   1.911   3.693   5.880
 8655SOL    HW127972   1.823   3.665   5.904
 8655SOL    HW227973   1.924   3.774   5.929
 8656SOL     OW27974   6.978   0.845   3.301
 8656SOL    HW127975   6.886   0.840   3.276
 8656SOL    HW227976   6.980 -10.132   3.373
 8657SOL     OW27977   6.459  11.078   1.276
 8657SOL    HW127978   6.442 -11.024 -20.712
 8657SOL    HW227979  17.581   0.086   1.278
 8658SOL     OW27980   6.284   7.327   7.126
 8658SOL    HW127981   6.266   7.236   7.101
 8658SOL    HW227982   6.219   7.345   7.194
 8659SOL     OW27983   9.576   4.901   5.667
 8659SOL    HW127984  20.623   4.974   5.730
 8659SOL    HW227985   9.528   4.834  -5.324
 8660SOL     OW27986   5.711   6.839   6.632
 8660SOL    HW127987   5.783   6.783   6.603
 8660SOL    HW227988   5.681   6.883  -4.487
 8661SOL     OW27989   0.378   7.725   1.259
 8661SOL    HW127990   0.411  18.698   1.199
 8661SOL    HW227991   0.297  29.766   1.294
 8662SOL     OW27992   8.036   7.069   1.220
 8662SOL    HW127993   7.980   7.043   1.147
 8662SOL    HW227994 -25.144   7.097  23.367
 8663SOL     OW27995   7.674   5.245   6.876
 8663SOL    HW127996   7.693  -5.716   6.929
 8663SOL    HW227997 -14.443   5.280  28.874
 8664SOL     OW27998  -0.322   7.300   4.373
 8664SOL    HW127999  -0.362   7.369   4.320
 8664SOL    HW228000  21.837   7.340  26.487
 8665SOL     OW28001   0.736   0.357   9.301
 8665SOL    HW128002 -10.217  11.358   9.299
 8665SOL    HW228003   0.733   0.414  -1.816
 8666SOL     OW28004   7.878   7.515   7.793
 8666SOL    HW128005   7.915   7.586   7.741
 8666SOL    HW228006   7.949  18.491  51.961
 8667SOL     OW28007   0.110   7.102  10.034
 8667SOL    HW128008   0.088  -3.910 -12.134
 8667SOL    HW228009   0.201   7.074  10.028
 8668SOL     OW28010   7.689   6.618   9.854
 8668SOL    HW128011  40.794   6.702   9.898
 8668SOL    HW228012  29.682   6.597   9.816
 8669SOL     OW28013   1.337   0.210   9.162
 8669SOL    HW128014  12.321  11.173   9.167
 8669SOL    HW228015  23.471 -10.834   9.240
 8670SOL     OW28016   1.594   1.552   1.757
 8670SOL    HW128017   1.568   1.569  12.887
 8670SOL    HW228018  12.700  12.657   1.737
 8671SOL     OW28019   1.882  10.432   2.463
 8671SOL    HW128020  -9.131  10.342  -8.598
 8671SOL    HW228021   1.789  10.424  -8.555
 8672SOL     OW28022   6.778   9.609   3.004
 8672SOL    HW128023  28.855  20.730   2.954
 8672SOL    HW228024  28.824   9.632   3.090
 8673SOL     OW28025  10.473   2.778   6.701
 8673SOL    HW128026  10.475   2.872  17.724
 8673SOL    HW228027  10.465   2.770  -4.244
 8674SOL     OW28028   6.076   5.933   0.316
 8674SOL    HW128029  17.022   5.938  11.375
 8674SOL    HW228030  -4.922   5.980   0.388
 8675SOL     OW28031   4.003  -0.548   0.368
 8675SOL    HW128032   3.987  -0.540   0.462
 8675SOL    HW228033   4.007  21.437   0.353
 8676SOL     OW28034   5.582   5.782   0.162
 8676SOL    HW128035  38.647  -5.180   0.149
 8676SOL    HW228036  -5.419   5.794  22.328
 8677SOL     OW28037  10.701   1.688   9.014
 8677SOL    HW128038  10.717   1.776   8.979
 8677SOL    HW228039  10.640  23.727  19.991
 8678SOL     OW28040  10.346   7.290  12.216
 8678SOL    HW128041  10.440   7.307   1.175
 8678SOL    HW228042  10.338   7.206  -9.818
 8679SOL     OW28043   7.544   4.367  -1.686
 8679SOL    HW128044  -3.452  37.429  31.370
 8679SOL    HW228045  -3.561   4.414  -1.737
 8680SOL     OW28046  -3.484   8.884   4.502
 8680SOL    HW128047  51.735   8.977   4.512
 8680SOL    HW228048   7.574  -2.176   4.411
 8681SOL     OW28049   6.312   7.751   0.393
 8681SOL    HW128050 -15.772  -3.266   0.300
 8681SOL    HW228051   6.317   7.836   0.438
 8682SOL     OW28052  10.356   4.680   4.848
 8682SOL    HW128053  10.412 -17.407  -6.114
 8682SOL    HW228054  10.408   4.729  -6.255
 8683SOL     OW28055   9.251   2.363   0.867
 8683SOL    HW128056   9.216  13.454 -10.245
 8683SOL    HW228057   9.247   2.272   0.837
 8684SOL     OW28058   5.803   4.789   2.278
 8684SOL    HW128059   5.774   4.741  -8.840
 8684SOL    HW228060   5.814 -17.359   2.344
 8685SOL     OW28061  10.431   9.597   6.604
 8685SOL    HW128062  -0.700   9.587  -4.462
 8685SOL    HW228063  10.472  31.592 -15.498
 8686SOL     OW28064   7.778  10.619   1.031
 8686SOL    HW128065   7.781 -11.375   1.075
 8686SOL    HW228066   7.696  10.579   1.061
 8687SOL     OW28067   1.483   5.228  -0.901
 8687SOL    HW128068   1.515   5.314  21.151
 8687SOL    HW228069   1.532  27.245  -0.955
 8688SOL     OW28070   5.756   2.722  -0.540
 8688SOL    HW128071   5.822   2.776  -0.584
 8688SOL    HW228072  16.831   2.634  10.497
 8689SOL     OW28073   0.480   8.832   1.695
 8689SOL    HW128074   0.450   8.897   1.631
 8689SOL    HW228075  22.576 -13.196  -9.265
 8690SOL     OW28076   9.412   1.907   8.540
 8690SOL    HW128077   9.424   1.887  19.487
 8690SOL    HW228078  20.539   1.929   8.572
 8691SOL     OW28079   3.838   9.714   6.629
 8691SOL    HW128080   3.773   9.645  -4.417
 8691SOL    HW228081   3.841   9.753   6.541
 8692SOL     OW28082  -0.170   6.557   0.872
 8692SOL    HW128083  -0.132   6.487  11.858
 8692SOL    HW228084  10.780   6.529  22.968
 8693SOL     OW28085   3.512   2.136   3.334
 8693SOL    HW128086  25.649   2.194   3.284
 8693SOL    HW228087  -7.595   2.110   3.271
 8694SOL     OW28088   2.319   5.438   8.034
 8694SOL    HW128089  13.436  -5.546   8.021
 8694SOL    HW228090 -19.802   5.435 -14.131
 8695SOL     OW28091   0.293   5.260   8.117
 8695SOL    HW128092   0.284  38.324  -2.845
 8695SOL    HW228093   0.205   5.293   8.100
 8696SOL     OW28094   8.601   1.742  10.364
 8696SOL    HW128095   8.667  12.834  21.448
 8696SOL    HW228096 -13.521  12.732  10.434
 8697SOL     OW28097   2.027   9.816   2.481
 8697SOL    HW128098   2.119   9.807   2.506
 8697SOL    HW228099   1.982   9.846   2.560
 8698SOL     OW28100  10.801   9.527   6.878
 8698SOL    HW128101  10.730  20.512  28.924
 8698SOL    HW228102  10.799   9.605   6.822
 8699SOL     OW28103   6.004   0.168   4.352
 8699SOL    HW128104   5.986   0.192   4.260
 8699SOL    HW228105   6.089  11.166   4.350
 8700SOL     OW28106   3.769   2.946   7.742
 8700SOL    HW128107  25.942   2.930   7.757
 8700SOL    HW228108  -7.272  -8.021  18.720
 8701SOL     OW28109   4.828   4.566   5.565
 8701SOL    HW128110   4.805 -17.539 -16.425
 8701SOL    HW228111   4.914   4.526   5.550
 8702SOL     OW28112   9.586   4.739   8.210
 8702SOL    HW128113   9.650   4.774  -2.892
 8702SOL    HW228114   9.504   4.782  19.226
 8703SOL     OW28115   5.873   0.759   4.094
 8703SOL    HW128116   5.912   0.810  15.062
 8703SOL    HW228117   5.914  44.952   4.173
 8704SOL     OW28118   6.106  10.994   1.278
 8704SOL    HW128119  -4.869  10.998   1.207
 8704SOL    HW228120   6.023  10.973  -9.805
 8705SOL     OW28121   2.297   9.692   4.004
 8705SOL    HW128122   2.347   9.708  -7.116
 8705SOL    HW228123   2.245   9.614   3.984
 8706SOL     OW28124   8.354   5.653   5.819
 8706SOL    HW128125   8.448   5.658   5.838
 8706SOL    HW228126  19.353   5.637   5.904
 8707SOL     OW28127   3.979   2.655   3.089
 8707SOL    HW128128  26.039   2.659   3.182
 8707SOL    HW228129   3.938   2.575   3.059
 8708SOL     OW28130   0.463   9.123   5.245
 8708SOL    HW128131   0.497   9.195  38.310
 8708SOL    HW228132   0.458  -1.880  -5.706
 8709SOL     OW28133   9.825   9.535   8.600
 8709SOL    HW128134   9.904   9.522   8.653
 8709SOL    HW228135   9.763   9.470  19.672
 8710SOL     OW28136   7.883   9.550   7.341
 8710SOL    HW128137   7.832   9.614   7.389
 8710SOL    HW228138   7.848   9.465  -3.670
 8711SOL     OW28139   4.131   6.495   3.735
 8711SOL    HW128140   4.069   6.550  36.900
 8711SOL    HW228141   4.141   6.537   3.649
 8712SOL     OW28142  10.907   8.081  -0.191
 8712SOL    HW128143  10.990   8.040  10.871
 8712SOL    HW228144  10.918   8.109  -0.282
 8713SOL     OW28145   8.086   8.844   8.609
 8713SOL    HW128146   8.008  19.880   8.665
 8713SOL    HW228147   8.154   8.880  -2.374
 8714SOL     OW28148   3.130   1.585   3.914
 8714SOL    HW128149 -18.899   1.504   3.913
 8714SOL    HW228150   3.077   1.581   3.994
 8715SOL     OW28151   2.493   8.116   5.979
 8715SOL    HW128152  24.504   8.077  -5.115
 8715SOL    HW228153   2.492   8.209  39.075
 8716SOL     OW28154   1.931  10.892   1.718
 8716SOL    HW128155   1.906  10.892   1.625
 8716SOL    HW228156  24.056  10.975  12.769
 8717SOL     OW28157   5.794   9.249   2.748
 8717SOL    HW128158   5.749   9.294   2.676
 8717SOL    HW228159   5.723  -1.829 -19.279
 8718SOL     OW28160   1.988  11.016   5.690
 8718SOL    HW128161   2.081  11.008   5.713
 8718SOL    HW228162  13.023  11.092   5.633
 8719SOL     OW28163   6.282   9.439   7.309
 8719SOL    HW128164 -37.787   9.472   7.316
 8719SOL    HW228165 -26.892   9.517   7.316
 8720SOL     OW28166   2.628   4.024   1.900
 8720SOL    HW128167   2.551   4.027   1.957
 8720SOL    HW228168   2.612   3.949 -20.236
 8721SOL     OW28169   6.816  11.522   2.452
 8721SOL    HW128170   6.760  11.493   2.381
 8721SOL    HW228171   6.870   0.406   2.473
 8722SOL     OW28172   7.917   7.464  10.003
 8722SOL    HW128173   7.914   7.549  -0.991
 8722SOL    HW228174   7.976  -3.629  10.057
 8723SOL     OW28175  11.547   2.765   3.129
 8723SOL    HW128176   0.589  13.844   3.096
 8723SOL    HW228177  11.530  -8.348   3.070
 8724SOL     OW28178   3.588   6.074   3.873
 8724SOL    HW128179 -18.443   6.020   3.936
 8724SOL    HW228180   3.551   6.145   3.926
 8725SOL     OW28181   6.406   8.434   8.505
 8725SOL    HW128182   6.449   8.407  -2.453
 8725SOL    HW228183  17.388   8.506   8.531
 8726SOL     OW28184   2.800   5.391   1.973
 8726SOL    HW128185  -8.204   5.363   2.057
 8726SOL    HW228186  -8.177   5.456  -9.098
 8727SOL     OW28187   5.172   6.227   7.650
 8727SOL    HW128188   5.130   6.155   7.603
 8727SOL    HW228189  16.180  -4.733  18.645
 8728SOL     OW28190   2.147   8.407  -0.915
 8728SOL    HW128191   2.177 -13.761  -0.935
 8728SOL    HW228192   2.096   8.397  21.245
 8729SOL     OW28193   6.537   2.011   4.612
 8729SOL    HW128194   6.506   1.925   4.581
 8729SOL    HW228195   6.601  13.029   4.680
 8730SOL     OW28196   0.618   1.667   8.598
 8730SOL    HW128197   0.697   1.614   8.613
 8730SOL    HW228198   0.580   1.629  41.637
 8731SOL     OW28199   8.965   4.317  -0.395
 8731SOL    HW128200   8.997  -6.705 -11.523
 8731SOL    HW228201   8.938  -6.636  21.717
 8732SOL     OW28202   6.897   6.843   2.453
 8732SOL    HW128203   6.911   6.768  35.514
 8732SOL    HW228204  17.874  28.977  -8.634
 8733SOL     OW28205   4.492   8.255   0.573
 8733SOL    HW128206  15.461  30.386   0.613
 8733SOL    HW228207  26.593   8.189   0.638
 8734SOL     OW28208   0.687  10.350  10.030
 8734SOL    HW128209   0.655  21.443  10.102
 8734SOL    HW228210   0.782  -0.676  10.031
 8735SOL     OW28211   6.835   8.229   1.762
 8735SOL    HW128212  17.828   8.310   1.743
 8735SOL    HW228213 -15.255  30.255   1.684
 8736SOL     OW28214   1.346  10.701  -0.104
 8736SOL    HW128215   1.401  10.730  -0.032
 8736SOL    HW228216   1.266  10.753  21.984
 8737SOL     OW28217  12.524  10.418   4.667
 8737SOL    HW128218   1.490  10.439   4.760
 8737SOL    HW228219  -9.633  10.465   4.636
 8738SOL     OW28220   9.824   8.393   4.604
 8738SOL    HW128221   9.806  -2.727   4.555
 8738SOL    HW228222   9.738   8.435   4.612
 8739SOL     OW28223   0.138   8.313   2.052
 8739SOL    HW128224  22.271  19.411   2.106
 8739SOL    HW228225   0.063   8.291   2.107
 8740SOL     OW28226   7.303   6.642  11.641
 8740SOL    HW128227  18.299   6.640   0.517
 8740SOL    HW228228  18.272   6.635  11.705
 8741SOL     OW28229   9.366   3.399   6.863
 8741SOL    HW128230   9.331   3.375   6.777
 8741SOL    HW228231   9.308  -7.572   6.895
 8742SOL     OW28232   1.760   0.791   4.320
 8742SOL    HW128233   1.726   0.843  37.365
 8742SOL    HW228234   1.682  11.808  37.490
 8743SOL     OW28235   6.032   5.376   9.236
 8743SOL    HW128236 -27.051  27.540  -1.778
 8743SOL    HW228237  -4.967  16.397   9.151
 8744SOL     OW28238   6.784   5.541   9.544
 8744SOL    HW128239 -15.223   5.587  20.540
 8744SOL    HW228240   6.705   5.575   9.502
 8745SOL     OW28241  10.920   4.483   5.182
 8745SOL    HW128242  11.003   4.435  16.227
 8745SOL    HW228243 -11.151   4.552   5.249
 8746SOL     OW28244   9.684  10.171  -0.543
 8746SOL    HW128245   9.699  10.263  10.517
 8746SOL    HW228246  31.710  10.138  -0.470
 8747SOL     OW28247  11.295   6.887   1.640
 8747SOL    HW128248   0.237   6.888   1.546
 8747SOL    HW228249  11.209   6.884   1.682
 8748SOL     OW28250   5.628   4.736   1.055
 8748SOL    HW128251   5.681  26.893   1.071
 8748SOL    HW228252   5.668   4.695  23.057
 8749SOL     OW28253   4.329   6.275   3.989
 8749SOL    HW128254   4.401   6.333   4.011
 8749SOL    HW228255  -6.721   6.284   3.894
 8750SOL     OW28256   1.499   3.563   7.148
 8750SOL    HW128257   1.483   3.599   7.060
 8750SOL    HW228258   1.460 -18.452   7.208
 8751SOL     OW28259   9.948   4.354   8.764
 8751SOL    HW128260   9.967   4.262  41.903
 8751SOL    HW228261   9.929   4.354   8.670
 8752SOL     OW28262   3.883   4.929   3.362
 8752SOL    HW128263   3.802   4.881   3.373
 8752SOL    HW228264   3.937   4.902  -7.603
 8753SOL     OW28265   2.727   8.185   9.035
 8753SOL    HW128266   2.796  30.274   8.970
 8753SOL    HW228267   2.713   8.090 -24.077
 8754SOL     OW28268   8.676   9.453   2.952
 8754SOL    HW128269   8.709  31.621   2.967
 8754SOL    HW228270   8.603   9.444   3.014
 8755SOL     OW28271   3.769   1.997   0.237
 8755SOL    HW128272  14.856  -8.979  22.371
 8755SOL    HW228273  14.854  12.954   0.252
 8756SOL     OW28274   3.978   5.002   1.057
 8756SOL    HW128275  -6.972   4.979   1.034
 8756SOL    HW228276   3.927 -17.156   1.040
 8757SOL     OW28277   2.430   9.530   3.458
 8757SOL    HW128278   2.406   9.443   3.490
 8757SOL    HW228279 -19.727 -12.496   3.474
 8758SOL     OW28280   1.371   8.831   3.281
 8758SOL    HW128281   1.458   8.864  25.381
 8758SOL    HW228282   1.326   8.826  -7.674
 8759SOL     OW28283   5.641   9.909   6.696
 8759SOL    HW128284  -5.433   9.820  39.825
 8759SOL    HW228285   5.672  -1.127   6.606
 8760SOL     OW28286   8.496   8.788   4.509
 8760SOL    HW128287  30.524   8.710  -6.549
 8760SOL    HW228288  19.617 -24.364   4.548
 8761SOL     OW28289   9.465   8.869   5.138
 8761SOL    HW128290  20.483 -24.200   5.059
 8761SOL    HW228291  20.505  19.818  38.228
 8762SOL     OW28292   5.098   3.783   5.201
 8762SOL    HW128293   5.084   3.780   5.106
 8762SOL    HW228294   5.110   3.692  27.305
 8763SOL     OW28295   9.098   3.654   3.212
 8763SOL    HW128296   9.110   3.648  14.157
 8763SOL    HW228297   9.052  25.652   3.236
 8764SOL     OW28298   6.418   9.628   7.680
 8764SOL    HW128299   6.454   9.568   7.745
 8764SOL    HW228300   6.493   9.679   7.650
 8765SOL     OW28301   9.512   4.346  11.171
 8765SOL    HW128302   9.458  15.344  11.103
 8765SOL    HW228303   9.469  15.363   0.214
 8766SOL     OW28304   3.452   3.481  10.817
 8766SOL    HW128305   3.445 -18.689  10.790
 8766SOL    HW228306   3.361   3.509  -0.210
 8767SOL     OW28307   2.591   8.422   0.941
 8767SOL    HW128308   2.588   8.518  11.980
 8767SOL    HW228309 -19.460   8.399   0.852
 8768SOL     OW28310   3.146  10.100   5.621
 8768SOL    HW128311  25.218  10.019   5.672
 8768SOL    HW228312  -7.981  -0.926  -5.454
 8769SOL     OW28313   9.743   2.023   5.768
 8769SOL    HW128314   9.697 -19.973   5.764
 8769SOL    HW228315   9.835   2.045   5.753
 8770SOL     OW28316  10.761   3.117   2.910
 8770SOL    HW128317 -11.341   3.120   3.003
 8770SOL    HW228318  10.847   3.157  -8.134
 8771SOL     OW28319   8.038   4.720   1.141
 8771SOL    HW128320   8.068   4.725   1.232
 8771SOL    HW228321  19.084   4.810  12.148
 8772SOL     OW28322   6.006   9.445   7.042
 8772SOL    HW128323  -4.945  31.554   7.061
 8772SOL    HW228324  17.033   9.463  17.988
 8773SOL     OW28325   1.207   7.738   3.449
 8773SOL    HW128326   1.195   7.759   3.356
 8773SOL    HW228327  12.341   7.747  25.543
 8774SOL     OW28328   5.507   7.841   8.051
 8774SOL    HW128329   5.481 -14.147   8.032
 8774SOL    HW228330   5.490   7.794   7.969
 8775SOL     OW28331   6.553   8.858   6.461
 8775SOL    HW128332   6.551  -2.136   6.377
 8775SOL    HW228333   6.506  -2.124 -15.558
 8776SOL     OW28334   8.295   2.943   7.148
 8776SOL    HW128335   8.291  36.113   7.229
 8776SOL    HW228336   8.369   2.979   7.100
 8777SOL     OW28337   5.612   9.228   6.847
 8777SOL    HW128338 -38.596   9.251   6.926
 8777SOL    HW228339 -16.382   9.200   6.880
 8778SOL     OW28340   9.638   7.830   3.372
 8778SOL    HW128341 -12.371   7.771   3.398
 8778SOL    HW228342   9.602   7.862   3.455
 8779SOL     OW28343   5.511   7.112  10.411
 8779SOL    HW128344 -16.643   7.159  10.448
 8779SOL    HW228345   5.479   7.023  10.397
 8780SOL     OW28346   1.180   9.465   3.756
 8780SOL    HW128347   1.263   9.423  25.859
 8780SOL    HW228348   1.151   9.417   3.678
 8781SOL     OW28349  10.913   1.383   7.286
 8781SOL    HW128350  10.953   1.454 -14.742
 8781SOL    HW228351  10.868   1.428  -3.825
 8782SOL     OW28352   3.566   1.404  12.106
 8782SOL    HW128353 -18.489  -9.558  12.055
 8782SOL    HW228354   3.505  23.517  -9.907
 8783SOL     OW28355   3.271   8.034   3.617
 8783SOL    HW128356  -7.756   7.962   3.555
 8783SOL    HW228357   3.210   8.093   3.573
 8784SOL     OW28358   4.820   6.301   2.843
 8784SOL    HW128359   4.773  28.302 -19.208
 8784SOL    HW228360 -17.167  17.321  -8.181
 8785SOL     OW28361   7.294   7.580   0.171
 8785SOL    HW128362   7.264   7.588   0.080
 8785SOL    HW228363  18.419  -3.502   0.165
 8786SOL     OW28364   2.774   2.115  10.549
 8786SOL    HW128365   2.806   2.043  10.604
 8786SOL    HW228366   2.699  -8.890  -0.442
 8787SOL     OW28367  10.555  11.188   1.739
 8787SOL    HW128368 -11.571  11.180  -9.218
 8787SOL    HW228369  10.579 -10.798   1.734
 8788SOL     OW28370   0.524  -0.330   3.067
 8788SOL    HW128371   0.617 -22.427  36.199
 8788SOL    HW228372  11.559  32.884   3.061
 8789SOL     OW28373   3.737   6.002   8.751
 8789SOL    HW128374  14.870   5.996  19.771
 8789SOL    HW228375  14.734   5.963   8.675
 8790SOL     OW28376  -0.220   6.119   3.008
 8790SOL    HW128377  21.858 -15.865   3.017
 8790SOL    HW228378  -0.133   6.093   3.036
 8791SOL     OW28379   4.784   1.321   8.122
 8791SOL    HW128380   4.866   1.292   8.161
 8791SOL    HW228381   4.786   1.286   8.032
 8792SOL     OW28382   7.663   4.757  13.835
 8792SOL    HW128383   7.614   4.740   2.877
 8792SOL    HW228384  18.701  15.892 -41.371
 8793SOL     OW28385   9.119  10.127   4.703
 8793SOL    HW128386   9.152  -0.964  15.816
 8793SOL    HW228387   9.195  10.141 -17.432
 8794SOL     OW28388   9.646   2.445   2.688
 8794SOL    HW128389   9.633   2.406  -8.438
 8794SOL    HW228390  20.733   2.379  -8.301
 8795SOL     OW28391   6.047   9.861   2.424
 8795SOL    HW128392 -16.090   9.791  -8.645
 8795SOL    HW228393   6.135  -1.209  24.481
 8796SOL     OW28394   7.098   2.321   0.541
 8796SOL    HW128395   7.100   2.350   0.450
 8796SOL    HW228396   7.125  -8.811   0.538
 8797SOL     OW28397   2.422   8.236  11.034
 8797SOL    HW128398   2.446  30.314  11.127
 8797SOL    HW228399   2.389  19.363  11.018
 8798SOL     OW28400   3.139   8.167   7.857
 8798SOL    HW128401 -29.909   8.233 -25.263
 8798SOL    HW228402   3.059   8.218   7.841
 8799SOL     OW28403   3.451  -0.362   5.008
 8799SOL    HW128404   3.454  10.627   4.927
 8799SOL    HW228405   3.534  10.658   5.052
 8800SOL     OW28406   3.330   5.183   4.781
 8800SOL    HW128407   3.401  27.266  93.162
 8800SOL    HW228408   3.264 -16.952  26.901
 8801SOL     OW28409   2.129   1.601   5.739
 8801SOL    HW128410   2.206   1.656  16.793
 8801SOL    HW228411   2.073   1.618   5.815
 8802SOL     OW28412   7.020   7.080   7.109
 8802SOL    HW128413   7.084   7.016   7.078
 8802SOL    HW228414   7.042   7.160  -3.978
 8803SOL     OW28415   3.496   5.744   2.055
 8803SOL    HW128416  -7.631   5.782   2.062
 8803SOL    HW228417   3.555   5.816   2.072
 8804SOL     OW28418   1.635   1.813   8.394
 8804SOL    HW128419  -9.483   1.838  19.482
 8804SOL    HW228420   1.666   1.734   8.438
 8805SOL     OW28421   4.443   7.837   7.973
 8805SOL    HW128422  26.553   7.927   7.985
 8805SOL    HW228423  26.566   7.806 -14.186
 8806SOL     OW28424   2.913   1.314  10.176
 8806SOL    HW128425   2.880   1.351 -11.821
 8806SOL    HW228426   2.966   1.239 -33.955
 8807SOL     OW28427   2.457   2.230  12.023
 8807SOL    HW128428   2.466   2.311   1.035
 8807SOL    HW228429   2.413   2.258   0.904
 8808SOL     OW28430   6.774   6.760   6.129
 8808SOL    HW128431   6.808   6.807   6.053
 8808SOL    HW228432   6.802   6.669   6.115
 8809SOL     OW28433   6.004   2.581   4.675
 8809SOL    HW128434  17.075   2.642   4.608
 8809SOL    HW228435   6.059  13.543   4.665
 8810SOL     OW28436   7.609   5.909   2.212
 8810SOL    HW128437 -25.431  -5.184   2.201
 8810SOL    HW228438 -14.496   5.894   2.303
 8811SOL     OW28439   0.298   5.272  -1.572
 8811SOL    HW128440   0.317   5.365  -1.574
 8811SOL    HW228441  11.243   5.266  42.570
 8812SOL     OW28442   7.229   4.563   4.984
 8812SOL    HW128443   7.146  15.627   5.026
 8812SOL    HW228444  29.282   4.522   4.902
 8813SOL     OW28445   3.848   4.189   5.161
 8813SOL    HW128446   3.767   4.238   5.153
 8813SOL    HW228447   3.917   4.253   5.145
 8814SOL     OW28448   6.982   7.565   6.245
 8814SOL    HW128449   7.060  -3.491   6.191
 8814SOL    HW228450  18.044   7.530   6.331
 8815SOL     OW28451  -0.995   7.421   4.243
 8815SOL    HW128452  32.115   7.447  15.191
 8815SOL    HW228453  21.079  18.365   4.242
 8816SOL     OW28454   7.305   8.017   9.148
 8816SOL    HW128455  51.460  19.011   9.064
 8816SOL    HW228456   7.224   8.069   9.151
 8817SOL     OW28457   5.592   6.638   8.572
 8817SOL    HW128458   5.595   6.581   8.495
 8817SOL    HW228459   5.559  17.621  19.682
 8818SOL     OW28460   9.424   4.751   4.914
 8818SOL    HW128461   9.453   4.671  15.908
 8818SOL    HW228462   9.366  -6.321   4.983
 8819SOL     OW28463   6.276   3.346  11.608
 8819SOL    HW128464   6.370   3.332  11.601
 8819SOL    HW228465  -4.803  25.355   0.517
 8820SOL     OW28466   2.949  10.221   7.442
 8820SOL    HW128467  13.926 -22.825 -14.644
 8820SOL    HW228468   3.017  10.241   7.378
 8821SOL     OW28469   1.198   6.764   2.361
 8821SOL    HW128470  12.313  -4.329   2.336
 8821SOL    HW228471   1.133   6.748  35.410
 8822SOL     OW28472  10.174   2.367   8.443
 8822SOL    HW128473  10.125   2.382   8.362
 8822SOL    HW228474 -33.910  13.467   8.439
 8823SOL     OW28475   9.559   4.000   4.441
 8823SOL    HW128476  -1.390   4.004  -6.631
 8823SOL    HW228477   9.567 -18.061 -17.545
 8824SOL     OW28478   1.849   4.127   8.626
 8824SOL    HW128479   1.783  15.121  19.614
 8824SOL    HW228480   1.834  15.137   8.716
 8825SOL     OW28481   5.146   0.897   8.700
 8825SOL    HW128482   5.156   0.872   8.792
 8825SOL    HW228483   5.190   0.982   8.694
 8826SOL     OW28484  -0.560   2.748   7.243
 8826SOL    HW128485  10.505   2.740   7.335
 8826SOL    HW228486  -0.577 -19.238  18.270
 8827SOL     OW28487   2.256   5.194   9.133
 8827SOL    HW128488  13.310   5.273  31.160
 8827SOL    HW228489   2.344  27.239  20.189
 8828SOL     OW28490   0.697   9.818   9.607
 8828SOL    HW128491  11.659   9.862   9.571
 8828SOL    HW228492  22.850  -1.174 -12.511
 8829SOL     OW28493  10.426   1.969   7.690
 8829SOL    HW128494  10.380  12.926  -3.332
 8829SOL    HW228495  21.413  -9.029   7.621
 8830SOL     OW28496   8.888  11.488   9.098
 8830SOL    HW128497   8.965   0.481   9.051
 8830SOL    HW228498 -13.188   0.493  20.222
 8831SOL     OW28499   3.835   7.426   0.084
 8831SOL    HW128500   3.884   7.422  22.080
 8831SOL    HW228501   3.776   7.351   0.080
 8832SOL     OW28502   7.904   4.188   0.917
 8832SOL    HW128503   7.896   4.266   0.863
 8832SOL    HW228504   7.926   4.118   0.855
 8833SOL     OW28505   1.678   1.052   1.935
 8833SOL    HW128506  -9.359  -9.914   1.997
 8833SOL    HW228507   1.738   0.987   1.972
 8834SOL     OW28508   8.959  10.220  10.783
 8834SOL    HW128509   9.048  10.214  -0.222
 8834SOL    HW228510   8.902  10.206  21.898
 8835SOL     OW28511   6.028  10.972  10.189
 8835SOL    HW128512   6.115  10.959  -0.814
 8835SOL    HW228513   6.035  10.944  10.098
 8836SOL     OW28514   9.500   1.407   8.218
 8836SOL    HW128515   9.594 -20.681   8.206
 8836SOL    HW228516   9.464   1.321   8.192
 8837SOL     OW28517   4.715  -0.785   7.839
 8837SOL    HW128518   4.722  21.200  -3.209
 8837SOL    HW228519  15.842  -0.757  18.909
 8838SOL     OW28520   6.784   6.816   8.519
 8838SOL    HW128521   6.715   6.813   8.452
 8838SOL    HW228522  -4.236   6.724  19.577
 8839SOL     OW28523   7.789   6.362   7.587
 8839SOL    HW128524   7.837  39.406   7.622
 8839SOL    HW228525   7.764   6.335   7.498
 8840SOL     OW28526   9.908   8.526   5.752
 8840SOL    HW128527   9.997   8.491   5.754
 8840SOL    HW228528   9.899  41.693   5.834
 8841SOL     OW28529   2.819   5.907   8.255
 8841SOL    HW128530   2.779  17.021   8.301
 8841SOL    HW228531 -30.367   5.839   8.256
 8842SOL     OW28532   4.151  10.277   2.355
 8842SOL    HW128533  -6.962  10.238   2.402
 8842SOL    HW228534   4.143  21.285   2.266
 8843SOL     OW28535   4.644   8.175   7.867
 8843SOL    HW128536   4.679   8.104   7.921
 8843SOL    HW228537   4.708   8.186 -14.283
 8844SOL     OW28538   8.903   8.141   4.176
 8844SOL    HW128539   8.849  19.226   4.240
 8844SOL    HW228540   8.992  19.209   4.195
 8845SOL     OW28541   8.034   6.337  10.030
 8845SOL    HW128542   7.944  17.398  10.058
 8845SOL    HW228543  19.126 -15.669  10.063
 8846SOL     OW28544  -1.164  -0.155   7.203
 8846SOL    HW128545   9.865  21.976  29.362
 8846SOL    HW228546   9.791  -0.149  18.198
 8847SOL     OW28547  11.542   7.547   9.098
 8847SOL    HW128548   0.593   7.576   9.083
 8847SOL    HW228549  11.495   7.627 -35.036
 8848SOL     OW28550   7.438   6.105   2.583
 8848SOL    HW128551   7.434  -5.001   2.514
 8848SOL    HW228552   7.347 -15.950   2.599
 8849SOL     OW28553   2.171   3.653   4.075
 8849SOL    HW128554  13.302  25.753   4.055
 8849SOL    HW228555  35.278  25.643   4.042
 8850SOL     OW28556   9.647   3.605   4.517
 8850SOL    HW128557   9.686   3.674  15.612
 8850SOL    HW228558  20.714   3.523   4.558
 8851SOL     OW28559   3.674   3.064   2.066
 8851SOL    HW128560  25.731 -19.106   2.083
 8851SOL    HW228561   3.628  14.125  13.025
 8852SOL     OW28562   7.145   0.382   6.601
 8852SOL    HW128563   7.066   0.418   6.561
 8852SOL    HW228564  18.252   0.391   6.533
 8853SOL     OW28565   5.025   6.932   2.948
 8853SOL    HW128566   4.990   6.866   3.009
 8853SOL    HW228567   5.110   6.956   2.986
 8854SOL     OW28568  -0.278   5.704   1.661
 8854SOL    HW128569  10.772   5.799   1.660
 8854SOL    HW228570  -0.197   5.670   1.624
 8855SOL     OW28571   2.942   6.607   0.799
 8855SOL    HW128572   2.996   6.529   0.804
 8855SOL    HW228573   2.962 -15.424   0.879
 8856SOL     OW28574   7.671   1.234   3.476
 8856SOL    HW128575  -3.341   1.266  25.470
 8856SOL    HW228576   7.702   1.301   3.538
 8857SOL     OW28577   0.316   1.926   4.508
 8857SOL    HW128578   0.389   1.866   4.493
 8857SOL    HW228579   0.319   1.944   4.602
 8858SOL     OW28580   4.538   0.888   8.532
 8858SOL    HW128581   4.587   0.879   8.450
 8858SOL    HW228582   4.592   0.946   8.586
 8859SOL     OW28583   2.063   2.174   3.764
 8859SOL    HW128584  35.148   2.194   3.852
 8859SOL    HW228585  24.237  13.226  25.851
 8860SOL     OW28586   6.789   5.661   7.827
 8860SOL    HW128587  -4.322   5.682   7.768
 8860SOL    HW228588   6.833  49.745   7.787
 8861SOL     OW28589   4.038   5.615   5.697
 8861SOL    HW128590  26.154   5.646  16.819
 8861SOL    HW228591   4.038  16.559  27.784
 8862SOL     OW28592   2.975   1.078   8.882
 8862SOL    HW128593   3.056   1.130 -24.235
 8862SOL    HW228594   2.931   1.100   8.964
 8863SOL     OW28595   6.817   3.264   5.638
 8863SOL    HW128596   6.829  -7.859  -5.448
 8863SOL    HW228597   6.722   3.273  -5.394
 8864SOL     OW28598   3.837   5.262   5.305
 8864SOL    HW128599   3.930  16.277 -16.779
 8864SOL    HW228600   3.816   5.294   5.217
 8865SOL     OW28601   9.334   2.551   9.176
 8865SOL    HW128602  20.340  -8.489  -1.774
 8865SOL    HW228603   9.266  13.547  -1.915
 8866SOL     OW28604   1.704   8.325   5.362
 8866SOL    HW128605  23.822   8.369  27.517
 8866SOL    HW228606   1.610  -2.709   5.378
 8867SOL     OW28607   0.417   5.589   0.269
 8867SOL    HW128608  11.519   5.554   0.206
 8867SOL    HW228609   0.340  -5.507   0.260
 8868SOL     OW28610   2.262   7.837   5.306
 8868SOL    HW128611   2.191   7.773  16.353
 8868SOL    HW228612   2.340  29.864  16.327
 8869SOL     OW28613   9.628   1.261   8.926
 8869SOL    HW128614   9.692   1.332   8.921
 8869SOL    HW228615   9.668   1.198   8.986
 8870SOL     OW28616   9.908   3.504   7.272
 8870SOL    HW128617   9.814  14.526   7.271
 8870SOL    HW228618   9.948   3.418   7.290
 8871SOL     OW28619   7.523   5.244   7.975
 8871SOL    HW128620  -3.465  16.328  41.161
 8871SOL    HW228621   7.536  -5.889  19.031
 8872SOL     OW28622   0.890  10.980   5.547
 8872SOL    HW128623  11.853  -0.105   5.511
 8872SOL    HW228624  11.899  -0.024 -16.449
 8873SOL     OW28625   1.789   7.582   3.225
 8873SOL    HW128626   1.729  -3.529  25.286
 8873SOL    HW228627   1.763   7.614  14.351
 8874SOL     OW28628  -0.459   6.975   2.205
 8874SOL    HW128629  21.664   7.008  13.323
 8874SOL    HW228630  -0.515   6.904   2.236
 8875SOL     OW28631   0.178   4.468  10.932
 8875SOL    HW128632  33.262   4.544  -0.061
 8875SOL    HW228633  33.289 -17.589  10.840
 8876SOL     OW28634   6.210   3.831   1.444
 8876SOL    HW128635  -4.918   3.823   1.478
 8876SOL    HW228636   6.208  14.949   1.389
 8877SOL     OW28637   5.665   1.108   9.583
 8877SOL    HW128638  16.690   1.122   9.489
 8877SOL    HW228639   5.579   1.081   9.616
 8878SOL     OW28640   4.643   6.754   0.690
 8878SOL    HW128641   4.628   6.842   0.724
 8878SOL    HW228642  -6.326 -26.400   0.743
 8879SOL     OW28643   8.271   2.945   6.752
 8879SOL    HW128644  -2.799  14.076  28.827
 8879SOL    HW228645   8.234   2.904   6.673
 8880SOL     OW28646   7.594  10.917   5.013
 8880SOL    HW128647   7.604 -22.188   4.919
 8880SOL    HW228648   7.511  21.999   5.034
 8881SOL     OW28649   1.500   7.249   7.417
 8881SOL    HW128650  23.592 -14.874  -3.706
 8881SOL    HW228651  12.455  18.256   7.449
 8882SOL     OW28652   0.486   3.773   1.571
 8882SOL    HW128653   0.530  14.752   1.511
 8882SOL    HW228654   0.429  14.864   1.515
 8883SOL     OW28655   9.550   0.902   9.328
 8883SOL    HW128656   9.504   0.829   9.286
 8883SOL    HW228657   9.480   0.957   9.363
 8884SOL     OW28658   3.063   1.652   7.512
 8884SOL    HW128659   2.978   1.630   7.475
 8884SOL    HW228660   3.123  12.689  18.477
 8885SOL     OW28661   0.964   7.381   3.514
 8885SOL    HW128662   0.956   7.473   3.538
 8885SOL    HW228663   0.896   7.367  14.488
 8886SOL     OW28664   5.802  12.813   8.884
 8886SOL    HW128665   5.799   1.869   8.884
 8886SOL    HW228666  16.840  -9.290   8.791
 8887SOL     OW28667   9.161   8.408   5.876
 8887SOL    HW128668   9.124   8.457 -16.277
 8887SOL    HW228669   9.125  19.359  16.906
 8888SOL     OW28670   8.408   3.747  -0.355
 8888SOL    HW128671   8.363   3.664  10.698
 8888SOL    HW228672   8.363   3.809  -0.297
 8889SOL     OW28673   4.232   1.923   5.694
 8889SOL    HW128674   4.271   1.988  16.791
 8889SOL    HW228675   4.162   1.884   5.746
 8890SOL     OW28676   9.566   0.657   3.996
 8890SOL    HW128677   9.489   0.608   3.967
 8890SOL    HW228678 -12.440   0.597  -7.056
 8891SOL     OW28679   2.831   0.802   2.898
 8891SOL    HW128680   2.799  11.826   2.809
 8891SOL    HW228681   2.926   0.800   2.889
 8892SOL     OW28682   7.649   1.876   8.197
 8892SOL    HW128683   7.738   1.878 -13.846
 8892SOL    HW228684   7.661   1.873   8.102
 8893SOL     OW28685   2.237   1.064   3.242
 8893SOL    HW128686   2.285   1.002   3.297
 8893SOL    HW228687   2.167  23.091   3.203
 8894SOL     OW28688   9.098   2.098   1.562
 8894SOL    HW128689   9.023   2.126   1.615
 8894SOL    HW228690   9.063   2.094   1.473
 8895SOL     OW28691   5.076   0.938   4.048
 8895SOL    HW128692   5.126   0.871  26.173
 8895SOL    HW228693   4.995   0.948  26.178
 8896SOL     OW28694   4.870  10.190   4.220
 8896SOL    HW128695   4.939  21.164  -6.807
 8896SOL    HW228696  38.035  10.274  -6.821
 8897SOL     OW28697   8.500   5.604   4.887
 8897SOL    HW128698   8.406  38.738  -6.149
 8897SOL    HW228699   8.514  -5.479  26.882
 8898SOL     OW28700   3.363   6.443  -1.309
 8898SOL    HW128701  14.450   6.408  -1.385
 8898SOL    HW228702   3.291   6.493  31.771
 8899SOL     OW28703   1.854   3.634   3.045
 8899SOL    HW128704  -9.238  25.793   3.033
 8899SOL    HW228705   1.944   3.665   3.044
 8900SOL     OW28706   2.278   2.461   3.542
 8900SOL    HW128707  -8.699   2.406   3.495
 8900SOL    HW228708   2.206   2.473  14.520
 8901SOL     OW28709   9.498   8.376  10.527
 8901SOL    HW128710   9.469   8.432  10.454
 8901SOL    HW228711   9.509   8.436 -22.518
 8902SOL     OW28712  10.228   7.641   3.248
 8902SOL    HW128713  -0.780   7.656  14.377
 8902SOL    HW228714  10.165  29.791   3.233
 8903SOL     OW28715   6.186   2.317   4.826
 8903SOL    HW128716   6.203   2.246  -6.277
 8903SOL    HW228717   6.257   2.310   4.889
 8904SOL     OW28718   3.651  10.280   4.813
 8904SOL    HW128719   3.726  10.253   4.866
 8904SOL    HW228720  25.717  10.209   4.751
 8905SOL     OW28721   8.801   1.365   6.733
 8905SOL    HW128722  -2.237  -9.615 -15.271
 8905SOL    HW228723   8.870   1.398  17.715
 8906SOL     OW28724   8.113  -0.046   7.461
 8906SOL    HW128725   8.119  22.076   7.376
 8906SOL    HW228726   8.020  10.970   7.470
 8907SOL     OW28727   2.166   1.825  13.841
 8907SOL    HW128728 -19.930   1.919  13.835
 8907SOL    HW228729   2.258  -9.224 -52.420
 8908SOL     OW28730   9.130   6.604   7.824
 8908SOL    HW128731   9.101   6.521   7.861
 8908SOL    HW228732   9.064  17.664   7.758
 8909SOL     OW28733   3.324  10.647   8.330
 8909SOL    HW128734   3.235  10.677   8.350
 8909SOL    HW228735   3.381  10.716   8.364
 8910SOL     OW28736   5.673   6.506  10.599
 8910SOL    HW128737   5.704   6.595  10.610
 8910SOL    HW228738  16.697   6.497  -0.535
 8911SOL     OW28739   5.094  -0.120   2.730
 8911SOL    HW128740  16.082  10.845   2.700
 8911SOL    HW228741   5.046  10.996   2.697
 8912SOL     OW28742   8.545   7.326   7.562
 8912SOL    HW128743   8.487   7.375   7.503
 8912SOL    HW228744   8.589   7.394   7.613
 8913SOL     OW28745   7.928  12.846   9.315
 8913SOL    HW128746   8.012   1.852  -1.738
 8913SOL    HW228747  -3.125  -9.230   9.410
 8914SOL     OW28748   0.021   2.967   9.547
 8914SOL    HW128749   0.101  25.088 -12.565
 8914SOL    HW228750  -0.042   2.976   9.476
 8915SOL     OW28751   7.466   6.165   0.824
 8915SOL    HW128752   7.504   6.132  11.782
 8915SOL    HW228753   7.529   6.229   0.856
 8916SOL     OW28754   4.509   3.812   5.158
 8916SOL    HW128755   4.545   3.820 -16.833
 8916SOL    HW228756  26.496   3.836   5.168
 8917SOL     OW28757   3.293  10.100   2.711
 8917SOL    HW128758   3.247  10.129   2.790
 8917SOL    HW228759   3.230  10.045   2.665
 8918SOL     OW28760   3.350   8.620   0.662
 8918SOL    HW128761   3.348  19.564  22.745
 8918SOL    HW228762   3.416   8.640   0.595
 8919SOL     OW28763   0.914   3.625   5.076
 8919SOL    HW128764   0.987   3.577 -28.004
 8919SOL    HW228765   0.901  14.625  -6.050
 8920SOL     OW28766   0.800  10.212   8.597
 8920SOL    HW128767   0.862  10.142   8.617
 8920SOL    HW228768   0.847  10.269  -2.504
 8921SOL     OW28769   1.110   9.124   1.356
 8921SOL    HW128770   1.104   9.215   1.385
 8921SOL    HW228771   1.173   9.126   1.285
 8922SOL     OW28772   1.576   4.533   1.344
 8922SOL    HW128773   1.563  -6.442   1.413
 8922SOL    HW228774  -9.425   4.582   1.271
 8923SOL     OW28775   7.261   7.281   9.669
 8923SOL    HW128776   7.232   7.340 -12.340
 8923SOL    HW228777   7.182  -3.777   9.619
 8924SOL     OW28778   6.613   0.871   1.931
 8924SOL    HW128779   6.536   0.817  -9.118
 8924SOL    HW228780  17.702 -10.182   1.851
 8925SOL     OW28781   0.097   6.561   7.348
 8925SOL    HW128782  22.250   6.525   7.397
 8925SOL    HW228783   0.093   6.508   7.268
 8926SOL     OW28784   6.160   0.357   7.370
 8926SOL    HW128785   6.128   0.374   7.459
 8926SOL    HW228786   6.139   0.265   7.354
 8927SOL     OW28787   3.446   9.849   0.673
 8927SOL    HW128788   3.389   9.815   0.742
 8927SOL    HW228789  25.565  -1.113  11.750
 8928SOL     OW28790   9.973   3.134   0.701
 8928SOL    HW128791   9.937   3.046   0.708
 8928SOL    HW228792  10.046   3.126   0.641
 8929SOL     OW28793   4.710   0.495   9.997
 8929SOL    HW128794 -17.324   0.468   9.917
 8929SOL    HW228795  15.702  44.732   9.971
 8930SOL     OW28796   8.503   2.292   7.312
 8930SOL    HW128797  19.452   2.280   7.341
 8930SOL    HW228798   8.553 -19.781  -3.646
 8931SOL     OW28799   8.494   1.074   5.910
 8931SOL    HW128800  -2.564   0.997   5.964
 8931SOL    HW228801   8.589   1.072  16.936
 8932SOL     OW28802   4.028   1.173   6.619
 8932SOL    HW128803   4.076   1.097   6.650
 8932SOL    HW228804   4.016  12.197   6.526
 8933SOL     OW28805   1.340   9.015  10.202
 8933SOL    HW128806   1.417   9.003  10.146
 8933SOL    HW228807   1.286   8.937  -0.854
 8934SOL     OW28808   1.912  10.079   2.944
 8934SOL    HW128809   1.857  10.080   3.023
 8934SOL    HW228810  -9.175  10.134  -8.158
 8935SOL     OW28811   2.835   2.846   8.624
 8935SOL    HW128812 -19.329   2.857   8.582
 8935SOL    HW228813  13.936   2.891  -2.474
 8936SOL     OW28814   2.332   2.253  10.236
 8936SOL    HW128815   2.350   2.341 -11.813
 8936SOL    HW228816   2.326   2.200  10.315
 8937SOL     OW28817  10.668   8.455   2.544
 8937SOL    HW128818  10.665  -2.522   2.616
 8937SOL    HW228819  10.631 -13.704   2.581
 8938SOL     OW28820   6.017   0.237   7.085
 8938SOL    HW128821   6.048   0.195   7.165
 8938SOL    HW228822   5.923  22.296  -3.958
 8939SOL     OW28823  -1.070   9.302   2.481
 8939SOL    HW128824  -0.989 -12.736  13.492
 8939SOL    HW228825  20.949   9.313   2.407
 8940SOL     OW28826   7.957   7.483   3.044
 8940SOL    HW128827   8.002   7.399   3.053
 8940SOL    HW228828   7.893   7.484   3.114
 8941SOL     OW28829   2.501  10.193   3.857
 8941SOL    HW128830  -8.572  10.145  14.972
 8941SOL    HW228831   2.592  10.163   3.849
 8942SOL     OW28832   7.880   7.224  11.863
 8942SOL    HW128833   7.928   7.154 -10.260
 8942SOL    HW228834   7.828   7.179  11.930
 8943SOL     OW28835   1.880   9.664   8.683
 8943SOL    HW128836   1.906   9.625  19.639
 8943SOL    HW228837   1.831   9.594  -2.312
 8944SOL     OW28838   3.768   3.591   6.986
 8944SOL    HW128839   3.813   3.671   7.014
 8944SOL    HW228840   3.676   3.615   6.984
 8945SOL     OW28841   8.800  10.800   6.014
 8945SOL    HW128842   8.738  10.844   6.072
 8945SOL    HW228843 -13.277  10.710   6.045
 8946SOL     OW28844   5.915   4.009   6.355
 8946SOL    HW128845   5.920 -29.061  -4.603
 8946SOL    HW228846   5.830 -29.153   6.358
 8947SOL     OW28847   9.441   6.322   7.941
 8947SOL    HW128848 -12.633   6.369  -3.015
 8947SOL    HW228849   9.491   6.242   7.954
 8948SOL     OW28850  10.161  10.837   5.046
 8948SOL    HW128851  10.126  10.751   5.070
 8948SOL    HW228852 -11.991  10.897   5.059
 8949SOL     OW28853   0.861   3.247   4.508
 8949SOL    HW128854 -10.137   3.331  15.568
 8949SOL    HW228855   0.767   3.263   4.521
 8950SOL     OW28856   4.914   7.415   7.196
 8950SOL    HW128857   4.905  -3.630   7.291
 8950SOL    HW228858   4.921  -3.531   7.178
 8951SOL     OW28859   7.979   0.166   8.167
 8951SOL    HW128860   8.000  11.119  -2.908
 8951SOL    HW228861   7.946  11.255   8.092
 8952SOL     OW28862   2.715   2.868   6.651
 8952SOL    HW128863   2.675   2.862 -15.341
 8952SOL    HW228864   2.772   2.944 -37.503
 8953SOL     OW28865  10.069   3.250   5.287
 8953SOL    HW128866  10.003   3.184   5.309
 8953SOL    HW228867  10.140   3.235  -5.691
 8954SOL     OW28868   0.487   1.903   3.327
 8954SOL    HW128869  11.529   1.981   3.271
 8954SOL    HW228870  11.609   1.906  -7.664
 8955SOL     OW28871   7.248   2.734   5.931
 8955SOL    HW128872  40.460  13.777   5.910
 8955SOL    HW228873   7.233   2.809   5.989
 8956SOL     OW28874   0.997   9.344   6.632
 8956SOL    HW128875   1.006   9.264   6.683
 8956SOL    HW228876   0.907   9.341  -4.441
 8957SOL     OW28877   8.368  11.432   6.346
 8957SOL    HW128878   8.305   0.401   6.275
 8957SOL    HW228879  19.451  11.517   6.350
 8958SOL     OW28880   1.405  11.657   2.403
 8958SOL    HW128881   1.325 -10.393  13.400
 8958SOL    HW228882   1.398   0.650   2.493
 8959SOL     OW28883  -0.728   6.865   3.214
 8959SOL    HW128884  21.358   6.961  14.249
 8959SOL    HW228885  -0.813   6.845  14.215
 8960SOL     OW28886   7.448  -0.381   0.197
 8960SOL    HW128887 -14.549  -0.399   0.152
 8960SOL    HW228888 -14.698  10.643   0.131
 8961SOL     OW28889   0.794   3.006   2.354
 8961SOL    HW128890   0.777   3.097   2.377
 8961SOL    HW228891   0.870   3.009   2.296
 8962SOL     OW28892   7.327   0.924   7.731
 8962SOL    HW128893   7.271   0.952  -3.237
 8962SOL    HW228894   7.290   0.841   7.701
 8963SOL     OW28895   5.865   7.179   9.940
 8963SOL    HW128896   5.897   7.220   9.859
 8963SOL    HW228897   5.842   7.252   9.997
 8964SOL     OW28898  -1.042   5.700   4.517
 8964SOL    HW128899  -1.079  16.752   4.429
 8964SOL    HW228900  21.000   5.771   4.569
 8965SOL     OW28901   0.636   3.119   3.053
 8965SOL    HW128902  11.606   3.175  -8.021
 8965SOL    HW228903 -10.323   3.162   3.026
 8966SOL     OW28904   3.995   4.135   7.096
 8966SOL    HW128905   4.084   4.158   7.122
 8966SOL    HW228906  15.036   4.132  40.119
 8967SOL     OW28907   1.949   9.051   4.291
 8967SOL    HW128908  13.048   9.019   4.359
 8967SOL    HW228909   1.862   9.028   4.323
 8968SOL     OW28910   9.335   8.874   0.537
 8968SOL    HW128911   9.418   8.875   0.585
 8968SOL    HW228912  -1.711   8.786   0.502
 8969SOL     OW28913   2.246   5.285  10.751
 8969SOL    HW128914   2.314   5.223  10.777
 8969SOL    HW228915   2.165  -5.791  10.788
 8970SOL     OW28916   5.100   0.989  10.344
 8970SOL    HW128917   5.102   1.071  -0.745
 8970SOL    HW228918   5.192   0.969  10.360
 8971SOL     OW28919   3.474   6.619   5.132
 8971SOL    HW128920   3.558   6.606   5.174
 8971SOL    HW228921   3.434   6.532  27.208
 8972SOL     OW28922   3.673   8.163   8.228
 8972SOL    HW128923   3.758  19.161  19.255
 8972SOL    HW228924   3.692   8.257   8.227
 8973SOL     OW28925   0.124   9.669   7.354
 8973SOL    HW128926   0.097   9.707   7.270
 8973SOL    HW228927  11.240  20.761   7.380
 8974SOL     OW28928   8.404   1.024  10.192
 8974SOL    HW128929   8.481   0.968  10.198
 8974SOL    HW228930   8.421   1.094  21.295
 8975SOL     OW28931   9.843  10.610   9.450
 8975SOL    HW128932 -34.244 -22.454   9.416
 8975SOL    HW228933   9.827  -0.395  20.578
 8976SOL     OW28934   6.741   4.148   7.110
 8976SOL    HW128935  28.871   4.226   7.092
 8976SOL    HW228936   6.686   4.136   7.033
 8977SOL     OW28937   9.700   5.218   2.193
 8977SOL    HW128938   9.668   5.238   2.280
 8977SOL    HW228939  31.796   5.124   2.194
 8978SOL     OW28940   0.321   1.884   5.379
 8978SOL    HW128941   0.349  -9.100   5.452
 8978SOL    HW228942   0.271  23.893   5.420
 8979SOL     OW28943   4.777   6.766   7.827
 8979SOL    HW128944   4.768   6.682   7.783
 8979SOL    HW228945   4.846   6.753   7.891
 8980SOL     OW28946   3.645   9.931   9.495
 8980SOL    HW128947   3.640  10.017   9.455
 8980SOL    HW228948   3.724   9.935   9.549
 8981SOL     OW28949   8.835  13.335   6.253
 8981SOL    HW128950   8.837 -30.883   6.178
 8981SOL    HW228951   8.849  -8.657   6.215
 8982SOL     OW28952   3.024   5.820   3.820
 8982SOL    HW128953  13.995  -5.213   3.753
 8982SOL    HW228954   3.009   5.896   3.876
 8983SOL     OW28955   4.239   1.848   1.836
 8983SOL    HW128956  15.260   1.854   1.743
 8983SOL    HW228957  15.365  12.928   1.846
 8984SOL     OW28958   7.745   0.731   5.700
 8984SOL    HW128959   7.652 -10.313  16.715
 8984SOL    HW228960   7.785   0.786   5.633
 8985SOL     OW28961   3.849   6.295   0.770
 8985SOL    HW128962   3.781  28.344   0.710
 8985SOL    HW228963   3.823  50.543   0.793
 8986SOL     OW28964   2.690   0.747   0.265
 8986SOL    HW128965   2.715   0.656   0.286
 8986SOL    HW228966 -19.364   0.797   0.343
 8987SOL     OW28967   1.834  11.186   3.624
 8987SOL    HW128968   1.849   0.240  14.655
 8987SOL    HW228969  12.882   0.112   3.535
 8988SOL     OW28970   7.418   7.445   0.876
 8988SOL    HW128971   7.464  18.562   0.844
 8988SOL    HW228972  -3.713  29.551   0.883
 8989SOL     OW28973   9.526   2.823   7.092
 8989SOL    HW128974  20.580   2.907   7.136
 8989SOL    HW228975   9.440  13.834   7.122
 8990SOL     OW28976   8.117   3.673   3.612
 8990SOL    HW128977   8.115  -7.418   3.531
 8990SOL    HW228978   8.041  -7.308   3.605
 8991SOL     OW28979   8.444  -0.521   2.248
 8991SOL    HW128980  -2.662  21.520  -8.734
 8991SOL    HW228981   8.463  10.604  13.327
 8992SOL     OW28982   3.397   5.282   5.247
 8992SOL    HW128983   3.374  16.410   5.278
 8992SOL    HW228984  -7.724   5.248   5.211
 8993SOL     OW28985  -0.104   8.823   5.660
 8993SOL    HW128986  22.000  19.934   5.719
 8993SOL    HW228987  -0.027 -13.312   5.656
 8994SOL     OW28988   9.478   5.474  10.461
 8994SOL    HW128989  20.505   5.401  10.401
 8994SOL    HW228990   9.508   5.434  10.543
 8995SOL     OW28991   1.755   5.857   4.381
 8995SOL    HW128992   1.850   5.855   4.397
 8995SOL    HW228993   1.747   5.867   4.286
 8996SOL     OW28994   6.217   9.301  -0.870
 8996SOL    HW128995   6.245   9.317  21.119
 8996SOL    HW228996  -4.913   9.270  10.161
 8997SOL     OW28997   9.795   2.852   1.856
 8997SOL    HW128998   9.755  -8.273   1.843
 8997SOL    HW228999  -1.247  -8.174   1.950
 8998SOL     OW29000   2.928   6.386   5.228
 8998SOL    HW129001   2.912   6.323 -39.000
 8998SOL    HW229002   2.864   6.362   5.296
 8999SOL     OW29003   6.086   6.962   6.279
 8999SOL    HW129004   6.046   6.952   6.365
 8999SOL    HW229005   6.068   6.880 -15.846
 9000SOL     OW29006   4.275   2.543   8.788
 9000SOL    HW129007   4.353  13.537   8.756
 9000SOL    HW229008   4.206   2.477  30.866
 9001SOL     OW29009   4.144   2.328   7.272
 9001SOL    HW129010  37.178   2.358  18.280
 9001SOL    HW229011   4.155  13.412   7.357
 9002SOL     OW29012   2.582  11.933   7.028
 9002SOL    HW129013   2.609  11.841   7.030
 9002SOL    HW229014 -19.422 -10.101   6.991
 9003SOL     OW29015   0.197   8.882   7.726
 9003SOL    HW129016  11.198   8.808   7.679
 9003SOL    HW229017   0.124   8.941  -3.298
 9004SOL     OW29018   9.867   4.922   7.283
 9004SOL    HW129019 -12.220   5.000  18.267
 9004SOL    HW229020   9.880   4.957   7.371
 9005SOL     OW29021   9.798   8.341   3.137
 9005SOL    HW129022   9.750 -13.812 -18.907
 9005SOL    HW229023   9.847  41.424 -19.017
 9006SOL     OW29024   8.433   7.365   7.831
 9006SOL    HW129025   8.393  -3.686  18.785
 9006SOL    HW229026   8.495   7.293   7.839
 9007SOL     OW29027   5.023   6.079   6.524
 9007SOL    HW129028   4.931   6.105   6.512
 9007SOL    HW229029   5.021   5.984   6.521
 9008SOL     OW29030   1.392  10.603   5.419
 9008SOL    HW129031   1.461 -22.530   5.484
 9008SOL    HW229032   1.311  21.644  -5.570
 9009SOL     OW29033   8.389   5.548   9.161
 9009SOL    HW129034   8.315   5.575   9.216
 9009SOL    HW229035   8.361  16.605   9.072
 9010SOL     OW29036   9.601   5.092   7.477
 9010SOL    HW129037   9.611   4.999  18.535
 9010SOL    HW229038   9.604   5.099   7.382
 9011SOL     OW29039   6.656   7.711   0.843
 9011SOL    HW129040   6.735  -3.311  11.932
 9011SOL    HW229041   6.592  -3.355   0.909
 9012SOL     OW29042   9.160   5.079  10.192
 9012SOL    HW129043   9.246   5.093  21.193
 9012SOL    HW229044   9.140   4.987  -0.865
 9013SOL     OW29045   2.735   5.532   3.123
 9013SOL    HW129046  13.717  -5.463  14.224
 9013SOL    HW229047   2.697   5.549   3.037
 9014SOL     OW29048   5.906   1.201   2.767
 9014SOL    HW129049  17.032   1.167  -8.294
 9014SOL    HW229050   5.852   1.123   2.782
 9015SOL     OW29051   0.075   3.370  10.024
 9015SOL    HW129052   0.145  14.474  10.016
 9015SOL    HW229053  22.151  -7.689  10.118
 9016SOL     OW29054  -0.998   4.063   6.167
 9016SOL    HW129055  21.066   4.007   6.091
 9016SOL    HW229056  -0.958  15.182   6.132
 9017SOL     OW29057   1.707   7.438   1.367
 9017SOL    HW129058   1.642  29.586   1.386
 9017SOL    HW229059   1.663   7.382  34.422
 9018SOL     OW29060   7.049   8.188   3.268
 9018SOL    HW129061   7.122  -2.790  -7.780
 9018SOL    HW229062   7.080   8.123  14.370
 9019SOL     OW29063   3.125   7.133   3.502
 9019SOL    HW129064 -30.024  -3.945   3.420
 9019SOL    HW229065  25.236   7.220 -18.602
 9020SOL     OW29066   8.233   2.109  10.308
 9020SOL    HW129067   8.201   2.097  -0.642
 9020SOL    HW229068   8.283   2.029  10.289
 9021SOL     OW29069   9.575   4.613   6.299
 9021SOL    HW129070   9.649   4.673  17.351
 9021SOL    HW229071   9.616   4.529  39.394
 9022SOL     OW29072   6.301   6.178   9.241
 9022SOL    HW129073   6.324   6.244  20.346
 9022SOL    HW229074   6.379   6.169   9.187
 9023SOL     OW29075   2.518  10.104   1.940
 9023SOL    HW129076 -19.555  10.111  13.075
 9023SOL    HW229077 -19.560  10.010   1.922
 9024SOL     OW29078   9.778   4.250   6.813
 9024SOL    HW129079   9.763   4.323   6.753
 9024SOL    HW229080  20.845   4.178   6.756
 9025SOL     OW29081   6.304   7.451   9.535
 9025SOL    HW129082   6.270   7.439   9.624
 9025SOL    HW229083  17.321   7.542   9.514
 9026SOL     OW29084   9.741   8.491   0.455
 9026SOL    HW129085   9.750   8.422   0.521
 9026SOL    HW229086   9.786   8.567  11.533
 9027SOL     OW29087   9.600   2.263   8.260
 9027SOL    HW129088 -23.496   2.230  19.213
 9027SOL    HW229089   9.587   2.357  19.287
 9028SOL     OW29090   6.389  12.132   0.622
 9028SOL    HW129091   6.298  -9.915   0.618
 9028SOL    HW229092  17.441  12.107   0.713
 9029SOL     OW29093   8.041  10.966   6.593
 9029SOL    HW129094   8.049  10.947   6.686
 9029SOL    HW229095   7.950  10.996   6.583
 9030SOL     OW29096  -0.507   9.801   4.126
 9030SOL    HW129097  -0.487   9.895   4.117
 9030SOL    HW229098  10.479   9.795   4.205
 9031SOL     OW29099   9.073   0.353   6.814
 9031SOL    HW129100   9.168  11.391   6.806
 9031SOL    HW229101   9.048   0.441  -4.253
 9032SOL     OW29102   1.678   8.650   1.655
 9032SOL    HW129103   1.724   8.710   1.596
 9032SOL    HW229104   1.659   8.703   1.732
 9033SOL     OW29105   4.780   3.126   8.651
 9033SOL    HW129106   4.869  14.150   8.682
 9033SOL    HW229107   4.768   3.220  30.737
 9034SOL     OW29108   5.533   9.524   9.804
 9034SOL    HW129109   5.553   9.600   9.749
 9034SOL    HW229110   5.564   9.449   9.754
 9035SOL     OW29111   4.265   0.180   9.270
 9035SOL    HW129112   4.259  11.292   9.333
 9035SOL    HW229113   4.269  11.141   9.324
 9036SOL     OW29114   8.561   0.191   7.263
 9036SOL    HW129115   8.494  11.189   7.317
 9036SOL    HW229116  19.569   0.281   7.252
 9037SOL     OW29117   1.358   8.980   7.097
 9037SOL    HW129118   1.440 -13.081   7.143
 9037SOL    HW229119   1.376   8.898   7.049
 9038SOL     OW29120   6.616   0.590   1.550
 9038SOL    HW129121   6.578   0.675   1.568
 9038SOL    HW229122   6.550  11.566   1.579
 9039SOL     OW29123   0.194  10.029   7.337
 9039SOL    HW129124   0.237  10.043   7.421
 9039SOL    HW229125   0.204  -0.927   7.291
 9040SOL     OW29126   2.517  10.946   3.331
 9040SOL    HW129127   2.529 -33.124 -18.782
 9040SOL    HW229128   2.446 -22.209   3.278
 9041SOL     OW29129   5.684   9.776   0.205
 9041SOL    HW129130  27.726   9.813   0.285
 9041SOL    HW229131  16.771   9.850  33.284
 9042SOL     OW29132   1.570   3.585   4.915
 9042SOL    HW129133   1.506   3.652   4.891
 9042SOL    HW229134   1.539   3.551  -6.040
 9043SOL     OW29135   0.166   1.702  10.183
 9043SOL    HW129136   0.177   1.675  -0.948
 9043SOL    HW229137   0.122   1.786 -22.941
 9044SOL     OW29138   4.869   0.259   6.711
 9044SOL    HW129139  -6.255   0.214   6.703
 9044SOL    HW229140   4.847   0.352   6.717
 9045SOL     OW29141   7.676   3.466  10.336
 9045SOL    HW129142   7.676  14.418  10.375
 9045SOL    HW229143  29.837   3.470  10.288
 9046SOL     OW29144   4.439   2.855   1.599
 9046SOL    HW129145   4.491 -30.340  -9.466
 9046SOL    HW229146   4.408   2.835   1.687
 9047SOL     OW29147  11.041   1.945  10.223
 9047SOL    HW129148  10.953   1.919  10.196
 9047SOL    HW229149  11.045   1.920  10.315
 9048SOL     OW29150   5.057   8.564  12.289
 9048SOL    HW129151  -5.907   8.622   1.259
 9048SOL    HW229152   5.091 -13.602  -9.770
 9049SOL     OW29153   7.692   4.544   0.895
 9049SOL    HW129154   7.748 -17.603   0.857
 9049SOL    HW229155   7.675   4.514   0.985
 9050SOL     OW29156   9.527   3.526   3.777
 9050SOL    HW129157   9.570   3.604 -18.337
 9050SOL    HW229158   9.542   3.531 -18.207
 9051SOL     OW29159  11.169   9.480   8.153
 9051SOL    HW129160  11.188  20.536   8.246
 9051SOL    HW229161   0.130   9.385   8.145
 9052SOL     OW29162   2.695  -0.535   7.110
 9052SOL    HW129163   2.680  10.504   7.015
 9052SOL    HW229164  13.813  21.597   7.122
 9053SOL     OW29165   7.580   6.001   8.234
 9053SOL    HW129166   7.563   6.051   8.314
 9053SOL    HW229167  18.534   5.964 -24.908
 9054SOL     OW29168  11.260   8.226  10.361
 9054SOL    HW129169  11.201   8.267 -22.695
 9054SOL    HW229170   0.247   8.143 -22.716
 9055SOL     OW29171   9.232   7.531   9.399
 9055SOL    HW129172  -1.855   7.463   9.349
 9055SOL    HW229173   9.163   7.581   9.442
 9056SOL     OW29174  10.370   4.062  10.476
 9056SOL    HW129175  10.310  26.083 -33.637
 9056SOL    HW229176  10.446   4.008  10.455
 9057SOL     OW29177   7.436   9.508   7.205
 9057SOL    HW129178 -25.724  -1.470   7.145
 9057SOL    HW229179 -14.555   9.495   7.170
 9058SOL     OW29180  10.765   9.303   2.939
 9058SOL    HW129181  10.765   9.231   3.001
 9058SOL    HW229182  10.850   9.345   2.951
 9059SOL     OW29183   1.380   8.464   3.380
 9059SOL    HW129184   1.306   8.420   3.336
 9059SOL    HW229185   1.451   8.400   3.377
 9060SOL     OW29186   7.986   9.406   7.823
 9060SOL    HW129187   7.938   9.344  -3.272
 9060SOL    HW229188  19.012   9.373  -3.127
 9061SOL     OW29189  10.301   7.535   0.677
 9061SOL    HW129190  10.395  -3.483   0.674
 9061SOL    HW229191  10.284   7.489  11.634
 9062SOL     OW29192   3.435   2.480   1.141
 9062SOL    HW129193   3.397   2.430   1.069
 9062SOL    HW229194   3.382   2.457  -9.823
 9063SOL     OW29195   2.072   4.297  10.638
 9063SOL    HW129196   2.024   4.255  -0.472
 9063SOL    HW229197   2.148   4.337  10.595
 9064SOL     OW29198   8.641   9.634   8.772
 9064SOL    HW129199  -2.329 -12.511   8.771
 9064SOL    HW229200   8.660  -1.349   8.697
 9065SOL     OW29201   0.154   7.051  -0.355
 9065SOL    HW129202   0.079   7.062  -0.297
 9065SOL    HW229203   0.173   6.958  10.687
 9066SOL     OW29204   4.652   4.801  11.046
 9066SOL    HW129205  -6.466  -6.184 -22.065
 9066SOL    HW229206  -6.366 -17.276  -0.086
 9067SOL     OW29207   6.077   6.323   0.035
 9067SOL    HW129208   6.044   6.352  22.029
 9067SOL    HW229209  17.080   6.235  11.085
 9068SOL     OW29210   8.558   5.910   7.914
 9068SOL    HW129211   8.597   5.855   7.983
 9068SOL    HW229212   8.624   5.977   7.897
 9069SOL     OW29213   1.326   4.908   6.853
 9069SOL    HW129214   1.268  -6.097   6.784
 9069SOL    HW229215   1.271   4.905  -4.109
 9070SOL     OW29216   4.171   8.194   2.256
 9070SOL    HW129217   4.259   8.188   2.219
 9070SOL    HW229218   4.167  19.163   2.321
 9071SOL     OW29219  11.743   6.123   8.545
 9071SOL    HW129220  11.763   6.206  -2.451
 9071SOL    HW229221 -10.380   6.149  -2.576
 9072SOL     OW29222   9.489   9.339   8.105
 9072SOL    HW129223  -1.524   9.430   8.115
 9072SOL    HW229224   9.474  20.348  30.274
 9073SOL     OW29225   1.356   4.442   8.896
 9073SOL    HW129226  23.483   4.360   8.886
 9073SOL    HW229227  34.471   4.457   8.990
 9074SOL     OW29228   7.796   9.371   4.932
 9074SOL    HW129229  -3.180   9.314   4.888
 9074SOL    HW229230   7.847   9.417   4.999
 9075SOL     OW29231   9.290   9.598   0.749
 9075SOL    HW129232   9.368   9.609   0.804
 9075SOL    HW229233   9.294   9.506   0.721
 9076SOL     OW29234   3.394   8.299  10.403
 9076SOL    HW129235   3.331   8.295  10.475
 9076SOL    HW229236   3.369   8.227  21.385
 9077SOL     OW29237   8.332   8.448   1.630
 9077SOL    HW129238  30.413  19.582   1.643
 9077SOL    HW229239   8.244  30.509  -9.441
 9078SOL     OW29240   0.693   5.592  11.013
 9078SOL    HW129241   0.604   5.627  11.009
 9078SOL    HW229242   0.710  27.657  11.106
 9079SOL     OW29243   4.785   1.011   8.017
 9079SOL    HW129244   4.793   1.073   7.945
 9079SOL    HW229245  37.830  12.084   8.069
 9080SOL     OW29246   8.378   8.347  11.807
 9080SOL    HW129247  -2.668   8.425 -10.217
 9080SOL    HW229248  -2.749  19.348  11.810
 9081SOL     OW29249   1.593   0.007   4.295
 9081SOL    HW129250  12.597   0.029   4.381
 9081SOL    HW229251   1.618   0.091   4.258
 9082SOL     OW29252  -0.422   4.958   6.648
 9082SOL    HW129253  10.704   4.976   6.612
 9082SOL    HW229254  -0.407  27.020  17.780
 9083SOL     OW29255   7.410   9.996   9.484
 9083SOL    HW129256  -3.561  10.047  20.482
 9083SOL    HW229257   7.412   9.911  20.479
 9084SOL     OW29258   7.443   4.916   1.657
 9084SOL    HW129259 -25.729  15.879  -9.404
 9084SOL    HW229260   7.445  27.047   1.576
 9085SOL     OW29261   6.758   7.095   1.192
 9085SOL    HW129262   6.721   7.012   1.160
 9085SOL    HW229263   6.774   7.146   1.113
 9086SOL     OW29264   0.710   7.822   1.854
 9086SOL    HW129265   0.719  -3.305   1.815
 9086SOL    HW229266   0.616  -3.205  -9.176
 9087SOL     OW29267   2.757   4.370  10.370
 9087SOL    HW129268   2.769   4.321  21.329
 9087SOL    HW229269 -19.235 -17.677  10.393
 9088SOL     OW29270   7.161   1.873   6.139
 9088SOL    HW129271   7.175   1.967   6.149
 9088SOL    HW229272  18.256  34.952   6.206
 9089SOL     OW29273   4.646   7.562   9.566
 9089SOL    HW129274   4.586   7.627  20.570
 9089SOL    HW229275  15.639   7.479   9.558
 9090SOL     OW29276   2.398   0.362   0.530
 9090SOL    HW129277   2.383   0.453  33.625
 9090SOL    HW229278   2.315   0.319   0.510
 9091SOL     OW29279   1.060   2.183   8.459
 9091SOL    HW129280   0.994   2.247  19.524
 9091SOL    HW229281   1.010   2.103  19.480
 9092SOL     OW29282   1.843   6.448   8.535
 9092SOL    HW129283   1.855   6.511   8.606
 9092SOL    HW229284   1.748  17.473   8.531
 9093SOL     OW29285   7.356   7.590   8.535
 9093SOL    HW129286   7.283   7.534   8.511
 9093SOL    HW229287   7.362  29.662   8.631
 9094SOL     OW29288   9.602   2.381   5.082
 9094SOL    HW129289   9.518 -19.745   5.078
 9094SOL    HW229290 -23.478   2.369   4.995
 9095SOL     OW29291   8.120   3.159  -0.070
 9095SOL    HW129292  -2.999  36.326  21.984
 9095SOL    HW229293   8.171   3.154  -0.151
 9096SOL     OW29294   8.307   9.698   8.056
 9096SOL    HW129295   8.320 -12.338   8.141
 9096SOL    HW229296  41.478  -1.421   8.061
 9097SOL     OW29297  10.673   5.470  11.317
 9097SOL    HW129298  10.605 -16.637 -10.700
 9097SOL    HW229299  10.624   5.508  11.244
 9098SOL     OW29300   8.985   0.359   4.898
 9098SOL    HW129301   9.050   0.429   4.910
 9098SOL    HW229302   9.030   0.294   4.844
 9099SOL     OW29303   8.175   1.097   1.035
 9099SOL    HW129304  30.228   1.123   0.947
 9099SOL    HW229305   8.235   1.024   1.022
 9100SOL     OW29306   8.755   1.007  10.254
 9100SOL    HW129307   8.797  12.037  10.169
 9100SOL    HW229308   8.739   1.101  10.263
 9101SOL     OW29309   0.343   5.902   6.538
 9101SOL    HW129310   0.407  -5.174  17.517
 9101SOL    HW229311   0.335  -5.045   6.512
 9102SOL     OW29312   6.573   3.779   9.961
 9102SOL    HW129313   6.566   3.684   9.973
 9102SOL    HW229314   6.613   3.789 -12.204
 9103SOL     OW29315   4.181   8.453   2.010
 9103SOL    HW129316   4.126   8.440  -9.107
 9103SOL    HW229317   4.232   8.372  13.056
 9104SOL     OW29318   2.039   8.303   3.960
 9104SOL    HW129319   2.074  19.413   4.015
 9104SOL    HW229320   2.112   8.243   3.950
 9105SOL     OW29321   0.504   0.792   7.699
 9105SOL    HW129322   0.464   0.802   7.613
 9105SOL    HW229323   0.433   0.759  18.794
 9106SOL     OW29324   8.776   6.460   1.389
 9106SOL    HW129325   8.834   6.396  12.471
 9106SOL    HW229326   8.825  17.530   1.313
 9107SOL     OW29327   1.439  10.456   8.197
 9107SOL    HW129328   1.376  -0.526   8.240
 9107SOL    HW229329   1.431  10.477   8.104
 9108SOL     OW29330   1.726   3.600   3.287
 9108SOL    HW129331  34.872   3.589   3.196
 9108SOL    HW229332   1.731 -29.425   3.303
 9109SOL     OW29333   3.739   7.503   3.455
 9109SOL    HW129334   3.815   7.473  14.544
 9109SOL    HW229335  14.809 -14.572   3.364
 9110SOL     OW29336   1.572   4.272   6.289
 9110SOL    HW129337   1.535   4.346  -4.702
 9110SOL    HW229338  -9.525   4.262   6.213
 9111SOL     OW29339   9.017  10.167   0.645
 9111SOL    HW129340 -13.087  10.220   0.569
 9111SOL    HW229341  -1.954  10.109   0.612
 9112SOL     OW29342   4.842   3.693   5.479
 9112SOL    HW129343   4.789 -40.500   5.550
 9112SOL    HW229344   4.929  -7.335   5.517
 9113SOL     OW29345   4.100   9.726  11.017
 9113SOL    HW129346   4.023   9.769 -22.138
 9113SOL    HW229347   4.141   9.793 -11.007
 9114SOL     OW29348   2.855   6.886   4.344
 9114SOL    HW129349  24.888  -4.237   4.342
 9114SOL    HW229350  13.973  28.948   4.396
 9115SOL     OW29351   0.336   1.806   8.038
 9115SOL    HW129352   0.315   1.788   8.129
 9115SOL    HW229353   0.251  23.896   7.995
 9116SOL     OW29354   2.270   3.586   4.992
 9116SOL    HW129355  24.422   3.646   5.001
 9116SOL    HW229356  24.284   3.617 -39.103
 9117SOL     OW29357   2.860   8.758  10.511
 9117SOL    HW129358   2.946  19.791  10.472
 9117SOL    HW229359  -8.239   8.716  10.448
 9118SOL     OW29360   9.710  10.002   2.576
 9118SOL    HW129361   9.661  10.034   2.652
 9118SOL    HW229362   9.799   9.990   2.609
 9119SOL     OW29363   0.359   3.661   1.266
 9119SOL    HW129364   0.344   3.748   1.303
 9119SOL    HW229365   0.445   3.667   1.225
 9120SOL     OW29366   4.187   9.463   2.485
 9120SOL    HW129367   4.169   9.497   2.573
 9120SOL    HW229368   4.277   9.492   2.466
 9121SOL     OW29369   7.933   7.430   4.180
 9121SOL    HW129370 -14.214   7.363   4.174
 9121SOL    HW229371  -3.152   7.512   4.160
 9122SOL     OW29372   0.612   5.949  12.711
 9122SOL    HW129373   0.561   5.869 -31.434
 9122SOL    HW229374   0.548  17.053   1.642
 9123SOL     OW29375   2.525   4.667   6.783
 9123SOL    HW129376   2.521   4.760   6.803
 9123SOL    HW229377   2.452   4.629   6.832
 9124SOL     OW29378   0.947   5.288   9.376
 9124SOL    HW129379   0.982   5.254  -1.746
 9124SOL    HW229380 -10.063   5.226   9.442
 9125SOL     OW29381   8.377   8.735   8.403
 9125SOL    HW129382  -2.596   8.668   8.418
 9125SOL    HW229383   8.397   8.804  19.506
 9126SOL     OW29384   1.020  10.053   8.666
 9126SOL    HW129385 -10.078 -12.102  -2.370
 9126SOL    HW229386  23.071  32.187  -2.301
 9127SOL     OW29387  11.839   1.926  10.533
 9127SOL    HW129388   0.785   1.837  10.501
 9127SOL    HW229389   0.712   1.961  10.549
 9128SOL     OW29390   6.787   7.759   0.140
 9128SOL    HW129391   6.722  -3.274   0.210
 9128SOL    HW229392  17.870   7.675   0.155
 9129SOL     OW29393   6.102   3.839   0.001
 9129SOL    HW129394   6.092   3.917  77.223
 9129SOL    HW229395   6.055   3.861  33.200
 9130SOL     OW29396   8.007   5.241   6.275
 9130SOL    HW129397   8.074   5.174   6.294
 9130SOL    HW229398   7.933   5.217 -26.788
 9131SOL     OW29399   3.585   0.170   1.612
 9131SOL    HW129400   3.608   0.085  23.730
 9131SOL    HW229401  14.613   0.151   1.519
 9132SOL     OW29402  10.145   8.202   3.830
 9132SOL    HW129403 -34.094   8.234  14.909
 9132SOL    HW229404 -11.930   8.245   3.744
 9133SOL     OW29405   1.259   3.567   8.431
 9133SOL    HW129406   1.191   3.619   8.474
 9133SOL    HW229407   1.284   3.617  19.393
 9134SOL     OW29408  10.903   9.508   8.785
 9134SOL    HW129409  -0.061  -1.553   8.839
 9134SOL    HW229410  10.894  31.513   8.726
 9135SOL     OW29411   2.489   6.917   2.811
 9135SOL    HW129412   2.488   6.872   2.726
 9135SOL    HW229413   2.408   6.889   2.854
 9136SOL     OW29414   7.946   9.383   1.944
 9136SOL    HW129415   7.875   9.390   2.008
 9136SOL    HW229416   7.993   9.303   1.968
 9137SOL     OW29417   8.903   9.247   3.240
 9137SOL    HW129418  -2.070 -12.867  -7.741
 9137SOL    HW229419   8.850   9.171   3.216
 9138SOL     OW29420   3.092   0.634   8.847
 9138SOL    HW129421  14.039   0.638   8.873
 9138SOL    HW229422   3.090   0.593   8.760
 9139SOL     OW29423   2.609  10.290   2.537
 9139SOL    HW129424  35.678  -0.689   2.483
 9139SOL    HW229425   2.545  21.296   2.600
 9140SOL     OW29426   0.406   5.595   3.764
 9140SOL    HW129427   0.372  -5.503  -7.343
 9140SOL    HW229428   0.424   5.677   3.718
 9141SOL     OW29429   0.536  10.742   1.757
 9141SOL    HW129430   0.477 -11.263   1.766
 9141SOL    HW229431   0.612  10.777   1.710
 9142SOL     OW29432   3.349  10.720   1.448
 9142SOL    HW129433   3.288  -0.391  -9.610
 9142SOL    HW229434   3.336  10.782   1.377
 9143SOL     OW29435  11.001   6.380   9.524
 9143SOL    HW129436  -0.018   6.430 -12.634
 9143SOL    HW229437  10.943   6.436   9.574
 9144SOL     OW29438   9.232   4.663   3.943
 9144SOL    HW129439   9.251   4.744   3.896
 9144SOL    HW229440   9.143   4.641   3.918
 9145SOL     OW29441   9.985  -0.563  -0.450
 9145SOL    HW129442  20.936  21.480  10.583
 9145SOL    HW229443  -1.021  -0.595  10.673
 9146SOL     OW29444   1.805   5.937  10.667
 9146SOL    HW129445   1.853   5.906  10.591
 9146SOL    HW229446   1.872  -5.068  10.726
 9147SOL     OW29447  11.158   4.057   9.615
 9147SOL    HW129448  11.157   3.971   9.658
 9147SOL    HW229449   0.194   4.102   9.653
 9148SOL     OW29450   1.332   4.777   2.206
 9148SOL    HW129451  -9.726  -6.307   2.123
 9148SOL    HW229452   1.383   4.714   2.256
 9149SOL     OW29453   2.580   5.913   4.314
 9149SOL    HW129454  -8.479  -5.219   4.328
 9149SOL    HW229455   2.581   5.951  26.481
 9150SOL     OW29456  11.111   8.970   1.601
 9150SOL    HW129457   0.032  20.020  -9.525
 9150SOL    HW229458  11.168  -1.993   1.611
 9151SOL     OW29459   6.419   2.469   9.565
 9151SOL    HW129460   6.344   2.526   9.584
 9151SOL    HW229461 -15.588   2.507  20.654
 9152SOL     OW29462   7.008   0.957   2.712
 9152SOL    HW129463   7.028  12.090   2.705
 9152SOL    HW229464   6.966 -10.092  24.876
 9153SOL     OW29465  13.067   4.567   3.856
 9153SOL    HW129466  -8.999   4.487   3.908
 9153SOL    HW229467 -19.963   4.596   3.834
 9154SOL     OW29468  12.267   5.148   5.199
 9154SOL    HW129469  -9.821   5.190   5.113
 9154SOL    HW229470  12.310  16.255   5.254
 9155SOL     OW29471   1.859   7.558   1.958
 9155SOL    HW129472   1.810   7.549  -9.000
 9155SOL    HW229473   1.795  18.582  -9.150
 9156SOL     OW29474   3.737   2.124   2.938
 9156SOL    HW129475   3.792   2.046   2.934
 9156SOL    HW229476  -7.362   2.115   2.863
 9157SOL     OW29477   2.320   3.847   3.112
 9157SOL    HW129478   2.389   3.855   3.177
 9157SOL    HW229479   2.304  25.832   3.105
 9158SOL     OW29480   7.533   7.268   7.749
 9158SOL    HW129481   7.622   7.234   7.734
 9158SOL    HW229482   7.478   7.190  29.833
 9159SOL     OW29483   0.331   9.525   3.824
 9159SOL    HW129484   0.294   9.444   3.861
 9159SOL    HW229485   0.263   9.590   3.836
 9160SOL     OW29486  10.501   2.271   5.396
 9160SOL    HW129487  -0.568   2.311   5.314
 9160SOL    HW229488 -22.563  57.395   5.368
 9161SOL     OW29489   1.889   1.143   9.546
 9161SOL    HW129490  12.877   1.140 -12.614
 9161SOL    HW229491 -31.286   1.190   9.608
 9162SOL     OW29492   4.144   6.942  11.585
 9162SOL    HW129493  26.207   6.882  11.512
 9162SOL    HW229494   4.058   6.982 -21.516
 9163SOL     OW29495   6.858   1.935   0.111
 9163SOL    HW129496  -4.174   1.851   0.155
 9163SOL    HW229497 -15.235   1.998   0.182
 9164SOL     OW29498   0.470   5.959   7.991
 9164SOL    HW129499 -10.543  -5.034   7.911
 9164SOL    HW229500  22.455   5.974   7.996
 9165SOL     OW29501   8.782  10.835   7.800
 9165SOL    HW129502   8.811  -0.127  18.889
 9165SOL    HW229503   8.854  10.773   7.810
 9166SOL     OW29504   4.447   5.101   6.589
 9166SOL    HW129505   4.396   5.028  -4.415
 9166SOL    HW229506   4.399   5.179  17.656
 9167SOL     OW29507   5.771   7.894  10.575
 9167SOL    HW129508   5.832   7.931 -11.440
 9167SOL    HW229509   5.828   7.856  10.507
 9168SOL     OW29510   8.994   8.231   1.652
 9168SOL    HW129511   9.002   8.136   1.653
 9168SOL    HW229512   9.073  -2.777   1.697
 9169SOL     OW29513  10.669   5.128   4.763
 9169SOL    HW129514  10.708   5.044  15.823
 9169SOL    HW229515  10.687   5.183 -17.239
 9170SOL     OW29516   9.392  10.557   4.235
 9170SOL    HW129517   9.353  10.517  15.197
 9170SOL    HW229518   9.381  10.651   4.223
 9171SOL     OW29519  10.553   5.373   6.764
 9171SOL    HW129520  10.575   5.304  -4.212
 9171SOL    HW229521  10.631   5.380  -4.330
 9172SOL     OW29522   8.003   2.829   2.906
 9172SOL    HW129523   7.981   2.789   2.822
 9172SOL    HW229524   8.079   2.885  -8.153
 9173SOL     OW29525   6.214   9.486   1.933
 9173SOL    HW129526   6.302  20.529   1.895
 9173SOL    HW229527  17.252  -1.634   1.984
 9174SOL     OW29528   9.082   1.257   4.341
 9174SOL    HW129529  -1.882  12.237   4.341
 9174SOL    HW229530   9.107   1.327   4.281
 9175SOL     OW29531   4.795   5.803   1.879
 9175SOL    HW129532   4.755  -5.153   1.903
 9175SOL    HW229533   4.720   5.744   1.864
 9176SOL     OW29534   9.325   0.753  10.850
 9176SOL    HW129535   9.248   0.749  10.794
 9176SOL    HW229536  -1.654   0.813  10.805
 9177SOL     OW29537   0.527   3.825  11.165
 9177SOL    HW129538   0.613   3.865  11.176
 9177SOL    HW229539   0.495  -7.181   0.041
 9178SOL     OW29540   2.903   8.297   5.203
 9178SOL    HW129541  25.052   8.298   5.268
 9178SOL    HW229542   2.945   8.319  16.160
 9179SOL     OW29543   4.913   5.075   8.542
 9179SOL    HW129544   4.876   5.019   8.473
 9179SOL    HW229545  -6.040  27.116   8.558
 9180SOL     OW29546   4.152  10.328   9.057
 9180SOL    HW129547  15.107  21.402  20.067
 9180SOL    HW229548   4.149  10.235   9.035
 9181SOL     OW29549   7.468   6.317   9.513
 9181SOL    HW129550   7.503 -15.676  -1.548
 9181SOL    HW229551  -3.494  17.305   9.537
 9182SOL     OW29552   6.562   6.087  -1.119
 9182SOL    HW129553   6.598   6.089  20.872
 9182SOL    HW229554   6.472 -27.001  -1.129
 9183SOL     OW29555   8.620   8.017   2.933
 9183SOL    HW129556  -2.353   7.987   2.996
 9183SOL    HW229557   8.536  19.036   2.976
 9184SOL     OW29558  10.382   1.681   1.231
 9184SOL    HW129559  10.386  23.854   1.215
 9184SOL    HW229560  10.457   1.663   1.288
 9185SOL     OW29561   7.896   6.716  11.035
 9185SOL    HW129562   7.976   6.768  11.043
 9185SOL    HW229563   7.910 -15.438  11.092
 9186SOL     OW29564   1.355   3.542   0.247
 9186SOL    HW129565   1.348   3.636   0.264
 9186SOL    HW229566  -9.655  14.545   0.331
 9187SOL     OW29567   8.803   0.931   6.969
 9187SOL    HW129568  41.945   0.927   7.062
 9187SOL    HW229569   8.812   0.841   6.938
 9188SOL     OW29570   8.481   3.781   2.615
 9188SOL    HW129571  -2.559   3.875   2.594
 9188SOL    HW229572  -2.563   3.778   2.711
 9189SOL     OW29573   3.042   0.012   7.853
 9189SOL    HW129574  14.110  -0.079  -3.192
 9189SOL    HW229575   3.014   0.022   7.945
 9190SOL     OW29576   6.370   9.707   0.156
 9190SOL    HW129577  17.399   9.789   0.107
 9190SOL    HW229578  -4.753   9.661  11.182
 9191SOL     OW29579   6.311   1.980   1.153
 9191SOL    HW129580   6.329   2.053   1.093
 9191SOL    HW229581   6.286  12.947  12.135
 9192SOL     OW29582   3.603  11.051   9.087
 9192SOL    HW129583  -7.419  11.007   9.004
 9192SOL    HW229584  -7.401  -0.048  -1.887
 9193SOL     OW29585   5.471   0.199  -0.117
 9193SOL    HW129586 -16.604   0.280  -0.066
 9193SOL    HW229587   5.456  22.307  10.832
 9194SOL     OW29588   6.608   4.185   0.171
 9194SOL    HW129589   6.676   4.233   0.124
 9194SOL    HW229590   6.533 -17.834   0.172
 9195SOL     OW29591   1.330   1.254   0.950
 9195SOL    HW129592   1.305   1.163   0.961
 9195SOL    HW229593   1.249   1.303   0.963
 9196SOL     OW29594   3.485   7.423   1.353
 9196SOL    HW129595   3.508   7.506  12.434
 9196SOL    HW229596  -7.650   7.425   1.344
 9197SOL     OW29597   7.988   3.914   1.700
 9197SOL    HW129598   7.989   3.852  12.812
 9197SOL    HW229599   8.074   3.956  23.783
 9198SOL     OW29600   8.784   0.459  10.090
 9198SOL    HW129601   8.800  22.445  -0.935
 9198SOL    HW229602  19.758  11.522  -0.885
 9199SOL     OW29603   8.071   4.968   0.028
 9199SOL    HW129604   8.060   4.892  -0.030
 9199SOL    HW229605  41.276 -17.076   0.005
 9200SOL     OW29606   7.987   8.118   3.516
 9200SOL    HW129607   8.068  -2.971   3.504
 9200SOL    HW229608   7.919   8.051   3.524
 9201SOL     OW29609   7.926   8.094   1.481
 9201SOL    HW129610   7.872   8.147   1.422
 9201SOL    HW229611   8.006  -2.961  34.551
 9202SOL     OW29612   6.087   5.668   4.789
 9202SOL    HW129613   6.176   5.676   4.756
 9202SOL    HW229614   6.053  -5.450   4.747
 9203SOL     OW29615   2.392   9.561  -0.748
 9203SOL    HW129616   2.366   9.544  32.280
 9203SOL    HW229617  -8.554  -1.460  10.286
 9204SOL     OW29618   1.650   0.703   2.577
 9204SOL    HW129619   1.688   0.762   2.641
 9204SOL    HW229620   1.560   0.689   2.607
 9205SOL     OW29621   8.019   3.354   7.730
 9205SOL    HW129622   7.991  -7.679  29.718
 9205SOL    HW229623   8.000   3.264   7.755
 9206SOL     OW29624   1.939   3.179   6.272
 9206SOL    HW129625 -20.097   3.249   6.224
 9206SOL    HW229626   2.006   3.146   6.332
 9207SOL     OW29627   4.855   5.097   7.215
 9207SOL    HW129628   4.762  16.135 -14.886
 9207SOL    HW229629   4.861  -5.884 -14.789
 9208SOL     OW29630   1.870   7.337   6.081
 9208SOL    HW129631   1.950   7.384   6.106
 9208SOL    HW229632  12.887   7.373   5.995
 9209SOL     OW29633   2.299   3.778   2.326
 9209SOL    HW129634   2.355   3.769  -8.637
 9209SOL    HW229635  13.310  -7.351   2.306
 9210SOL     OW29636  10.801   8.491   8.146
 9210SOL    HW129637  10.872   8.521   8.203
 9210SOL    HW229638 -22.380   8.449   8.205
 9211SOL     OW29639  10.433   2.623   0.561
 9211SOL    HW129640  -0.517  13.681   0.532
 9211SOL    HW229641  21.466  24.743   0.647
 9212SOL     OW29642   8.957   3.700   3.993
 9212SOL    HW129643   8.965  -7.262   3.937
 9212SOL    HW229644   8.999  -7.314  -6.965
 9213SOL     OW29645   2.514   7.743   5.256
 9213SOL    HW129646  24.628 -14.258   5.299
 9213SOL    HW229647   2.554   7.744   5.169
 9214SOL     OW29648   7.987  10.401   0.606
 9214SOL    HW129649   8.061  10.457   0.630
 9214SOL    HW229650   7.987  10.331  22.751
 9215SOL     OW29651   9.634   6.692   8.975
 9215SOL    HW129652   9.569  17.767   8.916
 9215SOL    HW229653   9.710   6.674 -13.160
 9216SOL     OW29654   1.541   3.468   3.431
 9216SOL    HW129655   1.605   3.519   3.381
 9216SOL    HW229656   1.587  36.564   3.512
 9217SOL     OW29657   3.241   9.922   8.572
 9217SOL    HW129658   3.271   9.866 -24.475
 9217SOL    HW229659  -7.871   9.873  -2.507
 9218SOL     OW29660   2.253   0.062  -0.677
 9218SOL    HW129661   2.279 -10.950  10.451
 9218SOL    HW229662 -19.765  11.031  10.341
 9219SOL     OW29663  11.035  11.593   1.014
 9219SOL    HW129664  10.982  11.576   0.936
 9219SOL    HW229665  11.061   0.466   1.045
 9220SOL     OW29666   0.837  11.870   4.261
 9220SOL    HW129667   0.787  11.840   4.185
 9220SOL    HW229668   0.929 -21.259   4.234
 9221SOL     OW29669   9.320   9.944   3.496
 9221SOL    HW129670   9.271  10.012   3.451
 9221SOL    HW229671 -12.705   9.904   3.428
 9222SOL     OW29672  10.654   0.436   5.804
 9222SOL    HW129673  10.626   0.443   5.895
 9222SOL    HW229674  10.630   0.519  -5.275
 9223SOL     OW29675   8.402   3.297   9.566
 9223SOL    HW129676   8.359   3.301   9.652
 9223SOL    HW229677   8.386   3.384 -12.551
 9224SOL     OW29678   5.348   9.358   0.015
 9224SOL    HW129679 -16.682   9.429   0.055
 9224SOL    HW229680   5.291  31.404  11.124
 9225SOL     OW29681   5.708   0.975   6.040
 9225SOL    HW129682  -5.300 -10.154   6.026
 9225SOL    HW229683   5.613   0.970   6.026
 9226SOL     OW29684  10.750   9.061   4.937
 9226SOL    HW129685  10.785  20.090   4.849
 9226SOL    HW229686  10.712  -2.063   4.959
 9227SOL     OW29687   5.318   5.566   9.143
 9227SOL    HW129688  -5.771   5.562  -1.978
 9227SOL    HW229689  -5.770   5.510   9.204
 9228SOL     OW29690   0.721   3.458  11.008
 9228SOL    HW129691   0.707  14.475 -44.282
 9228SOL    HW229692   0.768  -7.499  11.006
 9229SOL     OW29693   7.603   0.725   4.098
 9229SOL    HW129694  18.602   0.808  37.191
 9229SOL    HW229695   7.614   0.678  15.055
 9230SOL     OW29696  10.479   5.530   3.564
 9230SOL    HW129697  10.526  -5.592   3.568
 9230SOL    HW229698  10.485   5.558   3.473
 9231SOL     OW29699   6.410   8.456   5.454
 9231SOL    HW129700   6.370  19.492  16.407
 9231SOL    HW229701   6.462  -2.663   5.460
 9232SOL     OW29702   9.706   7.992   3.821
 9232SOL    HW129703   9.680   7.960   3.908
 9232SOL    HW229704   9.729   8.084 -18.244
 9233SOL     OW29705   5.688  -0.395   0.589
 9233SOL    HW129706   5.723  10.614   0.673
 9233SOL    HW229707  16.635  -0.420   0.592
 9234SOL     OW29708   0.279   9.604  11.870
 9234SOL    HW129709   0.355   9.581  11.923
 9234SOL    HW229710   0.280  -1.340 -10.215
 9235SOL     OW29711  -0.391   4.978   8.956
 9235SOL    HW129712  -0.388 -28.235   8.972
 9235SOL    HW229713  32.676  -6.027   9.029
 9236SOL     OW29714   5.894   1.819  12.010
 9236SOL    HW129715  28.044  -9.242 -10.130
 9236SOL    HW229716   5.818   1.834   0.915
 9237SOL     OW29717   3.116   5.512   1.746
 9237SOL    HW129718   3.035  16.601   1.734
 9237SOL    HW229719   3.149   5.499   1.657
 9238SOL     OW29720   5.837   8.510   7.517
 9238SOL    HW129721   5.851   8.490   7.610
 9238SOL    HW229722  -5.114   8.515  -3.559
 9239SOL     OW29723   3.796   6.145   2.560
 9239SOL    HW129724   3.714   6.154   2.511
 9239SOL    HW229725   3.863   6.135  -8.547
 9240SOL     OW29726   4.160   6.678   8.508
 9240SOL    HW129727   4.179   6.651   8.598
 9240SOL    HW229728 -17.999   6.731  30.595
 9241SOL     OW29729   8.752   2.318  10.212
 9241SOL    HW129730   8.837   2.341  10.174
 9241SOL    HW229731   8.745   2.372  10.291
 9242SOL     OW29732  -0.067   2.923   6.781
 9242SOL    HW129733  21.987  14.042  -4.212
 9242SOL    HW229734  -0.149  13.916   6.765
 9243SOL     OW29735  10.838   3.499   6.874
 9243SOL    HW129736  10.867  14.447   6.878
 9243SOL    HW229737  10.808   3.511  17.824
 9244SOL     OW29738   7.362   8.908  11.003
 9244SOL    HW129739   7.435   8.848  10.994
 9244SOL    HW229740   7.316   8.904  10.919
 9245SOL     OW29741   1.415   3.238   3.335
 9245SOL    HW129742   1.451   3.323   3.357
 9245SOL    HW229743   1.490   3.184  -7.728
 9246SOL     OW29744   7.483   4.988  10.778
 9246SOL    HW129745   7.438   5.070 -22.318
 9246SOL    HW229746  18.559   5.004  -0.349
 9247SOL     OW29747   2.556  11.602  -0.784
 9247SOL    HW129748 -19.547 -10.508  -0.697
 9247SOL    HW229749   2.565  11.696  21.304
 9248SOL     OW29750   6.255   6.229   4.633
 9248SOL    HW129751   6.207  17.207  15.617
 9248SOL    HW229752   6.333  28.331  15.621
 9249SOL     OW29753  10.791   0.194   4.497
 9249SOL    HW129754  -0.177  11.189   4.451
 9249SOL    HW229755  10.835  33.373   4.556
 9250SOL     OW29756   1.770   3.581   7.860
 9250SOL    HW129757   1.768   3.507  18.840
 9250SOL    HW229758   1.704   3.560  30.006
 9251SOL     OW29759   8.980   8.784   4.607
 9251SOL    HW129760   8.912   8.848   4.586
 9251SOL    HW229761  31.138  19.876   4.622
 9252SOL     OW29762   2.431   8.870   5.886
 9252SOL    HW129763   2.340   8.859  27.939
 9252SOL    HW229764  35.552   8.839 -16.102
 9253SOL     OW29765  11.469   3.978   2.461
 9253SOL    HW129766   0.431   3.885   2.441
 9253SOL    HW229767  11.385  15.049   2.428
 9254SOL     OW29768   7.952   3.694  11.239
 9254SOL    HW129769   7.944   3.632   0.272
 9254SOL    HW229770  19.032   3.644  11.168
 9255SOL     OW29771   5.648   4.049  -0.147
 9255SOL    HW129772  16.735   4.113  10.840
 9255SOL    HW229773   5.646   4.087  -0.059
 9256SOL     OW29774  12.227   7.275   6.507
 9256SOL    HW129775  -9.930  -3.709   6.516
 9256SOL    HW229776  12.261   7.267   6.596
 9257SOL     OW29777   0.669  10.482   3.753
 9257SOL    HW129778   0.671  10.565 -18.373
 9257SOL    HW229779   0.730  10.426  25.784
 9258SOL     OW29780   6.518   3.575   6.125
 9258SOL    HW129781   6.488   3.599   6.038
 9258SOL    HW229782   6.602   3.620   6.136
 9259SOL     OW29783   4.574   4.243   3.442
 9259SOL    HW129784   4.645  15.254   3.385
 9259SOL    HW229785   4.600   4.331   3.471
 9260SOL     OW29786   3.602   4.157   7.387
 9260SOL    HW129787  14.661   4.250  -3.646
 9260SOL    HW229788   3.508  -6.890   7.405
 9261SOL     OW29789   3.728   5.567   5.026
 9261SOL    HW129790   3.696   5.642   4.977
 9261SOL    HW229791   3.821   5.584   5.039
 9262SOL     OW29792   6.168   2.139   5.177
 9262SOL    HW129793  17.203  13.085   5.157
 9262SOL    HW229794   6.236  13.184   5.245
 9263SOL     OW29795   8.164   1.450   6.258
 9263SOL    HW129796 -13.957   1.451   6.344
 9263SOL    HW229797   8.234   1.386   6.266
 9264SOL     OW29798   8.915   6.479   8.995
 9264SOL    HW129799   8.958   6.406  20.079
 9264SOL    HW229800   8.939   6.469   8.903
 9265SOL     OW29801   9.276  -0.340   6.269
 9265SOL    HW129802   9.313  21.673   6.211
 9265SOL    HW229803  -1.858  -0.354  17.303
 9266SOL     OW29804   7.594  10.982   5.883
 9266SOL    HW129805  18.593  -0.143   5.868
 9266SOL    HW229806  -3.458  11.028   5.800
 9267SOL     OW29807   4.125  10.231   7.448
 9267SOL    HW129808   4.202  10.190  18.448
 9267SOL    HW229809   4.157  21.312   7.528
 9268SOL     OW29810   7.533   4.662   5.387
 9268SOL    HW129811   7.454   4.709   5.411
 9268SOL    HW229812  18.563   4.644  16.333
 9269SOL     OW29813  10.397   7.988   8.980
 9269SOL    HW129814 -11.759  30.118  20.047
 9269SOL    HW229815  10.463   8.006   9.047
 9270SOL     OW29816   4.250  10.818   0.990
 9270SOL    HW129817   4.179  -0.173   0.948
 9270SOL    HW229818  15.322  21.798   0.922
 9271SOL     OW29819   1.214   6.846   0.839
 9271SOL    HW129820  -9.796  17.910   0.752
 9271SOL    HW229821   1.198   6.930 -10.157
 9272SOL     OW29822   2.973   7.429   8.975
 9272SOL    HW129823   2.925   7.349   8.995
 9272SOL    HW229824   2.964   7.439   8.880
 9273SOL     OW29825  11.252   6.334   2.537
 9273SOL    HW129826   0.252 -26.793   2.450
 9273SOL    HW229827  11.252   6.245  -8.468
 9274SOL     OW29828   0.992   0.726   2.373
 9274SOL    HW129829   0.948 -10.335  35.574
 9274SOL    HW229830   0.924   0.715   2.306
 9275SOL     OW29831   9.232   7.747  -1.024
 9275SOL    HW129832   9.293  18.717  21.079
 9275SOL    HW229833  -1.815  18.840  -0.945
 9276SOL     OW29834   4.529  10.396   6.702
 9276SOL    HW129835   4.525  10.429  17.832
 9276SOL    HW229836   4.513  10.302  17.750
 9277SOL     OW29837   6.271   7.617   5.141
 9277SOL    HW129838   6.219   7.602   5.220
 9277SOL    HW229839   6.230  18.731   5.098
 9278SOL     OW29840   1.397   4.777   1.380
 9278SOL    HW129841   1.303   4.770 -20.711
 9278SOL    HW229842   1.425   4.841  12.354
 9279SOL     OW29843   2.701   8.270   2.710
 9279SOL    HW129844   2.672   8.246   2.622
 9279SOL    HW229845   2.794   8.289  13.740
 9280SOL     OW29846   4.545   8.215  10.681
 9280SOL    HW129847 -17.473   8.160  10.632
 9280SOL    HW229848   4.518   8.160  10.755
 9281SOL     OW29849   3.416   7.155   7.883
 9281SOL    HW129850   3.490   7.095   7.885
 9281SOL    HW229851   3.350  -3.930   7.830
 9282SOL     OW29852   4.607   6.715   3.574
 9282SOL    HW129853  -6.423   6.793   3.629
 9282SOL    HW229854  -6.466   6.647  25.713
 9283SOL     OW29855   6.899  -0.557   2.533
 9283SOL    HW129856 -15.175  -0.624   2.601
 9283SOL    HW229857 -15.116  21.495   2.467
 9284SOL     OW29858   0.965   0.598   3.324
 9284SOL    HW129859   0.909   0.620   3.399
 9284SOL    HW229860   0.906   0.605   3.248
 9285SOL     OW29861   4.829   9.922   0.831
 9285SOL    HW129862   4.834  20.995   0.742
 9285SOL    HW229863 -50.281  -1.152   0.849
 9286SOL     OW29864   2.774   9.626   5.972
 9286SOL    HW129865   2.807  20.654  17.100
 9286SOL    HW229866  24.901   9.562   5.920
 9287SOL     OW29867   3.492   1.239   5.021
 9287SOL    HW129868   3.438  -9.739  16.010
 9287SOL    HW229869   3.502  -9.876  -6.075
 9288SOL     OW29870   8.604   6.235   4.205
 9288SOL    HW129871   8.571   6.171   4.268
 9288SOL    HW229872  19.729   6.201  -6.860
 9289SOL     OW29873   8.585   0.233   6.340
 9289SOL    HW129874  19.672   0.232  -4.617
 9289SOL    HW229875  30.593   0.296   6.354
 9290SOL     OW29876   1.874   2.408   6.268
 9290SOL    HW129877   1.783  -8.614   6.294
 9290SOL    HW229878   1.866   2.350   6.192
 9291SOL     OW29879  11.096   1.462   2.273
 9291SOL    HW129880   0.010   1.529   2.223
 9291SOL    HW229881 -22.036  34.500   2.223
 9292SOL     OW29882  10.008   9.691   4.859
 9292SOL    HW129883  -1.027 -12.463   4.918
 9292SOL    HW229884   9.927   9.677   4.809
 9293SOL     OW29885   8.386   1.949   8.817
 9293SOL    HW129886   8.413   2.033   8.780
 9293SOL    HW229887 -24.828   1.948   8.806
 9294SOL     OW29888   4.125   3.240   0.519
 9294SOL    HW129889 -17.923  -7.854   0.447
 9294SOL    HW229890   4.201   3.293   0.543
 9295SOL     OW29891   4.885   0.509   4.238
 9295SOL    HW129892   4.979   0.519 -17.831
 9295SOL    HW229893  -6.169   0.513   4.143
 9296SOL     OW29894   8.054   3.745   8.353
 9296SOL    HW129895   8.137   3.791   8.344
 9296SOL    HW229896   8.017   3.744  30.344
 9297SOL     OW29897   7.893   6.558   9.654
 9297SOL    HW129898   7.823   6.540   9.717
 9297SOL    HW229899   7.944   6.629   9.694
 9298SOL     OW29900   8.013  -0.299   1.752
 9298SOL    HW129901  19.001  10.796   1.811
 9298SOL    HW229902   8.059  -0.359   1.811
 9299SOL     OW29903   1.221   2.002   6.655
 9299SOL    HW129904   1.160   2.041  -4.321
 9299SOL    HW229905   1.288   1.960   6.710
 9300SOL     OW29906   7.213  10.520   2.763
 9300SOL    HW129907   7.197  10.534   2.669
 9300SOL    HW229908  18.166  10.525   2.803
 9301SOL     OW29909  10.046   2.853   9.708
 9301SOL    HW129910  10.023   2.912   9.780
 9301SOL    HW229911  10.053   2.910   9.632
 9302SOL     OW29912   7.649   9.668   9.499
 9302SOL    HW129913  18.765   9.706   9.543
 9302SOL    HW229914  18.614   9.698   9.552
 9303SOL     OW29915  10.502   4.536   5.628
 9303SOL    HW129916  10.432   4.587   5.669
 9303SOL    HW229917  10.583  -6.459   5.655
 9304SOL     OW29918  10.403   1.467   6.087
 9304SOL    HW129919  10.308   1.479   6.095
 9304SOL    HW229920  10.417  56.648   5.994
 9305SOL     OW29921   1.347   3.861   2.460
 9305SOL    HW129922  23.370  -7.175  13.577
 9305SOL    HW229923  23.418   3.948  24.499
 9306SOL     OW29924   2.257   5.829   1.808
 9306SOL    HW129925 -19.738   5.790  -9.254
 9306SOL    HW229926   2.260   5.917   1.769
 9307SOL     OW29927   6.725   9.668   9.283
 9307SOL    HW129928  -4.406 -23.458   9.257
 9307SOL    HW229929   6.758  -1.294   9.237
 9308SOL     OW29930   3.667   4.792   5.353
 9308SOL    HW129931   3.646  15.914   5.310
 9308SOL    HW229932   3.687   4.816   5.443
 9309SOL     OW29933   4.673   2.142   9.861
 9309SOL    HW129934   4.764 -19.958   9.841
 9309SOL    HW229935   4.629   2.057   9.862
 9310SOL     OW29936   4.319   8.986   3.830
 9310SOL    HW129937   4.296  20.112 -18.284
 9310SOL    HW229938   4.251   8.928   3.797
 9311SOL     OW29939  -1.846   5.832   5.868
 9311SOL    HW129940   9.186  16.943   5.804
 9311SOL    HW229941  31.268   5.875   5.953
 9312SOL     OW29942   1.209   9.500  -0.095
 9312SOL    HW129943  12.170   9.540  22.019
 9312SOL    HW229944   1.182   9.462  -0.179
 9313SOL     OW29945   2.122   8.642   2.677
 9313SOL    HW129946   2.177   8.567   2.699
 9313SOL    HW229947   2.174 -24.427 -30.505
 9314SOL     OW29948   6.834   6.364   9.218
 9314SOL    HW129949 -26.309  -4.590   9.254
 9314SOL    HW229950   6.878  17.360   9.291
 9315SOL     OW29951   9.678   4.639   9.248
 9315SOL    HW129952   9.759   4.677   9.281
 9315SOL    HW229953  -1.357   4.649   9.153
 9316SOL     OW29954  10.995   2.700   7.759
 9316SOL    HW129955  11.008   2.635  18.731
 9316SOL    HW229956  10.972   2.650   7.837
 9317SOL     OW29957   6.623   6.651   2.443
 9317SOL    HW129958 -15.381   6.612   2.398
 9317SOL    HW229959   6.587  28.792   2.379
 9318SOL     OW29960   6.839   1.876   2.063
 9318SOL    HW129961   6.895 -20.135   2.026
 9318SOL    HW229962   6.762   1.875  13.047
 9319SOL     OW29963  -1.172  12.299   1.823
 9319SOL    HW129964  -1.141  -9.741   1.741
 9319SOL    HW229965  31.900  -9.859   1.796
 9320SOL     OW29966   1.089   9.291   1.675
 9320SOL    HW129967   1.156  31.326   1.622
 9320SOL    HW229968   1.137   9.355   1.727
 9321SOL     OW29969   8.450   9.638   5.150
 9321SOL    HW129970   8.531 -12.456   5.197
 9321SOL    HW229971 -13.678 -34.602   5.157
 9322SOL     OW29972   5.340   2.868   6.277
 9322SOL    HW129973 -16.809 -30.214   6.331
 9322SOL    HW229974  -5.621   2.878   6.330
 9323SOL     OW29975   1.661  10.345   9.324
 9323SOL    HW129976   1.733  10.329   9.385
 9323SOL    HW229977  12.730  10.306  -1.798
 9324SOL     OW29978   4.543  10.150  11.605
 9324SOL    HW129979 -17.596  10.224   0.573
 9324SOL    HW229980   4.606  10.176  11.538
 9325SOL     OW29981   6.060   4.897   2.274
 9325SOL    HW129982   6.097   4.921   2.359
 9325SOL    HW229983   5.979  37.971   2.294
 9326SOL     OW29984   4.916   5.250   4.508
 9326SOL    HW129985  15.956   5.333   4.554
 9326SOL    HW229986   4.843  -5.783   4.446
 9327SOL     OW29987  10.005   7.828   6.388
 9327SOL    HW129988  10.056 -14.333   6.383
 9327SOL    HW229989   9.968  29.917  -4.739
 9328SOL     OW29990   1.591   4.718   0.605
 9328SOL    HW129991   1.641  15.760   0.524
 9328SOL    HW229992   1.507   4.758   0.582
 9329SOL     OW29993   9.213   7.361   5.961
 9329SOL    HW129994   9.174   7.280   5.993
 9329SOL    HW229995   9.185   7.366   5.869
 9330SOL     OW29996   3.223   4.817   0.280
 9330SOL    HW129997   3.270   4.899   0.294
 9330SOL    HW229998   3.145   4.824  11.375
 9331SOL     OW29999   3.322   7.346   2.341
 9331SOL    HW130000   3.373   7.422 -19.712
 9331SOL    HW230001   3.385  18.327  -8.740
 9332SOL     OW30002  10.968   4.165  10.031
 9332SOL    HW130003  10.946  26.235   9.938
 9332SOL    HW230004  10.921  15.284  10.059
 9333SOL     OW30005   6.605   7.949   4.908
 9333SOL    HW130006   6.634   7.924   4.821
 9333SOL    HW230007   6.518  -3.052   4.895
 9334SOL     OW30008   4.470   7.693   9.907
 9334SOL    HW130009   4.536   7.627  20.926
 9334SOL    HW230010   4.416   7.700   9.828
 9335SOL     OW30011  10.025   2.553   2.447
 9335SOL    HW130012  20.996   2.571  -8.529
 9335SOL    HW230013  10.033  -8.582   2.446
 9336SOL     OW30014   9.375   4.444   6.632
 9336SOL    HW130015   9.440   4.514  28.704
 9336SOL    HW230016  -1.640  15.436   6.711
 9337SOL     OW30017  -0.085   6.839   5.412
 9337SOL    HW130018  -0.028   6.876   5.345
 9337SOL    HW230019  22.016   6.886   5.492
 9338SOL     OW30020   4.749  -0.352   4.294
 9338SOL    HW130021  -6.325  -0.263   4.297
 9338SOL    HW230022   4.843  10.697   4.305
 9339SOL     OW30023   9.093   6.240   9.032
 9339SOL    HW130024   9.083   6.209   9.122
 9339SOL    HW230025  20.223   6.218   9.009
 9340SOL     OW30026   5.293   5.909   6.861
 9340SOL    HW130027   5.203   5.908   6.894
 9340SOL    HW230028   5.285   5.880   6.770
 9341SOL     OW30029   6.156   2.721   3.448
 9341SOL    HW130030   6.211   2.676  25.462
 9341SOL    HW230031  28.162  -8.378  25.543
 9342SOL     OW30032   6.148   4.455  11.813
 9342SOL    HW130033  17.139 -28.715  11.878
 9342SOL    HW230034   6.220   4.495 -10.216
 9343SOL     OW30035   2.135   5.852  -1.435
 9343SOL    HW130036   2.181   5.891  20.718
 9343SOL    HW230037  57.346   5.758   9.615
 9344SOL     OW30038  10.923   4.751   6.270
 9344SOL    HW130039  10.987   4.750   6.341
 9344SOL    HW230040  10.845   4.792  -4.730
 9345SOL     OW30041   1.468   0.954   0.895
 9345SOL    HW130042  12.601   0.940  22.989
 9345SOL    HW230043  34.544   0.904   0.965
 9346SOL     OW30044  10.416   3.197   0.899
 9346SOL    HW130045  10.371  -7.927  11.944
 9346SOL    HW230046  10.509   3.175  11.930
 9347SOL     OW30047   2.279   8.672   6.479
 9347SOL    HW130048   2.217  19.737   6.410
 9347SOL    HW230049 -19.828   8.723   6.556
 9348SOL     OW30050   9.041   5.240   1.640
 9348SOL    HW130051   9.119   5.184   1.643
 9348SOL    HW230052   9.053   5.302   1.712
 9349SOL     OW30053   3.850   0.316   9.901
 9349SOL    HW130054   3.865   0.376  20.868
 9349SOL    HW230055   3.818   0.236   9.860
 9350SOL     OW30056   9.136   9.228   7.454
 9350SOL    HW130057   9.100   9.143   7.479
 9350SOL    HW230058   9.231  -1.822 -14.620
 9351SOL     OW30059   8.797   9.531   1.564
 9351SOL    HW130060  19.867   9.564   1.648
 9351SOL    HW230061   8.861   9.464   1.540
 9352SOL     OW30062   8.182   1.387  10.050
 9352SOL    HW130063   8.109  -9.647  10.111
 9352SOL    HW230064   8.187   1.294  10.028
 9353SOL     OW30065  10.934   5.251   7.691
 9353SOL    HW130066  10.928   5.335   7.735
 9353SOL    HW230067  10.886   5.190   7.747
 9354SOL     OW30068  12.182  10.094   4.066
 9354SOL    HW130069   1.105  32.085   4.060
 9354SOL    HW230070 -20.995  -0.899   4.126
 9355SOL     OW30071   8.031   6.790  -0.497
 9355SOL    HW130072  19.054   6.702  -0.462
 9355SOL    HW230073   7.944   6.825  54.682
 9356SOL     OW30074   9.988   0.785   8.634
 9356SOL    HW130075  10.078   0.781  30.748
 9356SOL    HW230076   9.950   0.863   8.674
 9357SOL     OW30077   8.284   4.689   7.099
 9357SOL    HW130078   8.229   4.760  18.172
 9357SOL    HW230079   8.222   4.626   7.063
 9358SOL     OW30080   5.543   5.216   8.430
 9358SOL    HW130081   5.461   5.257  19.441
 9358SOL    HW230082   5.560   5.149  30.443
 9359SOL     OW30083   6.074   4.435  11.094
 9359SOL    HW130084   6.033 -17.616  11.012
 9359SOL    HW230085   6.012 -28.748   0.091
 9360SOL     OW30086  10.762   0.188   7.362
 9360SOL    HW130087  10.702  22.232   7.427
 9360SOL    HW230088 -11.264 -10.927   7.335
 9361SOL     OW30089   4.949   7.130   2.346
 9361SOL    HW130090   5.041  -3.899  -8.669
 9361SOL    HW230091  15.991 -26.037   2.264
 9362SOL     OW30092   1.333   4.675   6.677
 9362SOL    HW130093   1.291   4.734  -4.299
 9362SOL    HW230094   1.269  37.786   6.606
 9363SOL     OW30095   3.276   8.374   2.511
 9363SOL    HW130096   3.196  19.381   2.551
 9363SOL    HW230097   3.283   8.324   2.429
 9364SOL     OW30098   9.058   7.258   0.915
 9364SOL    HW130099  20.049   7.311  34.097
 9364SOL    HW230100  20.189  29.344   0.942
 9365SOL     OW30101   5.220   1.158   0.882
 9365SOL    HW130102   5.177  12.183   0.966
 9365SOL    HW230103  16.252   1.074  11.876
 9366SOL     OW30104   8.746   1.562   7.961
 9366SOL    HW130105 -35.461   1.622   8.018
 9366SOL    HW230106 -13.399  -9.514   7.903
 9367SOL     OW30107   2.361   5.697  12.277
 9367SOL    HW130108   2.422  16.810  12.289
 9367SOL    HW230109 -30.804  16.731 -20.758
 9368SOL     OW30110   3.723   6.089  10.870
 9368SOL    HW130111   3.707   6.008  10.918
 9368SOL    HW230112   3.817   6.086 -22.269
 9369SOL     OW30113   9.838   5.670   2.017
 9369SOL    HW130114   9.845   5.577   2.038
 9369SOL    HW230115   9.814  16.711   1.924
 9370SOL     OW30116   2.252   1.520   0.772
 9370SOL    HW130117  -8.861  12.621   0.777
 9370SOL    HW230118   2.256   1.481   0.860
 9371SOL     OW30119   7.789   4.453  10.040
 9371SOL    HW130120   7.861  37.619  10.083
 9371SOL    HW230121  18.835  48.636   9.948
 9372SOL     OW30122   4.868  10.254   1.007
 9372SOL    HW130123   4.795  10.206   0.969
 9372SOL    HW230124  -6.200  10.275   1.096
 9373SOL     OW30125   0.733   1.987  10.133
 9373SOL    HW130126 -21.400  -9.107  10.191
 9373SOL    HW230127  11.825  -9.115  10.083
 9374SOL     OW30128   6.655   8.996   2.927
 9374SOL    HW130129  -4.316   8.974 -19.216
 9374SOL    HW230130  -4.403  20.128  -8.128
 9375SOL     OW30131   3.274  -1.059   6.886
 9375SOL    HW130132   3.215  10.012   6.954
 9375SOL    HW230133  -7.722  20.944  17.964
 9376SOL     OW30134   0.212   3.978   3.163
 9376SOL    HW130135   0.267   3.923  25.297
 9376SOL    HW230136   0.224   3.944   3.075
 9377SOL     OW30137   7.630   2.630  -1.156
 9377SOL    HW130138   7.694   2.587   9.827
 9377SOL    HW230139   7.666  -8.322   9.899
 9378SOL     OW30140   7.097   0.603  10.409
 9378SOL    HW130141   7.060   0.586  10.496
 9378SOL    HW230142  18.094   0.539  -0.688
 9379SOL     OW30143  10.161   0.587  10.642
 9379SOL    HW130144  10.100  11.669  10.704
 9379SOL    HW230145  10.104 -10.487  10.574
 9380SOL     OW30146   5.666   4.654  10.340
 9380SOL    HW130147   5.586  -6.383  10.394
 9380SOL    HW230148   5.685   4.560  10.330
 9381SOL     OW30149   9.281   6.605   1.713
 9381SOL    HW130150   9.314   6.675 -20.311
 9381SOL    HW230151   9.188 -15.456  12.743
 9382SOL     OW30152   9.304   6.194   7.469
 9382SOL    HW130153   9.322   6.283   7.500
 9382SOL    HW230154   9.384   6.168   7.423
 9383SOL     OW30155   8.104   3.863   3.977
 9383SOL    HW130156   8.037   3.796   3.967
 9383SOL    HW230157  -2.929   3.878  -6.968
 9384SOL     OW30158   0.714   6.152   5.315
 9384SOL    HW130159   0.773  17.120 -16.741
 9384SOL    HW230160   0.739   6.176   5.225
 9385SOL     OW30161  10.910   4.286   0.582
 9385SOL    HW130162  10.882   4.275   0.491
 9385SOL    HW230163  10.837  15.370   0.625
 9386SOL     OW30164   1.506   7.038   0.193
 9386SOL    HW130165   1.438   6.979   0.163
 9386SOL    HW230166  12.611   7.038   0.123
 9387SOL     OW30167   7.554  10.246   1.216
 9387SOL    HW130168   7.589  10.326   1.257
 9387SOL    HW230169   7.549 -22.851   1.123
 9388SOL     OW30170   5.548  10.918  -1.085
 9388SOL    HW130171   5.566  10.934  21.087
 9388SOL    HW230172   5.478  10.853  32.033
 9389SOL     OW30173   1.179   1.288   6.638
 9389SOL    HW130174   1.167   1.342   6.716
 9389SOL    HW230175   1.270   1.303  -4.427
 9390SOL     OW30176   5.837   3.857   6.983
 9390SOL    HW130177   5.780  14.974   6.991
 9390SOL    HW230178  -5.259  14.829   6.945
 9391SOL     OW30179   5.055   7.243   3.336
 9391SOL    HW130180  -6.039   7.216   3.409
 9391SOL    HW230181   5.073   7.163   3.287
 9392SOL     OW30182   3.708   8.668   0.861
 9392SOL    HW130183  -7.314  41.849   0.932
 9392SOL    HW230184   3.666   8.720  22.872
 9393SOL     OW30185   7.545   6.161   7.980
 9393SOL    HW130186   7.539   6.144   8.074
 9393SOL    HW230187  18.564  28.333   7.971
 9394SOL     OW30188   1.477   9.793   4.082
 9394SOL    HW130189   1.528   9.824 -18.071
 9394SOL    HW230190   1.504   9.702   4.093
 9395SOL     OW30191   9.066   1.142   3.077
 9395SOL    HW130192   9.131   1.207   3.051
 9395SOL    HW230193  -2.056   1.190   3.078
 9396SOL     OW30194   6.807   2.707   9.293
 9396SOL    HW130195  17.856  24.878   9.270
 9396SOL    HW230196   6.725  24.781  20.380
 9397SOL     OW30197   7.170   9.529   4.246
 9397SOL    HW130198  -3.866   9.610 -17.782
 9397SOL    HW230199   7.078   9.523   4.218
 9398SOL     OW30200   6.629   3.800   0.958
 9398SOL    HW130201  28.634  14.792   0.921
 9398SOL    HW230202   6.657   3.860  11.929
 9399SOL     OW30203   5.979   8.432   8.795
 9399SOL    HW130204   5.996   8.382   8.875
 9399SOL    HW230205   6.020 -13.698   8.726
 9400SOL     OW30206  10.765   6.992   6.111
 9400SOL    HW130207  10.717  -3.980 -16.016
 9400SOL    HW230208  -0.308   6.999   6.201
 9401SOL     OW30209  10.563   7.227   8.377
 9401SOL    HW130210  10.563   7.289   8.450
 9401SOL    HW230211  10.473 -14.850   8.344
 9402SOL     OW30212   6.845   3.610   8.317
 9402SOL    HW130213   6.789   3.630   8.392
 9402SOL    HW230214   6.783   3.588   8.247
 9403SOL     OW30215   8.056   6.059   9.973
 9403SOL    HW130216  -3.020  -4.948  10.055
 9403SOL    HW230217   8.003   5.983   9.951
 9404SOL     OW30218   1.661   7.609  10.172
 9404SOL    HW130219   1.704   7.656  10.244
 9404SOL    HW230220 -20.353 -14.473  10.103
 9405SOL     OW30221   7.994   8.514   5.425
 9405SOL    HW130222  18.981  30.513   5.419
 9405SOL    HW230223   8.083   8.483   5.441
 9406SOL     OW30224   3.255   7.604   7.329
 9406SOL    HW130225  36.437   7.535   7.348
 9406SOL    HW230226   3.192  29.643   7.269
 9407SOL     OW30227   8.071   4.794   2.636
 9407SOL    HW130228   8.051 -28.329   2.730
 9407SOL    HW230229  -2.950   4.704  -8.428
 9408SOL     OW30230   7.550   2.681   0.172
 9408SOL    HW130231 -14.484   2.745   0.118
 9408SOL    HW230232   7.471   2.726  22.282
 9409SOL     OW30233   7.051   9.896   0.030
 9409SOL    HW130234   6.962   9.910   0.060
 9409SOL    HW230235   7.091   9.983   0.030
 9410SOL     OW30236   8.467   6.016  11.616
 9410SOL    HW130237   8.513   5.933  11.609
 9410SOL    HW230238   8.428 -27.103   0.664
 9411SOL     OW30239   7.732   1.914   7.622
 9411SOL    HW130240   7.646  12.968   7.584
 9411SOL    HW230241   7.786   1.984   7.587
 9412SOL     OW30242   0.258   8.055   5.054
 9412SOL    HW130243   0.281   7.974  -5.941
 9412SOL    HW230244  22.242   8.049  -5.997
 9413SOL     OW30245   0.678   6.887   2.484
 9413SOL    HW130246  11.777  -4.210   2.532
 9413SOL    HW230247   0.601 -15.184  24.620
 9414SOL     OW30248   5.227   3.850   3.547
 9414SOL    HW130249  38.392   3.933  25.628
 9414SOL    HW230250   5.223   3.822   3.638
 9415SOL     OW30251   2.181   6.544   0.656
 9415SOL    HW130252   2.230  17.663   0.677
 9415SOL    HW230253   2.129   6.527   0.734
 9416SOL     OW30254   8.944   8.860  10.597
 9416SOL    HW130255  -2.131  30.921 -11.569
 9416SOL    HW230256 -13.117   8.954  10.597
 9417SOL     OW30257   8.452   8.309   6.025
 9417SOL    HW130258   8.527  19.402   6.049
 9417SOL    HW230259   8.399   8.365   5.969
 9418SOL     OW30260   6.600   3.136   4.818
 9418SOL    HW130261   6.534   3.091  -6.168
 9418SOL    HW230262   6.581   3.229   4.830
 9419SOL     OW30263   8.272   8.356   2.934
 9419SOL    HW130264   8.301   8.372   2.845
 9419SOL    HW230265   8.232   8.269   2.931
 9420SOL     OW30266   8.563  11.052   1.256
 9420SOL    HW130267   8.650   0.027   1.294
 9420SOL    HW230268   8.510  11.124   1.290
 9421SOL     OW30269   7.732   8.376   1.101
 9421SOL    HW130270  -3.276   8.448   1.045
 9421SOL    HW230271   7.637   8.376   1.087
 9422SOL     OW30272   2.145   3.286   5.084
 9422SOL    HW130273   2.182 -18.717   5.039
 9422SOL    HW230274   2.167   3.300   5.176
 9423SOL     OW30275   5.909   3.847   1.413
 9423SOL    HW130276  16.883   3.882   1.352
 9423SOL    HW230277  16.940   3.902   1.491
 9424SOL     OW30278   9.887   9.447   3.162
 9424SOL    HW130279  20.869  -1.526  -7.842
 9424SOL    HW230280   9.926   9.406   3.239
 9425SOL     OW30281   4.137   5.737   5.925
 9425SOL    HW130282  -6.969  16.841   5.899
 9425SOL    HW230283   4.212   5.790  -5.086
 9426SOL     OW30284   2.374   2.894  10.629
 9426SOL    HW130285   2.449  -8.158  10.571
 9426SOL    HW230286   2.298   2.885  10.572
 9427SOL     OW30287   9.189   7.848   6.535
 9427SOL    HW130288   9.174   7.799   6.454
 9427SOL    HW230289   9.247   7.792  -4.454
 9428SOL     OW30290   8.390  10.492   5.183
 9428SOL    HW130291  -2.735  10.535  16.215
 9428SOL    HW230292   8.392  10.430   5.111
 9429SOL     OW30293  -1.450   5.141  11.859
 9429SOL    HW130294  20.560   5.087 -10.183
 9429SOL    HW230295  20.700   5.138  11.924
 9430SOL     OW30296   9.572   7.542  12.054
 9430SOL    HW130297   9.523  -3.562   1.066
 9430SOL    HW230298  -1.414  -3.451   1.078
 9431SOL     OW30299   5.725   8.335   6.792
 9431SOL    HW130300  16.738   8.406 -15.347
 9431SOL    HW230301   5.821   8.336   6.789
 9432SOL     OW30302  -0.134   4.201   0.874
 9432SOL    HW130303  33.022   4.286   0.852
 9432SOL    HW230304  10.867  26.248 -10.247
 9433SOL     OW30305   4.814   5.758   6.989
 9433SOL    HW130306  -6.228   5.790   7.079
 9433SOL    HW230307  -6.227   5.663   6.997
 9434SOL     OW30308   9.075   9.626   6.963
 9434SOL    HW130309   9.030   9.697  18.049
 9434SOL    HW230310  20.149   9.571   7.033
 9435SOL     OW30311   0.552   5.357  12.373
 9435SOL    HW130312   0.510   5.350  12.287
 9435SOL    HW230313   0.637 -16.763 -20.757
 9436SOL     OW30314  -1.787   4.407   8.915
 9436SOL    HW130315  -1.736   4.445   8.986
 9436SOL    HW230316  31.345  15.352  -2.115
 9437SOL     OW30317   5.521  11.691   7.535
 9437SOL    HW130318   5.606  11.735 -14.545
 9437SOL    HW230319   5.530 -10.457 -25.518
 9438SOL     OW30320   6.842   8.645   8.579
 9438SOL    HW130321   6.931   8.670  -2.436
 9438SOL    HW230322   6.789   8.669   8.655
 9439SOL     OW30323   0.423   6.896   3.698
 9439SOL    HW130324   0.476   6.974   3.684
 9439SOL    HW230325   0.335  40.048  14.758
 9440SOL     OW30326   8.037   3.167   4.108
 9440SOL    HW130327   8.120   3.196   4.144
 9440SOL    HW230328   8.025   3.078  26.219
 9441SOL     OW30329   3.113   4.075   6.221
 9441SOL    HW130330   3.018   4.068  17.273
 9441SOL    HW230331   3.143  -6.916  17.338
 9442SOL     OW30332   6.224   5.342   4.714
 9442SOL    HW130333  -4.858  16.320  15.813
 9442SOL    HW230334  -4.887   5.392   4.675
 9443SOL     OW30335   9.426   1.209   2.660
 9443SOL    HW130336  20.386   1.250   2.625
 9443SOL    HW230337   9.398   1.165   2.740
 9444SOL     OW30338   0.447   7.196   2.980
 9444SOL    HW130339   0.372   7.138   2.962
 9444SOL    HW230340   0.505   7.183   2.905
 9445SOL     OW30341   1.578   8.714   6.180
 9445SOL    HW130342   1.498  -2.355 -15.942
 9445SOL    HW230343  12.638   8.644  -4.797
 9446SOL     OW30344   2.790  10.925   4.086
 9446SOL    HW130345  -8.332  10.943  -6.908
 9446SOL    HW230346   2.811  10.835   4.108
 9447SOL     OW30347   7.255   8.034   2.607
 9447SOL    HW130348   7.263   7.989  24.602
 9447SOL    HW230349  18.201  41.172   2.615
 9448SOL     OW30350   0.564   8.055   7.962
 9448SOL    HW130351  11.570   8.058   7.872
 9448SOL    HW230352   0.488   8.037   8.016
 9449SOL     OW30353   2.089   1.331   4.450
 9449SOL    HW130354   2.063   1.332   4.357
 9449SOL    HW230355   2.156  -9.776  15.495
 9450SOL     OW30356  10.756   4.191   5.025
 9450SOL    HW130357  10.697  37.368   5.073
 9450SOL    HW230358  10.838  59.393  -5.967
 9451SOL     OW30359   9.089   1.041   5.934
 9451SOL    HW130360   9.091   1.005   5.845
 9451SOL    HW230361   9.105   0.965  39.109
 9452SOL     OW30362   5.384   8.418   3.603
 9452SOL    HW130363  27.443   8.430  -7.344
 9452SOL    HW230364   5.478  -2.641   3.601
 9453SOL     OW30365   1.822  10.222   4.743
 9453SOL    HW130366   1.896  10.174   4.706
 9453SOL    HW230367   1.759  10.154  -6.273
 9454SOL     OW30368   4.113  10.052   9.171
 9454SOL    HW130369  15.143  -1.027   9.258
 9454SOL    HW230370   4.144   9.979   9.116
 9455SOL     OW30371  10.802   7.049   8.980
 9455SOL    HW130372  -0.313  -4.047   8.995
 9455SOL    HW230373 -11.273   7.059  30.964
 9456SOL     OW30374   9.615   7.696   2.120
 9456SOL    HW130375   9.533   7.670   2.078
 9456SOL    HW230376  -1.359   7.636  13.123
 9457SOL     OW30377   4.386  10.290   3.461
 9457SOL    HW130378   4.359  21.384   3.535
 9457SOL    HW230379  -6.720  10.306  25.473
 9458SOL     OW30380  12.107   5.279   1.205
 9458SOL    HW130381  -9.926   5.304   1.125
 9458SOL    HW230382  12.162   5.314   1.276
 9459SOL     OW30383   0.402   1.438   0.775
 9459SOL    HW130384   0.440   1.350  11.812
 9459SOL    HW230385   0.357   1.447   0.690
 9460SOL     OW30386   5.094   6.269   8.602
 9460SOL    HW130387  27.162   6.206  -2.508
 9460SOL    HW230388   5.186   6.295   8.597
 9461SOL     OW30389   9.413   0.287  10.943
 9461SOL    HW130390   9.423   0.372  10.985
 9461SOL    HW230391   9.497   0.244  10.954
 9462SOL     OW30392   1.722   9.301   7.494
 9462SOL    HW130393   1.733   9.206   7.491
 9462SOL    HW230394   1.629   9.313 -14.566
 9463SOL     OW30395   5.769   3.077  11.019
 9463SOL    HW130396   5.734   3.164  -0.002
 9463SOL    HW230397  -5.341  25.096  11.042
 9464SOL     OW30398  10.367   5.449   9.571
 9464SOL    HW130399  10.415   5.388   9.627
 9464SOL    HW230400  10.404   5.535   9.591
 9465SOL     OW30401   9.793   9.379  13.183
 9465SOL    HW130402   9.876   9.382 -19.983
 9465SOL    HW230403   9.763  -1.570 -19.933
 9466SOL     OW30404   2.950   5.577   9.615
 9466SOL    HW130405  -8.185   5.584   9.618
 9466SOL    HW230406   2.967   5.504   9.556
 9467SOL     OW30407   5.445  10.442   6.072
 9467SOL    HW130408   5.376  10.476  28.208
 9467SOL    HW230409   5.483 -11.559   6.032
 9468SOL     OW30410   4.343   6.714   1.723
 9468SOL    HW130411  15.324  17.683   1.694
 9468SOL    HW230412  26.460   6.681   1.805
 9469SOL     OW30413  10.136   3.598   6.403
 9469SOL    HW130414  10.090   3.514   6.395
 9469SOL    HW230415  10.223  25.660   6.369
 9470SOL     OW30416   7.172  10.851  10.401
 9470SOL    HW130417   7.140  10.937  10.427
 9470SOL    HW230418   7.171  10.799  21.520
 9471SOL     OW30419   5.975   3.529   9.917
 9471SOL    HW130420  17.030 -29.684   9.921
 9471SOL    HW230421 -16.180   3.539   9.859
 9472SOL     OW30422   1.524  -0.556   4.930
 9472SOL    HW130423   1.451  10.511   4.986
 9472SOL    HW230424   1.590  -0.589  16.031
 9473SOL     OW30425   5.765   3.994   3.799
 9473SOL    HW130426  16.758   3.936   3.740
 9473SOL    HW230427  16.738  26.101   3.863
 9474SOL     OW30428   6.813   7.580   4.599
 9474SOL    HW130429  -4.205   7.673   4.608
 9474SOL    HW230430   6.718  -3.460  -6.452
 9475SOL     OW30431   4.585   8.193   8.209
 9475SOL    HW130432   4.594  19.303  19.313
 9475SOL    HW230433  -6.370   8.189  30.244
 9476SOL     OW30434   8.301   2.352   1.692
 9476SOL    HW130435   8.302   2.398   1.608
 9476SOL    HW230436   8.300   2.259   1.669
 9477SOL     OW30437   2.027   0.414   8.046
 9477SOL    HW130438   2.025   0.506 -25.046
 9477SOL    HW230439   2.019   0.417   7.951
 9478SOL     OW30440   4.616   5.226   3.555
 9478SOL    HW130441   4.629   5.278   3.476
 9478SOL    HW230442   4.696  -5.801  14.645
 9479SOL     OW30443   2.377   9.745   5.783
 9479SOL    HW130444   2.301  20.728   5.794
 9479SOL    HW230445   2.449   9.686   5.762
 9480SOL     OW30446   2.730   0.176   0.796
 9480SOL    HW130447   2.734   0.253  11.893
 9480SOL    HW230448   2.810   0.180 -10.295
 9481SOL     OW30449   7.010   9.720   9.565
 9481SOL    HW130450   6.996   9.655   9.495
 9481SOL    HW230451   6.990   9.804  -1.515
 9482SOL     OW30452   5.501   7.950   6.679
 9482SOL    HW130453  16.550   8.033  17.765
 9482SOL    HW230454   5.407  -3.101   6.668
 9483SOL     OW30455   6.081   1.167  -0.613
 9483SOL    HW130456   5.991   1.184  21.436
 9483SOL    HW230457   6.083  12.113  -0.594
 9484SOL     OW30458  12.137   8.809   8.678
 9484SOL    HW130459  -9.959   8.781   8.588
 9484SOL    HW230460  12.187  30.817   8.717
 9485SOL     OW30461   4.377   6.093   0.765
 9485SOL    HW130462   4.348   6.101   0.856
 9485SOL    HW230463   4.319 -15.929  11.755
 9486SOL     OW30464   3.610   6.646   2.653
 9486SOL    HW130465  -7.432   6.551   2.664
 9486SOL    HW230466  -7.367   6.661   2.583
 9487SOL     OW30467   6.119  10.328   2.757
 9487SOL    HW130468   6.167  10.342  13.878
 9487SOL    HW230469  17.209  10.261   2.711
 9488SOL     OW30470   3.063   1.739   5.662
 9488SOL    HW130471  -8.024   1.797   5.722
 9488SOL    HW230472   3.155  23.829   5.686
 9489SOL     OW30473  10.959   9.228   9.554
 9489SOL    HW130474 -11.048   9.187   9.508
 9489SOL    HW230475  -0.041   9.303  -1.441
 9490SOL     OW30476   2.467   0.922  -1.435
 9490SOL    HW130477   2.409   0.847  -1.444
 9490SOL    HW230478   2.408   0.998  31.689
 9491SOL     OW30479   9.169   3.367   5.134
 9491SOL    HW130480  -1.880   3.426 -27.910
 9491SOL    HW230481   9.163  14.319 -27.947
 9492SOL     OW30482   1.141   9.663   1.138
 9492SOL    HW130483   1.050   9.692   1.127
 9492SOL    HW230484   1.193   9.742   1.130
 9493SOL     OW30485   7.425   2.355   6.651
 9493SOL    HW130486   7.474   2.352  17.609
 9493SOL    HW230487   7.333   2.353   6.625
 9494SOL     OW30488  10.434   1.184   6.686
 9494SOL    HW130489  -0.666   1.174  17.800
 9494SOL    HW230490  -0.535   1.122   6.705
 9495SOL     OW30491   5.407   9.024   3.631
 9495SOL    HW130492   5.487   9.057   3.589
 9495SOL    HW230493   5.336  -1.975  25.661
 9496SOL     OW30494   6.207   5.811   5.649
 9496SOL    HW130495   6.123   5.825  16.643
 9496SOL    HW230496   6.263   5.881   5.617
 9497SOL     OW30497   1.436  10.341   2.593
 9497SOL    HW130498   1.458  10.389  -8.527
 9497SOL    HW230499   1.489  10.382   2.661
 9498SOL     OW30500   0.494   7.427  12.177
 9498SOL    HW130501  11.562 -14.738   1.168
 9498SOL    HW230502   0.550   7.444   1.061
 9499SOL     OW30503   9.280   5.127   1.655
 9499SOL    HW130504   9.276   5.032   1.643
 9499SOL    HW230505   9.370   5.150   1.633
 9500SOL     OW30506   3.329   0.843   8.521
 9500SOL    HW130507  25.495   0.815 -13.586
 9500SOL    HW230508   3.317   0.802   8.607
 9501SOL     OW30509  10.445  10.549   7.797
 9501SOL    HW130510  10.416  10.461  18.812
 9501SOL    HW230511  10.453  10.545   7.893
 9502SOL     OW30512   8.989   8.284   9.260
 9502SOL    HW130513   9.077   8.261   9.290
 9502SOL    HW230514   8.950  -2.839   9.234
 9503SOL     OW30515   6.044   3.455   8.491
 9503SOL    HW130516   6.108   3.386  -2.568
 9503SOL    HW230517   5.973  14.480   8.428
 9504SOL     OW30518   9.553   1.214   1.576
 9504SOL    HW130519   9.458  12.249  23.650
 9504SOL    HW230520  -1.462   1.280  45.669
 9505SOL     OW30521   1.593   2.771   2.003
 9505SOL    HW130522   1.666   2.798   1.946
 9505SOL    HW230523  12.559   2.825  -9.066
 9506SOL     OW30524   3.134   2.003  -0.303
 9506SOL    HW130525   3.174  13.032  10.823
 9506SOL    HW230526   3.207   2.028  -0.360
 9507SOL     OW30527  11.690   7.933  10.582
 9507SOL    HW130528 -10.437   8.000  -0.505
 9507SOL    HW230529  11.728   7.979  10.657
 9508SOL     OW30530  -0.704   3.433   8.715
 9508SOL    HW130531  21.435   3.369  19.717
 9508SOL    HW230532  10.284   3.465   8.640
 9509SOL     OW30533   5.297   9.082   4.115
 9509SOL    HW130534   5.243   9.006  15.174
 9509SOL    HW230535  -5.759   9.101  15.062
 9510SOL     OW30536   0.639   8.890   2.657
 9510SOL    HW130537   0.547   8.867   2.662
 9510SOL    HW230538   0.685   8.812   2.686
 9511SOL     OW30539   1.420   7.801   2.523
 9511SOL    HW130540  -9.642   7.821   2.614
 9511SOL    HW230541   1.450 -69.393   2.487
 9512SOL     OW30542  10.127   9.152   5.039
 9512SOL    HW130543  10.058   9.130   5.101
 9512SOL    HW230544  10.099   9.112   4.956
 9513SOL     OW30545   5.949   1.660   3.319
 9513SOL    HW130546   5.924   1.748  14.330
 9513SOL    HW230547   5.966   1.612  14.278
 9514SOL     OW30548   7.869   0.771   6.234
 9514SOL    HW130549  18.985  11.758   6.255
 9514SOL    HW230550   7.850  11.790   6.142
 9515SOL     OW30551  10.212   3.749   9.618
 9515SOL    HW130552  10.268   3.823   9.598
 9515SOL    HW230553  10.126   3.788   9.637
 9516SOL     OW30554   8.394   2.498   0.454
 9516SOL    HW130555   8.457   2.545  11.548
 9516SOL    HW230556   8.380   2.415   0.500
 9517SOL     OW30557  11.017   3.138   9.279
 9517SOL    HW130558  11.030  -7.827   9.338
 9517SOL    HW230559  10.934   3.100   9.306
 9518SOL     OW30560   8.428   6.730   5.274
 9518SOL    HW130561  -2.647   6.747  -5.679
 9518SOL    HW230562   8.523   6.733   5.286
 9519SOL     OW30563   1.067   5.794   7.552
 9519SOL    HW130564  45.167   5.797  40.747
 9519SOL    HW230565   1.155  -5.242  29.667
 9520SOL     OW30566   1.345   2.268   6.869
 9520SOL    HW130567   1.370   2.340   6.811
 9520SOL    HW230568  12.420   2.190  17.867
 9521SOL     OW30569  10.192   0.006  11.002
 9521SOL    HW130570  10.178   0.100 -11.092
 9521SOL    HW230571 -23.001  -0.036 -11.121
 9522SOL     OW30572   6.859   0.453   1.621
 9522SOL    HW130573   6.807   0.533  -9.423
 9522SOL    HW230574   6.807   0.394   1.675
 9523SOL     OW30575   9.327   9.514   7.740
 9523SOL    HW130576 -12.774   9.548   7.653
 9523SOL    HW230577  -1.764   9.568   7.800
 9524SOL     OW30578   9.125   9.503  -0.179
 9524SOL    HW130579   9.097   9.448  10.933
 9524SOL    HW230580   9.221   9.502  -0.174
 9525SOL     OW30581   3.377   8.791   6.603
 9525SOL    HW130582  -7.697  30.949   6.645
 9525SOL    HW230583   3.318   8.776   6.529
 9526SOL     OW30584  -1.733   6.101   0.748
 9526SOL    HW130585  20.415  -4.935 -10.358
 9526SOL    HW230586  20.381 -16.036  11.855
 9527SOL     OW30587   6.347   7.169   1.679
 9527SOL    HW130588   6.259  -3.905  12.734
 9527SOL    HW230589   6.332  -3.787   1.634
 9528SOL     OW30590   5.499   3.494  -1.177
 9528SOL    HW130591  -5.557   3.505   9.956
 9528SOL    HW230592 -16.611   3.406   9.842
 9529SOL     OW30593   4.186  10.271   2.808
 9529SOL    HW130594   4.277  21.340   2.807
 9529SOL    HW230595  -6.884  10.292   2.896
 9530SOL     OW30596   3.988   4.112   9.756
 9530SOL    HW130597  -7.067   4.126   9.849
 9530SOL    HW230598   4.046  15.223  20.769
 9531SOL     OW30599   7.169   9.311   2.922
 9531SOL    HW130600   7.136 -23.789   2.833
 9531SOL    HW230601  18.131  20.358  25.057
 9532SOL     OW30602   1.535   2.142   7.054
 9532SOL    HW130603  12.578   2.173  18.003
 9532SOL    HW230604   1.444  35.237 -15.011
 9533SOL     OW30605   4.412   9.687   8.544
 9533SOL    HW130606  15.481   9.597   8.558
 9533SOL    HW230607   4.493   9.738   8.540
 9534SOL     OW30608   4.820   7.957   6.626
 9534SOL    HW130609 -28.313  19.091  17.674
 9534SOL    HW230610  -6.170   7.948  17.584
 9535SOL     OW30611   7.219   5.188   1.663
 9535SOL    HW130612   7.275   5.208  12.628
 9535SOL    HW230613  -3.841   5.095   1.654
 9536SOL     OW30614   9.363  12.253   9.195
 9536SOL    HW130615   9.344  12.345   9.179
 9536SOL    HW230616   9.452  -9.838   9.164
 9537SOL     OW30617   6.237   8.895   2.118
 9537SOL    HW130618   6.292  -2.085   2.067
 9537SOL    HW230619   6.257  -2.231   2.083
 9538SOL     OW30620   9.632   9.447   9.372
 9538SOL    HW130621   9.657   9.453  -1.575
 9538SOL    HW230622   9.652   9.534  -1.703
 9539SOL     OW30623   2.197   6.844   2.105
 9539SOL    HW130624  13.174  -4.138   2.149
 9539SOL    HW230625  -8.797  17.941   2.044
 9540SOL     OW30626   6.489  10.658   2.914
 9540SOL    HW130627   6.425  10.723   2.886
 9540SOL    HW230628  28.520  10.575   2.912
 9541SOL     OW30629  14.740  10.549   1.855
 9541SOL    HW130630 -51.467  10.607   1.784
 9541SOL    HW230631  -7.340  10.462   1.816
 9542SOL     OW30632   7.063  10.971   6.176
 9542SOL    HW130633   6.998  10.965   6.106
 9542SOL    HW230634   7.023  11.030  39.359
 9543SOL     OW30635   8.255   9.921   6.553
 9543SOL    HW130636   8.245   9.934   6.647
 9543SOL    HW230637   8.170   9.890   6.523
 9544SOL     OW30638   7.837  10.193   7.126
 9544SOL    HW130639   7.814  10.112   7.172
 9544SOL    HW230640   7.885 -11.835  -3.849
 9545SOL     OW30641   8.119   4.688   3.283
 9545SOL    HW130642   8.191   4.681   3.345
 9545SOL    HW230643   8.092   4.597  -7.773
 9546SOL     OW30644   8.229   0.403   2.021
 9546SOL    HW130645   8.199   0.494   2.025
 9546SOL    HW230646   8.154   0.354   1.986
 9547SOL     OW30647  -0.473   3.515   5.220
 9547SOL    HW130648  -0.503   3.450   5.284
 9547SOL    HW230649  10.623 -29.654  16.200
 9548SOL     OW30650   4.133   9.014   3.428
 9548SOL    HW130651   4.109   9.105   3.447
 9548SOL    HW230652   4.160   8.979  14.553
 9549SOL     OW30653   7.220   7.378   7.723
 9549SOL    HW130654  18.288  18.334  29.764
 9549SOL    HW230655 -14.822  18.416  18.851
 9550SOL     OW30656   4.818  10.979   7.833
 9550SOL    HW130657   4.780  11.038   7.767
 9550SOL    HW230658   4.819  10.893   7.790
 9551SOL     OW30659  10.287   6.601   5.511
 9551SOL    HW130660  10.213   6.605   5.572
 9551SOL    HW230661  10.252  -4.483   5.434
 9552SOL     OW30662   7.868   8.779   1.833
 9552SOL    HW130663   7.815  19.870   1.772
 9552SOL    HW230664   7.830 -13.282   1.919
 9553SOL     OW30665   9.400   6.020   2.119
 9553SOL    HW130666   9.347   6.001   2.042
 9553SOL    HW230667   9.473   5.958  13.154
 9554SOL     OW30668   1.320   4.969   3.444
 9554SOL    HW130669   1.407  -6.062  -7.558
 9554SOL    HW230670   1.330 -28.124   3.352
 9555SOL     OW30671   8.977   3.891   6.891
 9555SOL    HW130672  20.089   3.899   6.830
 9555SOL    HW230673   8.914  14.996   6.862
 9556SOL     OW30674   5.623  11.069   0.514
 9556SOL    HW130675   5.701  11.015   0.527
 9556SOL    HW230676 -27.464 -21.974   0.464
 9557SOL     OW30677   9.458   2.074   1.327
 9557SOL    HW130678   9.374 -20.020   1.370
 9557SOL    HW230679 -12.565   2.108  12.436
 9558SOL     OW30680   0.608  10.764  10.370
 9558SOL    HW130681 -10.481  10.821  10.312
 9558SOL    HW230682  22.717  -0.347  10.315
 9559SOL     OW30683   3.454  10.082  10.977
 9559SOL    HW130684   3.413  10.001 -33.212
 9559SOL    HW230685   3.466  10.135 -11.180
 9560SOL     OW30686   8.926   2.146   8.935
 9560SOL    HW130687  -2.139   2.180   9.021
 9560SOL    HW230688   9.014   2.111   8.948
 9561SOL     OW30689  10.563   8.410   2.969
 9561SOL    HW130690  10.608  19.446   2.884
 9561SOL    HW230691  10.591  30.572   3.008
 9562SOL     OW30692   5.236   9.893   2.686
 9562SOL    HW130693  -5.788  -1.194   2.768
 9562SOL    HW230694  16.181   9.895   2.677
 9563SOL     OW30695   9.514   1.599  10.314
 9563SOL    HW130696   9.541   1.690 -11.750
 9563SOL    HW230697   9.502   1.593  10.219
 9564SOL     OW30698   7.379   5.246   0.940
 9564SOL    HW130699  18.447   5.185   1.009
 9564SOL    HW230700   7.404   5.332   0.973
 9565SOL     OW30701   8.336  10.683  11.166
 9565SOL    HW130702   8.341  10.779  11.164
 9565SOL    HW230703   8.323  10.659   0.035
 9566SOL     OW30704   9.147   8.402   5.459
 9566SOL    HW130705  31.156  30.429 -16.659
 9566SOL    HW230706 -12.936   8.486  38.533
 9567SOL     OW30707   3.259   1.464   5.486
 9567SOL    HW130708  25.418   1.495   5.528
 9567SOL    HW230709   3.279  -9.574 -27.727
 9568SOL     OW30710  10.404   5.728   5.031
 9568SOL    HW130711  -0.709   5.787   5.052
 9568SOL    HW230712  -0.602   5.760   4.948
 9569SOL     OW30713  10.580   9.400   3.829
 9569SOL    HW130714  10.523   9.477   3.821
 9569SOL    HW230715  -0.507   9.340  14.926
 9570SOL     OW30716   0.698   7.606  11.841
 9570SOL    HW130717   0.665   7.690   0.833
 9570SOL    HW230718   0.747   7.570   0.875
 9571SOL     OW30719   8.935   1.986  -0.030
 9571SOL    HW130720  20.050  13.075  11.040
 9571SOL    HW230721   8.870 -31.123   0.039
 9572SOL     OW30722   9.669   7.224   8.058
 9572SOL    HW130723   9.719   7.142   8.066
 9572SOL    HW230724  -1.426   7.211   7.982
 9573SOL     OW30725   2.717   7.588   3.758
 9573SOL    HW130726 -19.324   7.674   3.773
 9573SOL    HW230727  -8.333  -3.489   3.846
 9574SOL     OW30728  12.891   6.485   9.084
 9574SOL    HW130729 -53.416   6.551   9.089
 9574SOL    HW230730   1.823   6.426  20.054
 9575SOL     OW30731   3.367   2.225   7.560
 9575SOL    HW130732   3.435  13.256   7.627
 9575SOL    HW230733   3.364   2.139   7.518
 9576SOL     OW30734   4.198   7.458   8.641
 9576SOL    HW130735   4.246  29.467   8.597
 9576SOL    HW230736  26.339   7.531   8.644
 9577SOL     OW30737  10.601   3.751   3.426
 9577SOL    HW130738  10.514   3.787  14.452
 9577SOL    HW230739  -0.448 -29.430  -7.541
 9578SOL     OW30740   3.706   1.506   8.101
 9578SOL    HW130741   3.617   1.503   8.135
 9578SOL    HW230742   3.761   1.478   8.175
 9579SOL     OW30743  10.691   1.023  10.022
 9579SOL    HW130744  10.760   1.085  10.046
 9579SOL    HW230745  10.629  12.115  21.011
 9580SOL     OW30746  10.937  10.032   9.158
 9580SOL    HW130747  10.885  10.111   9.171
 9580SOL    HW230748  10.991  10.026  -1.803
 9581SOL     OW30749   3.817   9.287   7.612
 9581SOL    HW130750  -7.315  20.347   7.597
 9581SOL    HW230751   3.853   9.365 -14.425
 9582SOL     OW30752   8.343   2.370   4.538
 9582SOL    HW130753 -13.825   2.339  -6.483
 9582SOL    HW230754   8.332   2.459   4.507
 9583SOL     OW30755   8.387   3.981   7.515
 9583SOL    HW130756  19.419   3.955   7.607
 9583SOL    HW230757   8.450   4.054   7.516
 9584SOL     OW30758   6.525   2.117   5.643
 9584SOL    HW130759  17.563  13.082   5.703
 9584SOL    HW230760   6.524   2.078   5.556
 9585SOL     OW30761   5.037   9.834   2.056
 9585SOL    HW130762   5.129   9.849   2.031
 9585SOL    HW230763   5.024 -12.189   2.132
 9586SOL     OW30764   0.144   4.589   8.955
 9586SOL    HW130765   0.099   4.560  20.074
 9586SOL    HW230766   0.117   4.681   8.944
 9587SOL     OW30767   6.203   1.138  10.761
 9587SOL    HW130768   6.208  12.168  10.856
 9587SOL    HW230769   6.111  12.198  10.744
 9588SOL     OW30770   4.797   8.829   4.996
 9588SOL    HW130771   4.838  30.881  16.117
 9588SOL    HW230772   4.868  19.911   4.946
 9589SOL     OW30773   8.491   4.707   4.282
 9589SOL    HW130774   8.448   4.758   4.351
 9589SOL    HW230775   8.422   4.688 -17.860
 9590SOL     OW30776   7.390   0.502   4.156
 9590SOL    HW130777 -14.684   0.411  -6.852
 9590SOL    HW230778   7.481   0.528   4.143
 9591SOL     OW30779   9.935   9.488   6.290
 9591SOL    HW130780 -12.102  31.499  17.277
 9591SOL    HW230781  -1.112   9.562   6.230
 9592SOL     OW30782   5.347   3.515   0.615
 9592SOL    HW130783  27.376   3.597   0.624
 9592SOL    HW230784  27.505 -29.589   0.667
 9593SOL     OW30785   4.791   1.531  10.228
 9593SOL    HW130786  37.825   1.487  -0.805
 9593SOL    HW230787   4.771  34.742  10.246
 9594SOL     OW30788   3.682   2.553  11.364
 9594SOL    HW130789 -18.340   2.618  11.325
 9594SOL    HW230790  -7.332   2.550 -21.663
 9595SOL     OW30791   7.992   3.480   7.978
 9595SOL    HW130792 -25.185  14.595  -3.073
 9595SOL    HW230793   8.004   3.444   7.890
 9596SOL     OW30794   5.255  -0.563   3.843
 9596SOL    HW130795  -5.707  -0.550   3.898
 9596SOL    HW230796   5.223  10.389  -7.173
 9597SOL     OW30797   0.145  -0.193   0.742
 9597SOL    HW130798   0.230  10.833  22.863
 9597SOL    HW230799   0.163  10.840  11.688
 9598SOL     OW30800   7.865   3.799   2.085
 9598SOL    HW130801  18.948   3.874   2.045
 9598SOL    HW230802   7.821   3.835   2.162
 9599SOL     OW30803   7.684   4.295   0.569
 9599SOL    HW130804  18.782   4.336   0.633
 9599SOL    HW230805  29.688   4.265   0.620
 9600SOL     OW30806   5.202   7.494   5.709
 9600SOL    HW130807   5.239   7.572   5.668
 9600SOL    HW230808  -5.931   7.513   5.717
 9601SOL     OW30809   2.104   4.293   2.555
 9601SOL    HW130810   2.094   4.199 -19.512
 9601SOL    HW230811   2.083   4.331  24.720
 9602SOL     OW30812   7.629   0.354  10.111
 9602SOL    HW130813  29.618  11.412  21.176
 9602SOL    HW230814   7.663   0.438  10.082
 9603SOL     OW30815   6.209   8.206   6.646
 9603SOL    HW130816  17.168   8.184   6.693
 9603SOL    HW230817   6.185   8.280   6.590
 9604SOL     OW30818   5.459   8.654   0.837
 9604SOL    HW130819   5.476 -13.393  33.867
 9604SOL    HW230820   5.370   8.684 -10.183
 9605SOL     OW30821   8.358  10.641   4.007
 9605SOL    HW130822   8.404  10.638   4.091
 9605SOL    HW230823   8.360  10.550  26.055
 9606SOL     OW30824   2.301   3.827   5.437
 9606SOL    HW130825   2.374   3.883   5.464
 9606SOL    HW230826   2.248   3.816  -5.523
 9607SOL     OW30827   6.026   8.203   9.294
 9607SOL    HW130828   6.068  -2.790   9.367
 9607SOL    HW230829   5.936   8.189  -1.717
 9608SOL     OW30830   0.057   1.143   1.455
 9608SOL    HW130831  -0.014   1.084 -20.599
 9608SOL    HW230832   0.114   1.147   1.531
 9609SOL     OW30833   9.403   2.505   3.359
 9609SOL    HW130834 -23.656   2.557   3.305
 9609SOL    HW230835  -1.705   2.477 -18.781
 9610SOL     OW30836   4.909   9.003   8.114
 9610SOL    HW130837  16.029   9.031   8.158
 9610SOL    HW230838   4.839   9.044  -2.876
 9611SOL     OW30839   1.710  10.578   3.511
 9611SOL    HW130840   1.628  10.619  -7.503
 9611SOL    HW230841   1.713  10.495   3.559
 9612SOL     OW30842  10.736   9.569   1.582
 9612SOL    HW130843  10.643   9.549  23.670
 9612SOL    HW230844  10.780   9.499   1.631
 9613SOL     OW30845   8.273   2.186  -0.025
 9613SOL    HW130846   8.239  -8.911  11.084
 9613SOL    HW230847   8.355  13.184  -0.051
 9614SOL     OW30848   6.445   8.266   4.430
 9614SOL    HW130849  28.479   8.274   4.346
 9614SOL    HW230850  28.520 -13.725   4.467
 9615SOL     OW30851   9.034   4.383   5.290
 9615SOL    HW130852   9.049   4.297  16.292
 9615SOL    HW230853   9.120   4.426   5.288
 9616SOL     OW30854   2.902   8.905   2.612
 9616SOL    HW130855 -41.304 -13.218   2.682
 9616SOL    HW230856   2.863 -13.086  13.648
 9617SOL     OW30857   8.814  -1.026   4.019
 9617SOL    HW130858  -2.226  -1.121  15.042
 9617SOL    HW230859   8.724  21.074  15.081
 9618SOL     OW30860   7.166   2.985   4.929
 9618SOL    HW130861   7.082 -19.093   4.881
 9618SOL    HW230862   7.164  -7.973  -6.060
 9619SOL     OW30863   6.276   9.761   2.342
 9619SOL    HW130864  28.325  -1.362   2.307
 9619SOL    HW230865  28.413 -23.382  -8.626
 9620SOL     OW30866   5.945  10.506   1.093
 9620SOL    HW130867   5.908  10.420   1.074
 9620SOL    HW230868   5.877  10.550   1.144
 9621SOL     OW30869   3.292   1.148   2.360
 9621SOL    HW130870   3.381  -9.859  24.453
 9621SOL    HW230871  14.340   1.053  13.403
 9622SOL     OW30872  10.394   3.406   4.412
 9622SOL    HW130873  21.340   3.427  -6.622
 9622SOL    HW230874  10.423   3.400   4.503
 9623SOL     OW30875   9.227   4.140   1.412
 9623SOL    HW130876  -1.851   4.208   1.358
 9623SOL    HW230877   9.276 -29.034   1.351
 9624SOL     OW30878   1.744  12.047   0.965
 9624SOL    HW130879   1.687  -9.999   1.034
 9624SOL    HW230880   1.751   0.914   0.981
 9625SOL     OW30881   9.150   8.318   3.443
 9625SOL    HW130882   9.158   8.223  14.489
 9625SOL    HW230883  20.146   8.344   3.524
 9626SOL     OW30884   7.650  -1.434   9.946
 9626SOL    HW130885  18.773  -1.386   9.949
 9626SOL    HW230886   7.613  42.745   9.860
 9627SOL     OW30887   4.031   4.739   4.609
 9627SOL    HW130888 -18.042   4.783   4.524
 9627SOL    HW230889 -17.982  -6.257   4.663
 9628SOL     OW30890   9.746   1.469   9.450
 9628SOL    HW130891   9.775  -9.491  20.534
 9628SOL    HW230892   9.823   1.412   9.449
 9629SOL     OW30893   3.988   9.483  11.110
 9629SOL    HW130894   3.987   9.568   0.027
 9629SOL    HW230895  -7.075   9.502  11.201
 9630SOL     OW30896   1.559  11.491   0.523
 9630SOL    HW130897   1.484   0.502  11.595
 9630SOL    HW230898   1.532  11.400  11.574
 9631SOL     OW30899   4.943   2.157   8.922
 9631SOL    HW130900   4.999  35.274   8.845
 9631SOL    HW230901   4.871   2.096   8.901
 9632SOL     OW30902   2.818   3.527  10.664
 9632SOL    HW130903  -8.245  14.527  10.580
 9632SOL    HW230904   2.853   3.454  10.716
 9633SOL     OW30905   4.459   7.080   9.926
 9633SOL    HW130906   4.460  -4.027  -1.046
 9633SOL    HW230907 -28.597   7.146 -23.161
 9634SOL     OW30908   8.136   6.561   0.190
 9634SOL    HW130909  19.170   6.601   0.103
 9634SOL    HW230910   8.150   6.635   0.249
 9635SOL     OW30911   3.919   7.632   5.970
 9635SOL    HW130912 -18.222  -3.480   5.958
 9635SOL    HW230913   3.993   7.609   5.913
 9636SOL     OW30914   4.636   7.611   0.541
 9636SOL    HW130915  15.716   7.557   0.473
 9636SOL    HW230916   4.701  40.731   0.611
 9637SOL     OW30917  11.095   7.506   7.802
 9637SOL    HW130918  11.171  -3.590   7.788
 9637SOL    HW230919  -0.019   7.447  18.843
 9638SOL     OW30920  10.749   4.738   2.352
 9638SOL    HW130921  10.753   4.813 -19.668
 9638SOL    HW230922 -11.421  15.773   2.323
 9639SOL     OW30923   8.677   2.287  11.022
 9639SOL    HW130924  -2.398   2.347   0.048
 9639SOL    HW230925   8.771  24.382  11.023
 9640SOL     OW30926   1.393   2.695   8.393
 9640SOL    HW130927   1.368  -8.347   8.301
 9640SOL    HW230928   1.356   2.777   8.426
 9641SOL     OW30929   3.365   2.781   6.987
 9641SOL    HW130930   3.447   2.731   6.978
 9641SOL    HW230931   3.374   2.851  17.962
 9642SOL     OW30932  -2.848   6.781   8.982
 9642SOL    HW130933  30.362   6.786   9.008
 9642SOL    HW230934  19.188  17.889  20.072
 9643SOL     OW30935   1.865   3.306   8.677
 9643SOL    HW130936  -9.250   3.350  19.757
 9643SOL    HW230937   1.922   3.284   8.750
 9644SOL     OW30938   6.851   8.126   5.711
 9644SOL    HW130939   6.776  -2.930  27.733
 9644SOL    HW230940   6.919   8.067  16.718
 9645SOL     OW30941   1.638   3.724   9.795
 9645SOL    HW130942   1.717  25.750  -1.258
 9645SOL    HW230943  -9.379  14.850   9.761
 9646SOL     OW30944   9.269  10.899   0.581
 9646SOL    HW130945  20.364  10.936  33.767
 9646SOL    HW230946   9.330  10.862  11.556
 9647SOL     OW30947   6.240  11.357   6.114
 9647SOL    HW130948  17.262 -10.773   6.194
 9647SOL    HW230949  17.270  11.294   6.043
 9648SOL     OW30950   0.911   0.867   7.960
 9648SOL    HW130951   0.854   0.791   7.971
 9648SOL    HW230952   0.941  11.927  19.088
 9649SOL     OW30953   9.847   9.115   1.370
 9649SOL    HW130954  20.914   9.181   1.306
 9649SOL    HW230955   9.874   9.151   1.455
 9650SOL     OW30956   7.041   2.761   9.660
 9650SOL    HW130957   7.100   2.774  -1.306
 9650SOL    HW230958   7.066   2.676   9.624
 9651SOL     OW30959   1.231   7.741   9.297
 9651SOL    HW130960   1.173   7.685   9.246
 9651SOL    HW230961   1.310   7.749  31.322
 9652SOL     OW30962   5.311  -0.429   2.655
 9652SOL    HW130963   5.258  -0.378   2.716
 9652SOL    HW230964   5.284  10.641  -8.471
 9653SOL     OW30965   0.178   8.381   3.799
 9653SOL    HW130966   0.154   8.403   3.889
 9653SOL    HW230967   0.261   8.426   3.784
 9654SOL     OW30968   1.431   6.603   2.334
 9654SOL    HW130969   1.408   6.523   2.286
 9654SOL    HW230970   1.527   6.607   2.329
 9655SOL     OW30971   7.872   2.160   5.023
 9655SOL    HW130972   7.833   2.077   4.995
 9655SOL    HW230973   7.903   2.143   5.112
 9656SOL     OW30974   7.462   0.433   9.212
 9656SOL    HW130975   7.475   0.392  -1.913
 9656SOL    HW230976  -3.671  11.459   9.232
 9657SOL     OW30977   4.001   1.588   8.110
 9657SOL    HW130978  -7.108   1.636   8.066
 9657SOL    HW230979   4.077   1.646   8.109
 9658SOL     OW30980   2.031   3.700   5.158
 9658SOL    HW130981  13.006   3.651   5.209
 9658SOL    HW230982   2.049   3.778  16.250
 9659SOL     OW30983   1.859   1.985   8.481
 9659SOL    HW130984  12.892  13.101   8.425
 9659SOL    HW230985   1.779  12.974   8.462
 9660SOL     OW30986   1.886   5.458   5.157
 9660SOL    HW130987   1.840  -5.651 -16.875
 9660SOL    HW230988  23.896   5.521   5.136
 9661SOL     OW30989   9.858   6.015   0.309
 9661SOL    HW130990   9.856   6.064   0.391
 9661SOL    HW230991   9.784   6.050   0.259
 9662SOL     OW30992   6.775   0.234   6.862
 9662SOL    HW130993   6.820 -10.825  17.819
 9662SOL    HW230994   6.805  11.205   6.921
 9663SOL     OW30995   2.530   6.184   3.315
 9663SOL    HW130996  -8.431   6.132   3.336
 9663SOL    HW230997  24.644   6.270  14.331
 9664SOL     OW30998   7.085   3.218   4.340
 9664SOL    HW130999   7.032   3.291  37.426
 9664SOL    HW231000   7.094  -7.880   4.265
 9665SOL     OW31001   5.618   6.901   7.309
 9665SOL    HW131002   5.574   6.817   7.314
 9665SOL    HW231003  16.737   6.884   7.258
 9666SOL     OW31004   4.299   6.325   1.881
 9666SOL    HW131005   4.208  -4.705  -9.187
 9666SOL    HW231006  26.429   6.331   1.800
 9667SOL     OW31007   9.160   5.866   8.905
 9667SOL    HW131008  -1.899 -16.174  30.899
 9667SOL    HW231009   9.250   5.893   8.924
 9668SOL     OW31010   1.384   2.416   7.240
 9668SOL    HW131011 -20.631   2.486   7.253
 9668SOL    HW231012   1.423   2.361   7.172
 9669SOL     OW31013  10.672  -0.668   2.792
 9669SOL    HW131014  -0.409  21.328  -8.272
 9669SOL    HW231015  10.752  32.425   2.838
 9670SOL     OW31016   4.665   5.104   4.488
 9670SOL    HW131017  -6.329  16.209   4.541
 9670SOL    HW231018   4.696   5.020   4.521
 9671SOL     OW31019   3.566   8.650   7.248
 9671SOL    HW131020  -7.457   8.699   7.168
 9671SOL    HW231021   3.550  30.640   7.220
 9672SOL     OW31022   8.858   2.545   2.976
 9672SOL    HW131023   8.793   2.614   2.982
 9672SOL    HW231024   8.937  -8.457   3.014
 9673SOL     OW31025  10.152  10.863   6.264
 9673SOL    HW131026  10.177  10.785   6.312
 9673SOL    HW231027  10.230  10.887   6.214
 9674SOL     OW31028   1.719   1.641   2.141
 9674SOL    HW131029   1.652   1.609   2.081
 9674SOL    HW231030   1.781   1.687   2.085
 9675SOL     OW31031   7.928   5.267   2.997
 9675SOL    HW131032   7.910  16.361   2.920
 9675SOL    HW231033  -3.197  16.292   3.037
 9676SOL     OW31034   6.056   6.771   7.237
 9676SOL    HW131035 -38.192 -15.331   7.211
 9676SOL    HW231036 -27.007   6.730  18.211
 9677SOL     OW31037   7.463   4.653   0.104
 9677SOL    HW131038  18.446   4.727   0.081
 9677SOL    HW231039  40.614   4.621   0.020
 9678SOL     OW31040  10.628   0.037   2.095
 9678SOL    HW131041  10.604   0.129  13.142
 9678SOL    HW231042  10.563   0.000   2.034
 9679SOL     OW31043  10.611   0.359  12.531
 9679SOL    HW131044  10.597   0.377  12.624
 9679SOL    HW231045  10.529  22.464 -20.629
 9680SOL     OW31046   6.164   7.273   9.373
 9680SOL    HW131047   6.240   7.295   9.426
 9680SOL    HW231048   6.090   7.314   9.419
 9681SOL     OW31049   6.307   0.797   8.391
 9681SOL    HW131050   6.395   0.770   8.367
 9681SOL    HW231051   6.313   0.892   8.400
 9682SOL     OW31052   6.175   3.350   9.656
 9682SOL    HW131053  -4.849   3.336   9.749
 9682SOL    HW231054   6.196   3.265   9.615
 9683SOL     OW31055   5.302   6.651   0.302
 9683SOL    HW131056   5.231  -4.451  22.392
 9683SOL    HW231057  27.339   6.730  11.310
 9684SOL     OW31058   8.171   5.010   6.334
 9684SOL    HW131059   8.265   5.018   6.349
 9684SOL    HW231060  19.195  15.955  17.367
 9685SOL     OW31061   8.162   6.528   1.112
 9685SOL    HW131062  19.204   6.483   1.027
 9685SOL    HW231063  41.275   6.457   1.176
 9686SOL     OW31064   1.530  10.993   7.081
 9686SOL    HW131065   1.610  10.949   7.110
 9686SOL    HW231066   1.459  10.946  40.243
 9687SOL     OW31067   2.256   9.140   1.067
 9687SOL    HW131068  -8.870   9.101   1.055
 9687SOL    HW231069   2.240  31.313   1.072
 9688SOL     OW31070  10.827   3.999   5.292
 9688SOL    HW131071  10.750   4.018   5.345
 9688SOL    HW231072  10.814   3.911   5.259
 9689SOL     OW31073   1.601   0.941   0.456
 9689SOL    HW131074  -9.487   1.023   0.463
 9689SOL    HW231075   1.546   0.877  11.540
 9690SOL     OW31076   1.450   9.356   8.442
 9690SOL    HW131077 -20.711   9.404   8.458
 9690SOL    HW231078   1.447  -1.703   8.348
 9691SOL     OW31079   4.579   5.835   5.599
 9691SOL    HW131080   4.662  -5.161  16.659
 9691SOL    HW231081   4.591   5.800   5.511
 9692SOL     OW31082   5.082   1.710   2.626
 9692SOL    HW131083 -17.009 -20.315   2.704
 9692SOL    HW231084  27.078   1.662   2.617
 9693SOL     OW31085   0.637   4.125   0.840
 9693SOL    HW131086 -10.327   4.084  11.837
 9693SOL    HW231087   0.598  15.218   0.771
 9694SOL     OW31088  12.407   5.708  10.617
 9694SOL    HW131089 -20.620   5.717  -0.399
 9694SOL    HW231090  12.377  16.836  10.598
 9695SOL     OW31091   2.631   6.401  10.755
 9695SOL    HW131092  13.593  39.476  10.788
 9695SOL    HW231093  35.797 -15.650  10.834
 9696SOL     OW31094   5.963   7.528   3.785
 9696SOL    HW131095   5.916  -3.593   3.764
 9696SOL    HW231096   5.964  18.616   3.702
 9697SOL     OW31097   9.041  10.436  10.267
 9697SOL    HW131098   9.015  10.349  10.297
 9697SOL    HW231099   9.091  10.419  -0.853
 9698SOL     OW31100   9.783  10.702  10.612
 9698SOL    HW131101  20.880  10.754  10.557
 9698SOL    HW231102   9.726  10.766  10.655
 9699SOL     OW31103   0.461   9.603   6.712
 9699SOL    HW131104   0.415   9.610  17.669
 9699SOL    HW231105   0.554  20.635 -15.392
 9700SOL     OW31106  11.107   4.812  11.682
 9700SOL    HW131107 -11.057   4.769 -10.401
 9700SOL    HW231108   0.104   4.801 -21.524
 9701SOL     OW31109   6.021   9.003   4.573
 9701SOL    HW131110   5.985  -2.024   4.661
 9701SOL    HW231111   5.945   8.982   4.519
 9702SOL     OW31112   9.402   0.692   5.843
 9702SOL    HW131113   9.366   0.603   5.838
 9702SOL    HW231114  -1.708   0.743   5.882
 9703SOL     OW31115   7.051   7.509  11.308
 9703SOL    HW131116   7.133  -3.503   0.228
 9703SOL    HW231117   7.070   7.505  11.401
 9704SOL     OW31118   2.350   1.940   6.458
 9704SOL    HW131119  -8.664   1.855   6.496
 9704SOL    HW231120   2.400  12.985   6.377
 9705SOL     OW31121   7.296   4.558  10.878
 9705SOL    HW131122  -3.653   4.585  10.894
 9705SOL    HW231123   7.253   4.637  10.843
 9706SOL     OW31124   8.246   9.366  -0.716
 9706SOL    HW131125  30.274   9.399  32.476
 9706SOL    HW231126   8.335  -1.641  -0.701
 9707SOL     OW31127   8.086   4.405   4.598
 9707SOL    HW131128   7.992   4.394   4.605
 9707SOL    HW231129   8.102   4.492   4.635
 9708SOL     OW31130   1.192  10.389   2.460
 9708SOL    HW131131   1.242  10.368  -8.501
 9708SOL    HW231132   1.206  10.315 -19.678
 9709SOL     OW31133  10.987   1.933   8.723
 9709SOL    HW131134  10.996  13.045   8.785
 9709SOL    HW231135  10.924   1.874   8.765
 9710SOL     OW31136   2.561   8.022   3.094
 9710SOL    HW131137   2.559   8.087  -8.017
 9710SOL    HW231138   2.500   8.056   3.159
 9711SOL     OW31139   8.371   6.037   9.079
 9711SOL    HW131140  -2.631   5.982   9.148
 9711SOL    HW231141   8.370   6.125   9.116
 9712SOL     OW31142   6.014  -1.532   8.146
 9712SOL    HW131143   6.101  42.591   8.128
 9712SOL    HW231144 -16.055   9.558   8.227
 9713SOL     OW31145  10.359   4.951   4.256
 9713SOL    HW131146  10.443   4.906   4.252
 9713SOL    HW231147  10.375   5.037   4.218
 9714SOL     OW31148   4.607   8.520   0.537
 9714SOL    HW131149   4.553  52.606   0.504
 9714SOL    HW231150 -17.427  -2.556  44.772
 9715SOL     OW31151   5.190   4.863   5.525
 9715SOL    HW131152   5.107  26.987   5.539
 9715SOL    HW231153   5.250  26.982  38.706
 9716SOL     OW31154   8.115   5.972   8.981
 9716SOL    HW131155   8.203   5.985   9.016
 9716SOL    HW231156   8.058   6.020  20.081
 9717SOL     OW31157   1.664   5.383   5.618
 9717SOL    HW131158   1.680  -5.742   5.578
 9717SOL    HW231159  -9.344  -5.665   5.708
 9718SOL     OW31160  -0.361   0.119   2.720
 9718SOL    HW131161  32.780   0.129   2.813
 9718SOL    HW231162  -0.443   0.069  -8.319
 9719SOL     OW31163   8.534   6.350   8.326
 9719SOL    HW131164  -2.472   6.426   8.278
 9719SOL    HW231165   8.444  -4.665   8.349
 9720SOL     OW31166   1.685   7.610   2.211
 9720SOL    HW131167   1.613  18.614   2.263
 9720SOL    HW231168  12.718   7.705   2.223
 9721SOL     OW31169  10.782   6.452   8.312
 9721SOL    HW131170 -11.321 -26.577  -2.749
 9721SOL    HW231171  -0.175 -15.641  -2.774
 9722SOL     OW31172   4.534   2.047   6.758
 9722SOL    HW131173   4.524   1.993   6.837
 9722SOL    HW231174 -17.496  13.032   6.698
 9723SOL     OW31175   3.988   6.794   4.595
 9723SOL    HW131176   3.985  39.840   4.533
 9723SOL    HW231177   3.900   6.796   4.634
 9724SOL     OW31178   2.579   5.755   6.181
 9724SOL    HW131179   2.592   5.713   6.266
 9724SOL    HW231180   2.664   5.794  17.199
 9725SOL     OW31181   2.452  -0.383   3.311
 9725SOL    HW131182   2.363  10.637   3.281
 9725SOL    HW231183  24.521  10.679   3.403
 9726SOL     OW31184   3.812  10.492   8.828
 9726SOL    HW131185  -7.167  10.514   8.899
 9726SOL    HW231186   3.732  10.463   8.872
 9727SOL     OW31187   9.413   8.074  10.891
 9727SOL    HW131188   9.408   8.164  10.860
 9727SOL    HW231189   9.463   8.028  10.824
 9728SOL     OW31190   9.084   4.593   9.493
 9728SOL    HW131191   9.118  26.749   9.447
 9728SOL    HW231192   9.019   4.557   9.432
 9729SOL     OW31193   1.431   9.149   3.887
 9729SOL    HW131194  -9.600   9.241  -7.129
 9729SOL    HW231195  12.453   9.104  -7.070
 9730SOL     OW31196   1.957   7.507   9.691
 9730SOL    HW131197  12.901   7.513   9.683
 9730SOL    HW231198   1.988   7.496   9.602
 9731SOL     OW31199  10.471   7.880   9.350
 9731SOL    HW131200  10.388   7.832  20.395
 9731SOL    HW231201  10.468  -3.098  -1.617
 9732SOL     OW31202   1.825   3.490   8.900
 9732SOL    HW131203   1.752   3.521   8.954
 9732SOL    HW231204   1.900  14.580  19.971
 9733SOL     OW31205   8.501   6.191   9.424
 9733SOL    HW131206   8.570   6.168  -1.553
 9733SOL    HW231207   8.532   6.155 -23.778
 9734SOL     OW31208   8.207   4.308   7.497
 9734SOL    HW131209   8.149   4.363   7.445
 9734SOL    HW231210   8.172   4.219   7.486
 9735SOL     OW31211   7.940   6.939   9.339
 9735SOL    HW131212   7.909   6.975   9.422
 9735SOL    HW231213   7.874   6.965   9.275
 9736SOL     OW31214   3.455   9.272  -1.444
 9736SOL    HW131215   3.532   9.305  42.668
 9736SOL    HW231216   3.423   9.201  -1.500
 9737SOL     OW31217   5.191   2.865   7.974
 9737SOL    HW131218  16.314  -8.179   7.927
 9737SOL    HW231219   5.125  13.881   7.909
 9738SOL     OW31220   1.490   3.810   8.552
 9738SOL    HW131221  -9.568  25.797  19.572
 9738SOL    HW231222  -9.635   3.851   8.561
 9739SOL     OW31223   7.623  -0.290   4.340
 9739SOL    HW131224  -3.335 -11.300   4.300
 9739SOL    HW231225   7.608  21.851   4.412
 9740SOL     OW31226   0.957   1.113   6.225
 9740SOL    HW131227   1.036   1.141   6.179
 9740SOL    HW231228  23.006  -9.848   6.271
 9741SOL     OW31229   3.204   5.508   6.445
 9741SOL    HW131230  36.356  -5.603   6.391
 9741SOL    HW231231   3.114   5.482   6.466
 9742SOL     OW31232  -0.849   9.301   3.416
 9742SOL    HW131233  -0.846  31.317   3.487
 9742SOL    HW231234  21.137   9.311   3.396
 9743SOL     OW31235   2.163   5.481   3.138
 9743SOL    HW131236  35.284   5.572  14.148
 9743SOL    HW231237   2.225   5.435   3.081
 9744SOL     OW31238   7.317   6.808   6.918
 9744SOL    HW131239   7.229   6.774  -4.105
 9744SOL    HW231240   7.343   6.770   6.834
 9745SOL     OW31241   1.975   9.108   1.820
 9745SOL    HW131242  -9.072   9.111   1.725
 9745SOL    HW231243  -9.095 -13.059   1.844
 9746SOL     OW31244   1.627   5.372   6.742
 9746SOL    HW131245   1.695   5.320   6.697
 9746SOL    HW231246   1.590   5.312  17.846
 9747SOL     OW31247   6.906   2.063   0.385
 9747SOL    HW131248   6.843   1.995   0.407
 9747SOL    HW231249  -4.086   2.079   0.467
 9748SOL     OW31250  -3.985   6.871   6.382
 9748SOL    HW131251  29.159   6.779   6.390
 9748SOL    HW231252  40.078   6.870  -4.650
 9749SOL     OW31253   1.822   0.142  12.365
 9749SOL    HW131254   1.829   0.193   1.406
 9749SOL    HW231255   1.900   0.166  -9.765
 9750SOL     OW31256   3.276   0.871   1.111
 9750SOL    HW131257   3.181   0.861  23.189
 9750SOL    HW231258   3.309   0.789  45.306
 9751SOL     OW31259   9.002   4.753   2.575
 9751SOL    HW131260   8.926   4.727  13.665
 9751SOL    HW231261  20.098  15.839   2.638
 9752SOL     OW31262   0.867  10.622   7.272
 9752SOL    HW131263   0.918  10.620   7.353
 9752SOL    HW231264   0.783  -0.377   7.298
 9753SOL     OW31265   4.045   3.760   5.259
 9753SOL    HW131266   3.989   3.743   5.335
 9753SOL    HW231267   4.078  25.753  -5.805
 9754SOL     OW31268   0.285   0.455  11.393
 9754SOL    HW131269   0.358   0.430  11.449
 9754SOL    HW231270   0.295   0.550   0.342
 9755SOL     OW31271   8.660   1.559   8.376
 9755SOL    HW131272   8.596  -9.459   8.444
 9755SOL    HW231273   8.731   1.515  30.502
 9756SOL     OW31274   2.915   5.573  11.416
 9756SOL    HW131275   2.859   5.642  11.381
 9756SOL    HW231276   2.997   5.580   0.327
 9757SOL     OW31277   9.685   8.447   2.748
 9757SOL    HW131278   9.747   8.375   2.736
 9757SOL    HW231279 -12.406   8.483   2.661
 9758SOL     OW31280   8.988   4.512   2.273
 9758SOL    HW131281   8.968  -6.614   2.309
 9758SOL    HW231282   8.964   4.573  -8.697
 9759SOL     OW31283   4.529   2.885   6.355
 9759SOL    HW131284  15.536   2.898   6.266
 9759SOL    HW231285   4.604   2.944   6.362
 9760SOL     OW31286   0.258   7.814   4.252
 9760SOL    HW131287   0.238 -25.211  -6.793
 9760SOL    HW231288  11.389   7.811   4.280
 9761SOL     OW31289   4.394  -0.719   0.752
 9761SOL    HW131290   4.485  21.342  11.815
 9761SOL    HW231291   4.366  21.427   0.815
 9762SOL     OW31292   3.006   8.061   5.927
 9762SOL    HW131293   3.082  -3.029   5.898
 9762SOL    HW231294  -8.090  19.037   5.969
 9763SOL     OW31295   8.674  -0.218   3.049
 9763SOL    HW131296   8.601  10.857   3.101
 9763SOL    HW231297   8.730  -0.261  14.153
 9764SOL     OW31298   4.267   8.893   5.516
 9764SOL    HW131299  15.347 -13.107   5.479
 9764SOL    HW231300   4.185   8.924   5.554
 9765SOL     OW31301   7.899   7.566   7.451
 9765SOL    HW131302   7.993   7.573   7.431
 9765SOL    HW231303   7.883   7.636   7.514
 9766SOL     OW31304  10.866   3.237   4.858
 9766SOL    HW131305  10.949   3.284   4.847
 9766SOL    HW231306  10.882   3.178  -6.108
 9767SOL     OW31307  10.034   0.420   4.859
 9767SOL    HW131308  -1.034   0.356   4.925
 9767SOL    HW231309  32.076   0.503  26.969
 9768SOL     OW31310   3.927   4.413   6.618
 9768SOL    HW131311  36.984   4.350   6.582
 9768SOL    HW231312  15.050   4.367  -4.420
 9769SOL     OW31313   9.988   9.874   2.147
 9769SOL    HW131314  10.069   9.907  13.225
 9769SOL    HW231315   9.919  20.949 -19.876
 9770SOL     OW31316   3.922   6.558  11.557
 9770SOL    HW131317   3.833   6.566   0.552
 9770SOL    HW231318   3.977   6.602 -10.458
 9771SOL     OW31319   4.448  10.063   7.891
 9771SOL    HW131320   4.359  10.092  29.991
 9771SOL    HW231321  26.559  21.063  30.051
 9772SOL     OW31322   3.189   7.881   3.228
 9772SOL    HW131323   3.106   7.877 -18.803
 9772SOL    HW231324  -7.842   7.795  -7.852
 9773SOL     OW31325  10.839  -0.009   5.677
 9773SOL    HW131326  10.762  11.010   5.731
 9773SOL    HW231327  10.823  11.120   5.645
 9774SOL     OW31328   5.492   1.898  10.753
 9774SOL    HW131329   5.479   1.986  10.716
 9774SOL    HW231330  -5.511   1.847  10.680
 9775SOL     OW31331   9.256   2.715   7.557
 9775SOL    HW131332   9.170   2.740   7.525
 9775SOL    HW231333   9.256   2.619  -3.486
 9776SOL     OW31334   4.093   2.040  10.949
 9776SOL    HW131335   4.103   1.964  -0.148
 9776SOL    HW231336   4.111   2.115  10.892
 9777SOL     OW31337  -0.062   8.615   2.869
 9777SOL    HW131338  11.009   8.549   2.931
 9777SOL    HW231339   0.018  19.698   2.838
 9778SOL     OW31340  10.437   6.886  10.850
 9778SOL    HW131341  -0.622  18.019  10.841
 9778SOL    HW231342  10.527   6.884  10.883
 9779SOL     OW31343   6.995   8.788   1.641
 9779SOL    HW131344  29.070   8.727   1.715
 9779SOL    HW231345  18.127 -24.326  12.657
 9780SOL     OW31346   8.995   7.196   8.730
 9780SOL    HW131347   9.029   7.133   8.794
 9780SOL    HW231348  -2.123  -3.807  19.812
 9781SOL     OW31349  11.398   4.368   4.332
 9781SOL    HW131350  11.424   4.459   4.347
 9781SOL    HW231351 -10.767   4.374 -17.790
 9782SOL     OW31352   1.017   6.225   7.937
 9782SOL    HW131353   1.097   6.204   7.985
 9782SOL    HW231354 -10.069   6.286   7.993
 9783SOL     OW31355   7.489   5.652   8.244
 9783SOL    HW131356  18.464   5.594   8.285
 9783SOL    HW231357   7.456  -5.375   8.155
 9784SOL     OW31358   7.457   5.431   7.440
 9784SOL    HW131359  -3.512   5.399   7.383
 9784SOL    HW231360  -3.567   5.387  -3.516
 9785SOL     OW31361   3.547   1.964   7.633
 9785SOL    HW131362   3.551 -20.193   7.689
 9785SOL    HW231363   3.549   2.037  -3.345
 9786SOL     OW31364   7.597  11.995  -2.154
 9786SOL    HW131365   7.547 -10.020  31.015
 9786SOL    HW231366   7.663  11.962   8.947
 9787SOL     OW31367   5.459   9.291   7.392
 9787SOL    HW131368   5.521  -1.744 -25.654
 9787SOL    HW231369   5.445   9.382  18.406
 9788SOL     OW31370   9.802   7.335   1.494
 9788SOL    HW131371   9.774  18.287   1.521
 9788SOL    HW231372  20.789   7.353   1.416
 9789SOL     OW31373   9.584   2.717   1.494
 9789SOL    HW131374   9.515  24.731   1.509
 9789SOL    HW231375   9.660  13.722   1.542
 9790SOL     OW31376   7.622  10.048   9.112
 9790SOL    HW131377 -25.508   9.953   9.110
 9790SOL    HW231378   7.535  21.123   9.096
 9791SOL     OW31379   3.384  10.186   8.626
 9791SOL    HW131380   3.333  10.107   8.610
 9791SOL    HW231381   3.319  10.253   8.645
 9792SOL     OW31382   9.121   0.445   1.085
 9792SOL    HW131383  20.238   0.392   1.103
 9792SOL    HW231384  31.210   0.522  12.180
 9793SOL     OW31385   7.834   8.305   9.492
 9793SOL    HW131386   7.806   8.245   9.560
 9793SOL    HW231387   7.810   8.261  20.449
 9794SOL     OW31388   0.497  -0.151   8.039
 9794SOL    HW131389   0.501  -0.163   8.134
 9794SOL    HW231390   0.403  10.888   8.019
 9795SOL     OW31391   1.038   7.924   6.588
 9795SOL    HW131392   1.011   7.832  17.633
 9795SOL    HW231393   1.106   7.933   6.654
 9796SOL     OW31394   9.442   3.433   0.642
 9796SOL    HW131395  31.596  -7.551   0.662
 9796SOL    HW231396   9.449   3.415   0.549
 9797SOL     OW31397   6.660   0.383   7.684
 9797SOL    HW131398   6.624   0.311  18.777
 9797SOL    HW231399  -4.390   0.460   7.739
 9798SOL     OW31400   9.220   6.105   5.759
 9798SOL    HW131401   9.294   6.166   5.761
 9798SOL    HW231402   9.172   6.129   5.679
 9799SOL     OW31403   4.837   0.959   7.176
 9799SOL    HW131404   4.766   0.901 -14.931
 9799SOL    HW231405   4.884   0.909 -14.838
 9800SOL     OW31406   7.182   9.159   4.923
 9800SOL    HW131407  29.193   9.125   4.865
 9800SOL    HW231408   7.225  -1.958  15.997
 9801SOL     OW31409   8.357   3.642  10.409
 9801SOL    HW131410   8.377  25.712  10.503
 9801SOL    HW231411   8.295  14.611  21.431
 9802SOL     OW31412   8.361   4.852  10.307
 9802SOL    HW131413   8.266   4.844  10.297
 9802SOL    HW231414   8.374   4.935  10.353
 9803SOL     OW31415   1.430   5.550   8.057
 9803SOL    HW131416   1.336   5.550   8.076
 9803SOL    HW231417   1.467   5.490  19.161
 9804SOL     OW31418   0.572   7.369   6.872
 9804SOL    HW131419   0.479   7.384  -4.146
 9804SOL    HW231420   0.589 -25.691   6.798
 9805SOL     OW31421  10.338   9.091   8.397
 9805SOL    HW131422  -0.634   9.056   8.454
 9805SOL    HW231423  10.363  -1.857   8.384
 9806SOL     OW31424   1.370   8.968   8.013
 9806SOL    HW131425   1.452   8.918  -3.027
 9806SOL    HW231426   1.304   8.904 -25.131
 9807SOL     OW31427   5.451   3.010   2.843
 9807SOL    HW131428   5.407   3.039   2.763
 9807SOL    HW231429   5.388   3.029   2.913
 9808SOL     OW31430   6.521   3.188   2.384
 9808SOL    HW131431   6.474   3.241 -30.800
 9808SOL    HW231432  17.646   3.171   2.344
 9809SOL     OW31433   4.890   9.457   6.877
 9809SOL    HW131434   4.975   9.463   6.835
 9809SOL    HW231435  26.932   9.375   6.843
 9810SOL     OW31436   5.685   2.944   4.923
 9810SOL    HW131437   5.625  36.135   4.942
 9810SOL    HW231438  27.710   2.881   4.875
 9811SOL     OW31439   2.577   4.949  11.559
 9811SOL    HW131440  13.700 -17.086   0.501
 9811SOL    HW231441   2.511   5.017   0.510
 9812SOL     OW31442  10.000   3.792   6.612
 9812SOL    HW131443  10.044 -29.392  -4.481
 9812SOL    HW231444   9.987   3.749   6.697
 9813SOL     OW31445   4.843  -0.185   2.945
 9813SOL    HW131446  -6.219  -0.104   2.898
 9813SOL    HW231447   4.808  10.785   2.890
 9814SOL     OW31448  10.850  11.815   6.513
 9814SOL    HW131449  -0.107 -10.240   6.553
 9814SOL    HW231450  10.830  11.887   6.453
 9815SOL     OW31451   8.504   1.032  11.140
 9815SOL    HW131452   8.443   1.105 -10.934
 9815SOL    HW231453   8.467   0.965  11.198
 9816SOL     OW31454   1.524   6.673   0.712
 9816SOL    HW131455   1.485   6.759   0.699
 9816SOL    HW231456   1.476   6.636   0.786
 9817SOL     OW31457   0.889   6.345   4.621
 9817SOL    HW131458   0.937   6.388  15.590
 9817SOL    HW231459   0.934  17.412  -6.339
 9818SOL     OW31460   6.187  10.174   7.362
 9818SOL    HW131461  39.234  10.204   7.307
 9818SOL    HW231462   6.246  10.249   7.369
 9819SOL     OW31463  11.210   4.606   2.253
 9819SOL    HW131464  11.278 -28.522   2.320
 9819SOL    HW231465   0.213  -6.462   2.172
 9820SOL     OW31466  -2.816   3.576   8.175
 9820SOL    HW131467  41.288   3.532  19.149
 9820SOL    HW231468   8.240 -18.570   8.242
 9821SOL     OW31469   5.066   3.013   6.948
 9821SOL    HW131470  -6.055   3.032  -4.139
 9821SOL    HW231471  27.128  -8.111   6.991
 9822SOL     OW31472   7.226   2.775   8.359
 9822SOL    HW131473   7.183   2.860   8.369
 9822SOL    HW231474   7.319   2.796  -2.688
 9823SOL     OW31475   6.128   9.706   6.065
 9823SOL    HW131476   6.046   9.664   6.037
 9823SOL    HW231477   6.120   9.796  39.152
 9824SOL     OW31478   4.970   3.035  11.462
 9824SOL    HW131479   5.044   3.073   0.469
 9824SOL    HW231480   4.902 -19.056  11.529
 9825SOL     OW31481   2.737  10.403  10.002
 9825SOL    HW131482 -19.331  10.396  10.096
 9825SOL    HW231483   2.813  10.453   9.972
 9826SOL     OW31484   3.078   6.244   1.071
 9826SOL    HW131485   3.095   6.214   1.160
 9826SOL    HW231486  -7.933   6.171   1.016
 9827SOL     OW31487   9.417  -1.875   9.732
 9827SOL    HW131488   9.474  20.261   9.681
 9827SOL    HW231489   9.444  31.155   9.708
 9828SOL     OW31490   1.772   1.514   7.691
 9828SOL    HW131491  12.768  -9.537   7.606
 9828SOL    HW231492   1.709   1.563   7.744
 9829SOL     OW31493   0.385   5.171   4.951
 9829SOL    HW131494   0.318   5.232   4.983
 9829SOL    HW231495   0.449 -27.954  -6.018
 9830SOL     OW31496   3.879   5.447  -0.192
 9830SOL    HW131497   3.862   5.426  21.979
 9830SOL    HW231498  25.905  16.565  21.871
 9831SOL     OW31499   7.167   1.295   4.644
 9831SOL    HW131500  29.204  34.359   4.710
 9831SOL    HW231501  -3.942   1.316   4.582
 9832SOL     OW31502  10.163  11.049   8.885
 9832SOL    HW131503  10.153  11.121   8.822
 9832SOL    HW231504  10.098   0.027  31.031
 9833SOL     OW31505   4.727   6.644   9.806
 9833SOL    HW131506   4.707   6.569 -12.329
 9833SOL    HW231507   4.764   6.605 -12.193
 9834SOL     OW31508   7.287   3.207   6.788
 9834SOL    HW131509  18.397   3.232 -15.231
 9834SOL    HW231510   7.284   3.112   6.793
 9835SOL     OW31511   3.101   7.838   7.343
 9835SOL    HW131512  14.184   7.757  29.395
 9835SOL    HW231513   3.114  18.937  -3.770
 9836SOL     OW31514   4.782   5.109   6.660
 9836SOL    HW131515  -6.178   5.155  -4.408
 9836SOL    HW231516   4.813   5.046  28.804
 9837SOL     OW31517   3.218   2.130   6.072
 9837SOL    HW131518   3.231  -8.855   5.994
 9837SOL    HW231519   3.270   2.173   6.140
 9838SOL     OW31520   1.216   7.451   4.248
 9838SOL    HW131521  12.307   7.405   4.315
 9838SOL    HW231522   1.233  -3.637   4.167
 9839SOL     OW31523   5.478   3.190   9.166
 9839SOL    HW131524   5.518  -7.849   9.080
 9839SOL    HW231525  27.520   3.102  31.254
 9840SOL     OW31526   2.302   9.443   7.891
 9840SOL    HW131527   2.378   9.434   7.947
 9840SOL    HW231528   2.338   9.462  -3.235
 9841SOL     OW31529   3.965   4.787   3.606
 9841SOL    HW131530   3.959   4.697   3.574
 9841SOL    HW231531  15.096   4.797   3.633
 9842SOL     OW31532   1.244  11.569   4.528
 9842SOL    HW131533   1.271  11.526   4.447
 9842SOL    HW231534  34.373 -10.416   4.509
 9843SOL     OW31535   0.351   8.486   2.241
 9843SOL    HW131536   0.313   8.572  -8.820
 9843SOL    HW231537  22.516 -24.632   2.200
 9844SOL     OW31538   2.249   3.566   2.093
 9844SOL    HW131539   2.186   3.529   2.032
 9844SOL    HW231540   2.290  -7.401   2.045
 9845SOL     OW31541  10.431   3.597   6.358
 9845SOL    HW131542  10.521   3.630   6.352
 9845SOL    HW231543 -22.707   3.566  17.309
 9846SOL     OW31544   2.414   7.492   6.863
 9846SOL    HW131545   2.332   7.475   6.910
 9846SOL    HW231546  13.472  18.624   6.881
 9847SOL     OW31547   6.380   4.913   9.060
 9847SOL    HW131548   6.378   4.994   9.112
 9847SOL    HW231549   6.380  -6.196 -12.953
 9848SOL     OW31550   7.982   9.797   8.628
 9848SOL    HW131551   7.980 -12.302   8.534
 9848SOL    HW231552   7.968   9.712   8.670
 9849SOL     OW31553   1.455   2.849   8.078
 9849SOL    HW131554   1.457  13.967   8.023
 9849SOL    HW231555  -9.526   2.869   8.150
 9850SOL     OW31556  10.784   2.366   4.231
 9850SOL    HW131557  10.719   2.386  37.417
 9850SOL    HW231558  10.748   2.405   4.151
 9851SOL     OW31559   2.103   6.974   0.436
 9851SOL    HW131560  13.142  18.069   0.358
 9851SOL    HW231561   2.138   7.030   0.505
 9852SOL     OW31562   0.486   2.813   6.010
 9852SOL    HW131563   0.571   2.840  17.015
 9852SOL    HW231564   0.442  13.811   5.936
 9853SOL     OW31565   4.738   7.186   5.961
 9853SOL    HW131566   4.654  29.220   5.955
 9853SOL    HW231567  15.841   7.124   5.925
 9854SOL     OW31568   7.535   7.052   2.736
 9854SOL    HW131569   7.569  18.164   2.789
 9854SOL    HW231570  -3.546   6.993   2.799
 9855SOL     OW31571   4.154   1.672   8.997
 9855SOL    HW131572  15.273   1.628   9.029
 9855SOL    HW231573   4.187   1.740   8.938
 9856SOL     OW31574   9.697  10.769   6.168
 9856SOL    HW131575   9.638  10.825  -4.922
 9856SOL    HW231576   9.643  10.735   6.239
 9857SOL     OW31577   7.568   7.187   2.448
 9857SOL    HW131578   7.575   7.276  24.559
 9857SOL    HW231579  29.660   7.132  13.565
 9858SOL     OW31580   9.021   6.120   9.270
 9858SOL    HW131581   9.091   6.068   9.309
 9858SOL    HW231582   9.003  28.268   9.334
 9859SOL     OW31583   0.553   8.803   6.497
 9859SOL    HW131584   0.625   8.862   6.473
 9859SOL    HW231585   0.530   8.829   6.586
 9860SOL     OW31586   5.745   9.446   3.301
 9860SOL    HW131587   5.761  20.435   3.222
 9860SOL    HW231588  16.868  20.484   3.348
 9861SOL     OW31589   3.570   6.201   2.438
 9861SOL    HW131590   3.491   6.156   2.410
 9861SOL    HW231591  14.621   6.272   2.375
 9862SOL     OW31592   8.991   8.337  10.795
 9862SOL    HW131593   9.003   8.357  10.702
 9862SOL    HW231594 -13.176   8.370  10.815
 9863SOL     OW31595   4.566   2.609   9.522
 9863SOL    HW131596   4.589   2.528   9.478
 9863SOL    HW231597   4.604  13.641   9.610
 9864SOL     OW31598   4.586   3.307   9.065
 9864SOL    HW131599   4.624 -18.685  -1.978
 9864SOL    HW231600   4.555   3.291   8.975
 9865SOL     OW31601   3.048  10.042   7.054
 9865SOL    HW131602   3.023 -12.128   7.033
 9865SOL    HW231603  -8.060  -0.945  29.093
 9866SOL     OW31604   7.804   9.393   6.499
 9866SOL    HW131605   7.835 -12.749   6.433
 9866SOL    HW231606  18.890   9.474   6.478
 9867SOL     OW31607   3.947   0.612   4.486
 9867SOL    HW131608  -7.185  22.671   4.476
 9867SOL    HW231609   3.958   0.632   4.579
 9868SOL     OW31610   1.564   9.206   2.863
 9868SOL    HW131611  23.582   9.170   2.798
 9868SOL    HW231612   1.585   9.132   2.920
 9869SOL     OW31613  10.042   4.638   7.546
 9869SOL    HW131614  21.125   4.553   7.545
 9869SOL    HW231615  10.046  -6.373  18.677
 9870SOL     OW31616   9.121  10.139   8.562
 9870SOL    HW131617   9.201  10.153   8.612
 9870SOL    HW231618   9.146  10.154  30.550
 9871SOL     OW31619   2.411   0.421   6.334
 9871SOL    HW131620  -8.678   0.372   6.269
 9871SOL    HW231621 -19.701   0.389  17.458
 9872SOL     OW31622   9.594  10.797   9.890
 9872SOL    HW131623   9.549  10.739   9.951
 9872SOL    HW231624   9.528  10.820   9.826
 9873SOL     OW31625   4.202   0.615   1.040
 9873SOL    HW131626   4.258  11.726   1.073
 9873SOL    HW231627  -6.787  22.615   1.057
 9874SOL     OW31628   2.192   4.884   3.940
 9874SOL    HW131629  13.315   4.931   3.950
 9874SOL    HW231630  13.257   4.792   3.937
 9875SOL     OW31631   7.779   5.078   1.337
 9875SOL    HW131632   7.843 -28.094   1.385
 9875SOL    HW231633   7.697  -6.010   1.343
 9876SOL     OW31634   2.172   4.996   1.087
 9876SOL    HW131635   2.210   4.943  12.057
 9876SOL    HW231636  -8.793   5.032  12.173
 9877SOL     OW31637   3.154  10.331   8.740
 9877SOL    HW131638   3.184 -11.704   8.661
 9877SOL    HW231639  36.189  -0.667   8.760
 9878SOL     OW31640   2.560   5.095   6.457
 9878SOL    HW131641   2.550  16.043   6.482
 9878SOL    HW231642  -8.566   5.133   6.473
 9879SOL     OW31643   3.345  10.249   6.844
 9879SOL    HW131644   3.258  10.281   6.818
 9879SOL    HW231645  14.375  10.154   6.849
 9880SOL     OW31646   5.020  -0.327   5.274
 9880SOL    HW131647   5.087  -0.371   5.221
 9880SOL    HW231648   5.032  10.678   5.362
 9881SOL     OW31649   7.941   8.882   2.662
 9881SOL    HW131650  -3.106  -2.252   2.674
 9881SOL    HW231651   8.034   8.897   2.644
 9882SOL     OW31652   1.449   5.107   6.078
 9882SOL    HW131653  12.508   5.038   6.142
 9882SOL    HW231654   1.534   5.131  17.081
 9883SOL     OW31655   5.250   2.769   9.671
 9883SOL    HW131656   5.282   2.761   9.761
 9883SOL    HW231657   5.204   2.687   9.654
 9884SOL     OW31658   8.951  11.560   3.715
 9884SOL    HW131659   8.990   0.512   3.628
 9884SOL    HW231660   8.980 -10.596   3.763
 9885SOL     OW31661   4.850   5.648   5.683
 9885SOL    HW131662  26.932  27.817   5.650
 9885SOL    HW231663   4.924   5.643  16.784
 9886SOL     OW31664   0.974   9.167   3.501
 9886SOL    HW131665   0.901   9.212   3.459
 9886SOL    HW231666   1.042   9.234  25.588
 9887SOL     OW31667   5.693   8.068   1.562
 9887SOL    HW131668   5.676   8.160 -20.538
 9887SOL    HW231669   5.750   8.038   1.491
 9888SOL     OW31670   3.370   1.957   4.780
 9888SOL    HW131671   3.378  -9.035   4.863
 9888SOL    HW231672   3.429   2.004  15.760
 9889SOL     OW31673   0.038  10.588  11.885
 9889SOL    HW131674   0.030  -0.452 -54.257
 9889SOL    HW231675   0.112  10.646  11.868
 9890SOL     OW31676   8.227   3.614   7.399
 9890SOL    HW131677  19.175   3.626   7.374
 9890SOL    HW231678   8.237   3.519 -14.673
 9891SOL     OW31679   9.870   8.517   9.290
 9891SOL    HW131680   9.787   8.498   9.333
 9891SOL    HW231681   9.849 -13.554 -12.882
 9892SOL     OW31682  11.727   2.224   1.376
 9892SOL    HW131683  11.663  13.193  23.461
 9892SOL    HW231684 -10.351  -8.776   1.463
 9893SOL     OW31685   9.327   7.430  10.576
 9893SOL    HW131686   9.253   7.446 -11.562
 9893SOL    HW231687   9.288   7.417  10.662
 9894SOL     OW31688   1.477   2.565  -0.021
 9894SOL    HW131689   1.467   2.483  10.969
 9894SOL    HW231690   1.478 -19.542  11.110
 9895SOL     OW31691   1.680   8.487   4.734
 9895SOL    HW131692  12.725  19.438  15.738
 9895SOL    HW231693  -9.323   8.481   4.822
 9896SOL     OW31694   8.429   7.550  -0.433
 9896SOL    HW131695   8.381   7.515  -0.358
 9896SOL    HW231696  52.593  18.683  32.703
 9897SOL     OW31697   0.820   7.832   5.329
 9897SOL    HW131698 -10.164  -3.280   5.359
 9897SOL    HW231699  33.917   7.881  27.488
 9898SOL     OW31700   3.746  10.532   8.477
 9898SOL    HW131701   3.839  10.521   8.458
 9898SOL    HW231702   3.714  10.443   8.493
 9899SOL     OW31703  10.950   8.847   7.418
 9899SOL    HW131704  10.948   8.934   7.458
 9899SOL    HW231705  10.872   8.844   7.363
 9900SOL     OW31706   0.443   5.247   4.236
 9900SOL    HW131707   0.464  27.269 -17.769
 9900SOL    HW231708   0.348  -5.784   4.239
 9901SOL     OW31709  10.186   4.193   1.358
 9901SOL    HW131710  -0.866  26.181  -9.655
 9901SOL    HW231711 -22.892   4.188   1.272
 9902SOL     OW31712   7.286  -0.684   0.153
 9902SOL    HW131713  -3.666  54.491  11.225
 9902SOL    HW231714   7.229  -0.694   0.230
 9903SOL     OW31715  11.202   4.748   3.818
 9903SOL    HW131716  11.188  -6.385   3.807
 9903SOL    HW231717   0.087   4.778   3.869
 9904SOL     OW31718  10.212   9.407  10.208
 9904SOL    HW131719  10.294   9.357  10.213
 9904SOL    HW231720  10.239  20.538  10.217
 9905SOL     OW31721   4.719   7.019   7.735
 9905SOL    HW131722   4.736   6.931  18.808
 9905SOL    HW231723  15.674   7.012   7.691
 9906SOL     OW31724   5.000   8.507  10.748
 9906SOL    HW131725   4.922   8.453  -0.281
 9906SOL    HW231726  16.006  -2.443  -0.302
 9907SOL     OW31727   8.966   9.672   3.853
 9907SOL    HW131728  19.925  20.742   3.895
 9907SOL    HW231729  -2.065   9.581   3.879
 9908SOL     OW31730  11.496   4.617   2.312
 9908SOL    HW131731  11.557   4.690   2.323
 9908SOL    HW231732   0.501  -6.483   2.252
 9909SOL     OW31733   1.178   9.496   7.377
 9909SOL    HW131734  12.164   9.482   7.298
 9909SOL    HW231735  12.216   9.412   7.422
 9910SOL     OW31736   3.315   4.943   2.816
 9910SOL    HW131737   3.269   4.977  13.932
 9910SOL    HW231738   3.397  27.072   2.813
 9911SOL     OW31739   0.457   2.164   3.259
 9911SOL    HW131740  11.518   2.246  14.254
 9911SOL    HW231741   0.471  13.222   3.352
 9912SOL     OW31742   7.924   2.443   7.560
 9912SOL    HW131743   7.965   2.487  29.714
 9912SOL    HW231744   7.831   2.438  18.624
 9913SOL     OW31745   4.131   9.446   6.971
 9913SOL    HW131746  15.116  -1.518   6.947
 9913SOL    HW231747  15.196   9.463   7.062
 9914SOL     OW31748   1.440   8.892   2.521
 9914SOL    HW131749   1.387  19.866   2.476
 9914SOL    HW231750  -9.609   8.971   2.468
 9915SOL     OW31751   8.752   0.131   4.133
 9915SOL    HW131752   8.669   0.168   4.162
 9915SOL    HW231753   8.753  11.185   4.038
 9916SOL     OW31754   1.479   2.334   5.543
 9916SOL    HW131755  -9.492   2.272   5.567
 9916SOL    HW231756   1.517   2.420   5.562
 9917SOL     OW31757   0.730   3.135   8.826
 9917SOL    HW131758   0.734  14.269   8.812
 9917SOL    HW231759   0.664   3.123  30.974
 9918SOL     OW31760   4.693   7.654  10.524
 9918SOL    HW131761   4.667   7.562  -0.511
 9918SOL    HW231762   4.779  -3.387  10.483
 9919SOL     OW31763   6.661   9.519   4.398
 9919SOL    HW131764   6.629   9.518 -28.810
 9919SOL    HW231765  -4.446   9.473   4.449
 9920SOL     OW31766   4.825  10.164   3.718
 9920SOL    HW131767   4.823 -12.006   3.688
 9920SOL    HW231768   4.755  10.207   3.669
 9921SOL     OW31769   0.510   3.324   6.878
 9921SOL    HW131770   0.588   3.319   6.934
 9921SOL    HW231771   0.536   3.383   6.807
 9922SOL     OW31772   2.183   2.497   4.883
 9922SOL    HW131773   2.110   2.461  26.911
 9922SOL    HW231774   2.167  24.543  27.051
 9923SOL     OW31775   4.955   5.347   5.686
 9923SOL    HW131776  -6.010   5.287 -16.395
 9923SOL    HW231777 -17.150 -16.723   5.595
 9924SOL     OW31778  10.539   3.013   1.646
 9924SOL    HW131779 -11.561   3.085  -9.334
 9924SOL    HW231780  10.621   3.040  -9.435
 9925SOL     OW31781   9.001   1.384   5.431
 9925SOL    HW131782   8.927   1.444  16.478
 9925SOL    HW231783   8.962   1.297   5.428
 9926SOL     OW31784   2.291   0.359   4.984
 9926SOL    HW131785   2.353   0.432   4.989
 9926SOL    HW231786   2.345   0.281   4.996
 9927SOL     OW31787   8.552   4.761   2.758
 9927SOL    HW131788   8.477   4.728   2.809
 9927SOL    HW231789   8.512   4.814  13.729
 9928SOL     OW31790   4.628   7.701   6.591
 9928SOL    HW131791   4.685   7.775   6.611
 9928SOL    HW231792  -6.474   7.698   6.664
 9929SOL     OW31793   9.168   8.757   8.967
 9929SOL    HW131794   9.175   8.662   8.975
 9929SOL    HW231795   9.236   8.791   9.025
 9930SOL     OW31796   4.692   3.317  10.681
 9930SOL    HW131797  26.827   3.393  10.692
 9930SOL    HW231798  26.686  -7.695  10.712
 9931SOL     OW31799   4.659  11.600   6.520
 9931SOL    HW131800   4.677  11.689   6.548
 9931SOL    HW231801 -17.367   0.505   6.576
 9932SOL     OW31802   7.751   2.234   7.685
 9932SOL    HW131803  29.777  13.265   7.764
 9932SOL    HW231804  18.876  13.238   7.710
 9933SOL     OW31805   4.326   9.621   2.281
 9933SOL    HW131806   4.406   9.660   2.314
 9933SOL    HW231807 -28.835   9.692  13.271
 9934SOL     OW31808   6.938   9.723   5.974
 9934SOL    HW131809   6.980   9.805  17.039
 9934SOL    HW231810   6.846   9.747   5.961
 9935SOL     OW31811  -0.565  11.508   9.654
 9935SOL    HW131812  32.482   0.506   9.603
 9935SOL    HW231813  -0.492  11.569   9.641
 9936SOL     OW31814   0.812   2.792   8.000
 9936SOL    HW131815   0.881   2.827   8.056
 9936SOL    HW231816   0.850   2.790   7.912
 9937SOL     OW31817   9.770  10.106   3.750
 9937SOL    HW131818 -12.361  10.039  -7.333
 9937SOL    HW231819 -23.392  10.189   3.728
 9938SOL     OW31820   6.970   6.060   6.460
 9938SOL    HW131821  18.018   5.980  -4.529
 9938SOL    HW231822   6.994   6.035  -4.669
 9939SOL     OW31823   2.943  11.582   4.042
 9939SOL    HW131824   2.893 -10.421   4.014
 9939SOL    HW231825   2.952  11.530   3.962
 9940SOL     OW31826   3.357   2.767   3.292
 9940SOL    HW131827   3.364   2.820  36.331
 9940SOL    HW231828   3.272   2.723   3.284
 9941SOL     OW31829   8.679   9.805   4.354
 9941SOL    HW131830   8.666   9.735   4.290
 9941SOL    HW231831   8.606   9.797   4.415
 9942SOL     OW31832   9.241   2.802  10.085
 9942SOL    HW131833  20.318   2.738  10.025
 9942SOL    HW231834  20.290  24.841  10.172
 9943SOL     OW31835   5.084  12.337   7.798
 9943SOL    HW131836   5.172  12.311   7.770
 9943SOL    HW231837 -28.056 -20.706   7.744
 9944SOL     OW31838   6.272   9.362   1.504
 9944SOL    HW131839   6.260   9.326  23.671
 9944SOL    HW231840   6.222   9.304 -20.632
 9945SOL     OW31841   2.423   4.052   3.634
 9945SOL    HW131842   2.447  26.155   3.723
 9945SOL    HW231843  24.549  15.010 -18.462
 9946SOL     OW31844   5.035   3.261  -1.518
 9946SOL    HW131845  27.147   3.225  -1.435
 9946SOL    HW231846  27.165 -18.863  53.613
 9947SOL     OW31847   4.153   7.894   3.405
 9947SOL    HW131848   4.193   7.818   3.447
 9947SOL    HW231849   4.224  18.997   3.397
 9948SOL     OW31850   8.707   8.282   2.895
 9948SOL    HW131851   8.784   8.283   2.952
 9948SOL    HW231852   8.646  19.262   2.939
 9949SOL     OW31853   2.355  10.043   2.982
 9949SOL    HW131854   2.426  -0.934   2.997
 9949SOL    HW231855  35.460  10.044   2.888
 9950SOL     OW31856   1.755   4.670   3.638
 9950SOL    HW131857  -9.259   4.692  14.767
 9950SOL    HW231858  12.839  15.774   3.584
 9951SOL     OW31859   8.178   1.773   0.306
 9951SOL    HW131860   8.232   1.796   0.382
 9951SOL    HW231861   8.240   1.736   0.243
 9952SOL     OW31862   3.585   1.973   5.865
 9952SOL    HW131863   3.652   1.996   5.930
 9952SOL    HW231864 -18.519  12.923   5.889
 9953SOL     OW31865   2.312   8.920  10.272
 9953SOL    HW131866   2.260   8.999  10.286
 9953SOL    HW231867 -19.786 -13.214  10.348
 9954SOL     OW31868   4.064  -0.507   9.362
 9954SOL    HW131869 -18.025  -0.426  20.450
 9954SOL    HW231870   4.146  32.574   9.395
 9955SOL     OW31871   9.964   3.783   1.931
 9955SOL    HW131872   9.974   3.757   2.023
 9955SOL    HW231873  -0.986   3.786   1.897
 9956SOL     OW31874   5.742   0.091   6.333
 9956SOL    HW131875   5.713   0.014   6.383
 9956SOL    HW231876  -5.215   0.116 -15.704
 9957SOL     OW31877   9.337   5.381   5.925
 9957SOL    HW131878  20.448   5.437   5.955
 9957SOL    HW231879   9.334   5.309   5.988
 9958SOL     OW31880  10.932   1.117   1.717
 9958SOL    HW131881  10.868   1.129  12.826
 9958SOL    HW231882  10.901   1.040  23.747
 9959SOL     OW31883   6.191   6.985   6.617
 9959SOL    HW131884  -4.877  17.995   6.703
 9959SOL    HW231885  -4.928  18.052   6.573
 9960SOL     OW31886   0.970   9.056   5.871
 9960SOL    HW131887   1.047  -1.926   5.870
 9960SOL    HW231888   0.899   9.112   5.902
 9961SOL     OW31889   0.803   2.145   8.892
 9961SOL    HW131890  22.884   2.210   8.961
 9961SOL    HW231891  11.790   2.185   8.822
 9962SOL     OW31892   5.286   2.718   2.692
 9962SOL    HW131893  27.364  -8.240  13.681
 9962SOL    HW231894   5.215   2.728   2.755
 9963SOL     OW31895   2.882   1.824   8.775
 9963SOL    HW131896   2.918   1.740  19.788
 9963SOL    HW231897 -19.181   1.882   8.700
 9964SOL     OW31898   8.646  -2.529   6.017
 9964SOL    HW131899   8.711   8.455   6.060
 9964SOL    HW231900   8.666  41.622 -16.156
 9965SOL     OW31901   3.775   7.645  10.562
 9965SOL    HW131902   3.789   7.737  10.585
 9965SOL    HW231903  14.800  40.720  10.646
 9966SOL     OW31904   7.384   1.614   1.544
 9966SOL    HW131905  18.349   1.660  -9.457
 9966SOL    HW231906  29.428   1.572   1.466
 9967SOL     OW31907  10.339   8.262   0.471
 9967SOL    HW131908  10.278   8.261   0.398
 9967SOL    HW231909  -0.628   8.318   0.442
 9968SOL     OW31910   2.619   3.053   8.980
 9968SOL    HW131911   2.661   2.977   9.021
 9968SOL    HW231912   2.528  -8.014   8.967
 9969SOL     OW31913   6.300   3.154   3.054
 9969SOL    HW131914   6.312   3.235   3.005
 9969SOL    HW231915   6.206   3.151  14.112
 9970SOL     OW31916  -0.219   3.839   2.387
 9970SOL    HW131917  -0.247  -7.152   2.309
 9970SOL    HW231918  21.898  -7.133   2.444
 9971SOL     OW31919   2.903   3.111   2.634
 9971SOL    HW131920  24.923   3.186  13.666
 9971SOL    HW231921   2.990   3.149   2.626
 9972SOL     OW31922   3.871   2.207   4.475
 9972SOL    HW131923   3.962   2.188   4.500
 9972SOL    HW231924   3.867  13.342  15.508
 9973SOL     OW31925  11.342   5.661   2.309
 9973SOL    HW131926 -10.759 -27.475   2.401
 9973SOL    HW231927  11.340 -16.323   2.302
 9974SOL     OW31928   4.189   6.590   5.229
 9974SOL    HW131929   4.137   6.595   5.149
 9974SOL    HW231930  15.230   6.497  16.291
 9975SOL     OW31931  12.761   1.201   0.767
 9975SOL    HW131932  12.814   1.186  22.769
 9975SOL    HW231933 -31.388  12.160   0.819
 9976SOL     OW31934   5.360   4.113   3.510
 9976SOL    HW131935  16.491   4.098   3.533
 9976SOL    HW231936  27.420   4.201  25.622
 9977SOL     OW31937   4.195   8.957  -0.405
 9977SOL    HW131938  -6.805   9.012  -0.338
 9977SOL    HW231939   4.244   8.875  10.639
 9978SOL     OW31940   0.795   2.388   7.847
 9978SOL    HW131941   0.735   2.351   7.783
 9978SOL    HW231942 -10.179   2.434   7.794
 9979SOL     OW31943   0.724   2.467   7.464
 9979SOL    HW131944   0.671   2.393   7.493
 9979SOL    HW231945   0.694   2.541   7.516
 9980SOL     OW31946   7.723   4.305   1.696
 9980SOL    HW131947  -3.331  15.257   1.730
 9980SOL    HW231948   7.647   4.355   1.725
 9981SOL     OW31949   7.015   4.168   6.480
 9981SOL    HW131950   7.045   4.236   6.542
 9981SOL    HW231951   7.032  15.245  28.473
 9982SOL     OW31952   3.774   6.248   6.297
 9982SOL    HW131953  25.931   6.304   6.297
 9982SOL    HW231954   3.726  17.314   6.219
 9983SOL     OW31955   0.497   1.810   9.519
 9983SOL    HW131956   0.443   1.732   9.505
 9983SOL    HW231957   0.568   1.801  -1.584
 9984SOL     OW31958   1.510   8.968  -1.053
 9984SOL    HW131959  -9.439   8.957   9.956
 9984SOL    HW231960   1.456  -2.088   9.910
 9985SOL     OW31961   1.442   6.020  11.743
 9985SOL    HW131962   1.463   5.997 -10.427
 9985SOL    HW231963   1.509   6.083 -10.311
 9986SOL     OW31964   0.663   3.073   3.313
 9986SOL    HW131965   0.665   3.097   3.221
 9986SOL    HW231966   0.570  -7.981   3.332
 9987SOL     OW31967   1.590   4.905  11.027
 9987SOL    HW131968   1.640   4.958  10.965
 9987SOL    HW231969   1.647  15.937  11.104
 9988SOL     OW31970   0.457   0.689   9.442
 9988SOL    HW131971   0.497  11.796   9.496
 9988SOL    HW231972   0.460   0.610   9.496
 9989SOL     OW31973  10.324   4.338   9.858
 9989SOL    HW131974  10.291   4.388   9.784
 9989SOL    HW231975  10.353  -6.784   9.821
 9990SOL     OW31976   3.086   2.342   8.219
 9990SOL    HW131977  14.033  -8.687  19.278
 9990SOL    HW231978   3.099   2.247 -24.900
 9991SOL     OW31979   2.638  10.831  10.506
 9991SOL    HW131980   2.656  10.924  10.502
 9991SOL    HW231981 -30.444  -0.237  -0.450
 9992SOL     OW31982   2.664   8.981   7.562
 9992SOL    HW131983 -19.474   8.945  -3.544
 9992SOL    HW231984   2.648   8.927   7.640
 9993SOL     OW31985   6.281   6.472   6.650
 9993SOL    HW131986   6.265   6.567   6.651
 9993SOL    HW231987  17.298  -4.596   6.738
 9994SOL     OW31988   9.915   9.142   0.859
 9994SOL    HW131989   9.942   9.233 -10.194
 9994SOL    HW231990   9.842   9.147   0.920
 9995SOL     OW31991   0.647   1.747   1.899
 9995SOL    HW131992   0.707   1.801   1.847
 9995SOL    HW231993   0.600   1.694   1.834
 9996SOL     OW31994   3.857  10.084   8.547
 9996SOL    HW131995   3.883   9.993  30.634
 9996SOL    HW231996  25.874  10.086   8.474
 9997SOL     OW31997   6.320   3.402  10.035
 9997SOL    HW131998   6.393   3.464  10.036
 9997SOL    HW231999  50.516  14.360  21.042
 9998SOL     OW32000   2.347   3.035   8.986
 9998SOL    HW132001  -8.727   2.989 -13.016
 9998SOL    HW232002  -8.729   3.123   8.993
 9999SOL     OW32003   6.135   2.639  10.665
 9999SOL    HW132004  39.328 -19.500  -0.363
 9999SOL    HW232005   6.174 -19.353  10.668
10000SOL     OW32006  10.737   9.054   3.652
10000SOL    HW132007  10.680  -2.000   3.577
10000SOL    HW232008  10.810   8.993   3.639
10001SOL     OW32009   4.286   2.943   6.186
10001SOL    HW132010  26.389 -19.080  17.151
10001SOL    HW232011  15.385   2.868   6.178
10002SOL     OW32012   4.620   3.630   9.260
10002SOL    HW132013   4.542  47.737  -1.798
10002SOL    HW232014   4.643   3.670   9.176
10003SOL     OW32015   4.102   2.832   0.855
10003SOL    HW132016  15.104   2.871   0.935
10003SOL    HW232017  -6.999   2.762   0.832
10004SOL     OW32018   6.787   7.998   6.689
10004SOL    HW132019   6.745  18.951   6.691
10004SOL    HW232020   6.880   7.979  28.782
10005SOL     OW32021   4.194   4.910   3.111
10005SOL    HW132022   4.284   4.918   3.144
10005SOL    HW232023   4.177  -6.223   3.108
10006SOL     OW32024  11.132   5.868  10.645
10006SOL    HW132025   0.019  16.963  10.671
10006SOL    HW232026 -21.909  16.963  10.656
10007SOL     OW32027   5.529   5.558   4.479
10007SOL    HW132028   5.621   5.538   4.498
10007SOL    HW232029   5.508  -5.536  -6.636
10008SOL     OW32030   2.829   0.389   4.990
10008SOL    HW132031   2.781   0.352   5.064
10008SOL    HW232032   2.840   0.481  38.131
10009SOL     OW32033   6.806   7.830   8.564
10009SOL    HW132034   6.799  29.867   8.479
10009SOL    HW232035   6.837   7.761   8.623
10010SOL     OW32036   3.815  10.083   3.401
10010SOL    HW132037   3.856  10.086   3.315
10010SOL    HW232038   3.888  21.122  -7.576
10011SOL     OW32039   7.924   6.242   0.845
10011SOL    HW132040  -3.099   6.187   0.922
10011SOL    HW232041 -14.249   6.261  11.889
10012SOL     OW32042   1.479   3.215   7.023
10012SOL    HW132043  12.576   3.227   6.948
10012SOL    HW232044   1.404   3.272   7.005
10013SOL     OW32045   5.191   0.414   9.535
10013SOL    HW132046   5.095   0.416   9.525
10013SOL    HW232047  27.296   0.330   9.499
10014SOL     OW32048   6.755   3.804   4.415
10014SOL    HW132049   6.769   3.841  15.368
10014SOL    HW232050   6.798   3.719  26.491
10015SOL     OW32051   7.827   0.634   8.333
10015SOL    HW132052   7.854   0.547   8.362
10015SOL    HW232053  18.772  11.665  19.360
10016SOL     OW32054   1.829   0.472   0.537
10016SOL    HW132055   1.733   0.467   0.538
10016SOL    HW232056   1.857  11.431   0.494
10017SOL     OW32057  10.549   0.392   2.793
10017SOL    HW132058  10.579   0.356   2.710
10017SOL    HW232059  10.626   0.393  13.889
10018SOL     OW32060   9.628   2.957   9.946
10018SOL    HW132061   9.659   2.952   9.856
10018SOL    HW232062   9.655   2.874   9.986
10019SOL     OW32063   8.177   6.193   5.581
10019SOL    HW132064   8.090  -4.841   5.542
10019SOL    HW232065  19.256  28.195   5.540
10020SOL     OW32066   6.755   3.558   2.623
10020SOL    HW132067   6.700   3.494  35.696
10020SOL    HW232068 -26.322   3.609  24.633
10021SOL     OW32069   2.090   8.581   8.257
10021SOL    HW132070  13.151 -13.591   8.268
10021SOL    HW232071   2.088  -2.424   8.346
10022SOL     OW32072   8.720   4.986   2.509
10022SOL    HW132073  -2.380  15.954  -8.549
10022SOL    HW232074  41.866   4.973   2.599
10023SOL     OW32075   5.647   2.952   5.609
10023SOL    HW132076   5.719   3.006  16.684
10023SOL    HW232077   5.688   2.868   5.589
10024SOL     OW32078   0.041   8.512   5.383
10024SOL    HW132079   0.106  19.509   5.438
10024SOL    HW232080  -0.043   8.484   5.419
10025SOL     OW32081   2.233   2.291  -0.191
10025SOL    HW132082  -8.726  13.288  -0.162
10025SOL    HW232083  13.267  46.529  10.903
10026SOL     OW32084  11.236   6.550   1.025
10026SOL    HW132085   0.193  -4.526   1.114
10026SOL    HW232086  11.149   6.533   0.989
10027SOL     OW32087   0.706   7.416   7.096
10027SOL    HW132088   0.648  18.416  -4.009
10027SOL    HW232089 -10.313   7.502  -3.979
10028SOL     OW32090  -0.076  10.005   8.093
10028SOL    HW132091  10.886 -45.231   8.134
10028SOL    HW232092  -0.003  -1.075  19.178
10029SOL     OW32093  10.260   6.494   1.157
10029SOL    HW132094  10.212   6.565   1.114
10029SOL    HW232095  -0.689   6.522  12.195
10030SOL     OW32096   8.039   7.284   7.189
10030SOL    HW132097   7.956   7.238  -3.842
10030SOL    HW232098   8.099  51.394   7.245
10031SOL     OW32099   7.931   7.462   8.506
10031SOL    HW132100   7.877  -3.546   8.579
10031SOL    HW232101   7.878  18.433   8.466
10032SOL     OW32102   6.649   6.336   4.864
10032SOL    HW132103   6.655   6.262   4.924
10032SOL    HW232104   6.558 -15.744   4.834
10033SOL     OW32105   6.251   6.884   7.032
10033SOL    HW132106 -15.883   6.899   6.955
10033SOL    HW232107   6.242   6.790  -3.990
10034SOL     OW32108   5.293   4.329   3.648
10034SOL    HW132109   5.316   4.287  25.810
10034SOL    HW232110  -5.758  15.461  47.828
10035SOL     OW32111   7.630   4.004  10.564
10035SOL    HW132112   7.606  -6.994  10.647
10035SOL    HW232113   7.703  37.065  10.587
10036SOL     OW32114   2.869  11.917  10.419
10036SOL    HW132115  13.953   0.862  -0.537
10036SOL    HW232116   2.802 -21.136  10.438
10037SOL     OW32117   6.591   6.656   4.722
10037SOL    HW132118   6.525   6.614  15.818
10037SOL    HW232119   6.600 -15.482   4.648
10038SOL     OW32120   9.096   6.034   6.716
10038SOL    HW132121   9.033   6.082   6.769
10038SOL    HW232122   9.079 -16.137   6.736
10039SOL     OW32123   9.781   6.466   1.453
10039SOL    HW132124   9.810 -15.650   1.369
10039SOL    HW232125   9.686   6.455   1.453
10040SOL     OW32126   4.242   5.912   6.186
10040SOL    HW132127  37.404   5.919  28.181
10040SOL    HW232128  26.286   6.000  -4.838
10041SOL     OW32129   3.617   9.847   1.436
10041SOL    HW132130  14.692 -12.217  -9.691
10041SOL    HW232131   3.661   9.768  -9.572
10042SOL     OW32132   3.190   4.162  10.561
10042SOL    HW132133   3.244  26.196  -0.414
10042SOL    HW232134   3.132  15.257  10.613
10043SOL     OW32135  11.409   5.445   9.139
10043SOL    HW132136  11.470 -38.651  31.257
10043SOL    HW232137   0.324 -27.624   9.071
10044SOL     OW32138  11.577   6.891   8.987
10044SOL    HW132139   0.475 -15.119  20.049
10044SOL    HW232140  11.537 -26.308   9.019
10045SOL     OW32141   7.946   0.203  -0.621
10045SOL    HW132142   7.951   0.297  21.440
10045SOL    HW232143  -3.167   0.173  -0.674
10046SOL     OW32144   8.219   3.239   6.979
10046SOL    HW132145   8.204   3.215   6.887
10046SOL    HW232146   8.136   3.221   7.023
10047SOL     OW32147   4.991   1.239   7.442
10047SOL    HW132148   5.058   1.259   7.377
10047SOL    HW232149  -6.077   1.150   7.421
10048SOL     OW32150  10.761  10.615   2.081
10048SOL    HW132151  10.817  10.637  13.046
10048SOL    HW232152  10.770  -0.349   2.140
10049SOL     OW32153   9.993  10.541   6.831
10049SOL    HW132154  10.017  10.619   6.882
10049SOL    HW232155   9.963  10.479   6.897
10050SOL     OW32156   5.793   5.736   8.108
10050SOL    HW132157   5.865 -16.282   8.116
10050SOL    HW232158   5.755  -5.285   8.022
10051SOL     OW32159   4.813   5.796  10.707
10051SOL    HW132160   4.781   5.711  10.738
10051SOL    HW232161   4.906  -5.244  10.728
10052SOL     OW32162   1.091   5.962   3.006
10052SOL    HW132163   1.009   5.916   3.027
10052SOL    HW232164   1.155   5.927   3.068
10053SOL     OW32165   8.145   9.538   2.262
10053SOL    HW132166  19.220   9.469   2.206
10053SOL    HW232167   8.181   9.520  -8.691
10054SOL     OW32168   4.905   6.176   4.177
10054SOL    HW132169   4.852   6.244 -17.945
10054SOL    HW232170  38.113   6.210   4.177
10055SOL     OW32171   3.493   8.299   5.900
10055SOL    HW132172   3.402 -13.750   5.910
10055SOL    HW232173 -29.628   8.207   5.925
10056SOL     OW32174   5.850  11.484  -0.246
10056SOL    HW132175  27.834 -10.607  -0.243
10056SOL    HW232176  16.908  11.544  10.866
10057SOL     OW32177   9.540   3.407  10.036
10057SOL    HW132178  -1.519   3.411  10.130
10057SOL    HW232179 -12.619 -29.747   9.997
10058SOL     OW32180  10.474   6.187   3.400
10058SOL    HW132181  10.518   6.111   3.438
10058SOL    HW232182  10.421   6.151   3.329
10059SOL     OW32183   6.519   1.365   4.571
10059SOL    HW132184  17.495   1.437   4.572
10059SOL    HW232185   6.548  -9.680  -6.560
10060SOL     OW32186   3.656  10.048   1.866
10060SOL    HW132187  -7.381  10.081   1.956
10060SOL    HW232188   3.746  10.058   1.834
10061SOL     OW32189   4.504   6.681  10.467
10061SOL    HW132190   4.519  28.691  -0.636
10061SOL    HW232191   4.410  -4.359  10.482
10062SOL     OW32192   9.082   5.093   5.657
10062SOL    HW132193  20.208   5.080   5.696
10062SOL    HW232194  20.130   5.058   5.568
10063SOL     OW32195   6.765   4.164   4.222
10063SOL    HW132196   6.696   4.112  15.304
10063SOL    HW232197   6.789  26.191   4.145
10064SOL     OW32198  10.499   5.068   6.416
10064SOL    HW132199  10.550   5.061  17.536
10064SOL    HW232200  10.532   5.147   6.373
10065SOL     OW32201   2.154   1.622   2.545
10065SOL    HW132202   2.127   1.670  24.546
10065SOL    HW232203  13.239   1.687   2.598
10066SOL     OW32204   2.313  10.294   6.951
10066SOL    HW132205   2.267  10.211   6.943
10066SOL    HW232206   2.246  21.397   6.978
10067SOL     OW32207   8.480   4.863   9.302
10067SOL    HW132208  30.603   4.807  20.405
10067SOL    HW232209   8.481  15.852   9.221
10068SOL     OW32210   8.421   2.522   1.157
10068SOL    HW132211   8.427   2.521   1.252
10068SOL    HW232212   8.331   2.498   1.138
10069SOL     OW32213  10.033   7.415   9.065
10069SOL    HW132214   9.949 -14.698  -2.005
10069SOL    HW232215  10.068  29.543   8.990
10070SOL     OW32216   4.256   2.448   9.482
10070SOL    HW132217   4.218  24.593   9.540
10070SOL    HW232218   4.315   2.497  -1.615
10071SOL     OW32219   4.313   5.900  10.780
10071SOL    HW132220   4.271   5.949  10.709
10071SOL    HW232221   4.256  16.863  10.793
10072SOL     OW32222  -0.764   7.631   7.653
10072SOL    HW132223  21.290 -14.375   7.596
10072SOL    HW232224  -0.681   7.660  -3.347
10073SOL     OW32225   0.560   3.086   7.201
10073SOL    HW132226  33.637   3.160   7.245
10073SOL    HW232227   0.545   3.011  18.299
10074SOL     OW32228  10.043  -0.890   5.481
10074SOL    HW132229  -1.053  -0.845 -16.535
10074SOL    HW232230  10.096  21.130   5.535
10075SOL     OW32231   3.893  10.817   6.042
10075SOL    HW132232   3.855  10.779   6.121
10075SOL    HW232233   3.822  10.814   5.978
10076SOL     OW32234   1.487   8.257   4.391
10076SOL    HW132235   1.552  -2.714   4.378
10076SOL    HW232236  -9.545   8.233   4.483
10077SOL     OW32237  -0.704   1.408   8.738
10077SOL    HW132238  10.361   1.341   8.801
10077SOL    HW232239  10.369   1.375   8.654
10078SOL     OW32240   3.013   2.954   9.100
10078SOL    HW132241   2.969  13.916  20.174
10078SOL    HW232242  14.030   2.956  -2.032
10079SOL     OW32243   5.562   2.475  11.395
10079SOL    HW132244   5.556   2.547 -21.786
10079SOL    HW232245   5.592   2.401  11.342
10080SOL     OW32246   5.841   1.244   6.843
10080SOL    HW132247   5.827   1.274   6.933
10080SOL    HW232248   5.936   1.230 -15.242
10081SOL     OW32249   2.447   6.609   2.931
10081SOL    HW132250   2.381  -4.366  -8.084
10081SOL    HW232251   2.516  17.659   2.996
10082SOL     OW32252   7.287   1.279   7.931
10082SOL    HW132253 -14.808  12.358   7.845
10082SOL    HW232254   7.279   1.185   7.916
10083SOL     OW32255   2.125   8.731   5.524
10083SOL    HW132256   2.211   8.737   5.565
10083SOL    HW232257  -8.971   8.694   5.592
10084SOL     OW32258  -1.024   1.895   1.924
10084SOL    HW132259  -1.076   1.896   2.005
10084SOL    HW232260  21.053   1.804  12.934
10085SOL     OW32261   5.062   2.955  10.304
10085SOL    HW132262  -5.956   3.020  10.371
10085SOL    HW232263  27.209  13.928  10.314
10086SOL     OW32264   5.349   1.425   7.447
10086SOL    HW132265   5.278   1.391 -25.727
10086SOL    HW232266   5.429   1.402 -14.679
10087SOL     OW32267   0.679   4.371  10.790
10087SOL    HW132268   0.700   4.391  -0.159
10087SOL    HW232269  11.762   4.439  10.739
10088SOL     OW32270   9.107   4.102   4.667
10088SOL    HW132271   9.045   4.059   4.726
10088SOL    HW232272   9.164   4.153   4.725
10089SOL     OW32273  -0.778   3.411   8.256
10089SOL    HW132274  21.256   3.330   8.278
10089SOL    HW232275  -0.700   3.382 -24.912
10090SOL     OW32276   8.082   8.987   9.078
10090SOL    HW132277   8.084   8.904  -2.009
10090SOL    HW232278   7.989   9.004   9.091
10091SOL     OW32279   8.934   9.103   8.883
10091SOL    HW132280 -13.219   9.156   8.853
10091SOL    HW232281   8.940   9.121   8.976
10092SOL     OW32282   1.706   7.477   9.338
10092SOL    HW132283   1.670  -3.597   9.419
10092SOL    HW232284  12.691 -14.526  -1.721
10093SOL     OW32285   2.615   3.800   3.910
10093SOL    HW132286  35.642   3.789   3.884
10093SOL    HW232287  35.735   3.774   4.002
10094SOL     OW32288  10.369   9.907   9.804
10094SOL    HW132289  10.383   9.987 -12.224
10094SOL    HW232290  10.449  -1.183   9.815
10095SOL     OW32291   2.687   5.682   8.844
10095SOL    HW132292   2.714  -5.345   8.934
10095SOL    HW232293   2.690   5.769   8.805
10096SOL     OW32294   7.078   4.859   6.096
10096SOL    HW132295  18.066  -6.261 -15.988
10096SOL    HW232296  18.192  -6.203   6.151
10097SOL     OW32297  13.363   0.269   3.900
10097SOL    HW132298 -19.671   0.283   3.942
10097SOL    HW232299  -8.778   0.318   3.954
10098SOL     OW32300   4.722   8.091   2.887
10098SOL    HW132301  26.874   8.040   2.921
10098SOL    HW232302  -6.334  -2.882   2.954
10099SOL     OW32303  -0.971   0.580   5.651
10099SOL    HW132304  21.140   0.516  16.754
10099SOL    HW232305  -1.005   0.527  16.619
10100SOL     OW32306   0.802   6.713   2.640
10100SOL    HW132307 -10.170   6.648  13.659
10100SOL    HW232308   0.781   6.696 -19.347
10101SOL     OW32309   9.006   2.410   5.541
10101SOL    HW132310   8.976   2.351   5.472
10101SOL    HW232311   9.056  13.394   5.601
10102SOL     OW32312   4.312   2.970   3.125
10102SOL    HW132313   4.382  -8.117  14.211
10102SOL    HW232314   4.232   2.947   3.172
10103SOL     OW32315   8.417  10.004   8.132
10103SOL    HW132316   8.377  10.063  -2.972
10103SOL    HW232317   8.344   9.974  41.304
10104SOL     OW32318   7.228   3.813   8.367
10104SOL    HW132319   7.252   3.750   8.300
10104SOL    HW232320   7.269   3.895   8.339
10105SOL     OW32321   7.551  10.484  10.863
10105SOL    HW132322   7.594  10.484  10.777
10105SOL    HW232323   7.468  10.529  10.849
10106SOL     OW32324   3.409   4.034   6.350
10106SOL    HW132325   3.330  -7.022 -15.677
10106SOL    HW232326   3.479   4.043   6.416
10107SOL     OW32327   8.612   5.704   5.886
10107SOL    HW132328   8.668 -27.442   5.814
10107SOL    HW232329   8.619  -5.241   5.888
10108SOL     OW32330   4.196   0.122   0.386
10108SOL    HW132331  15.146   0.097  11.403
10108SOL    HW232332   4.226  44.332   0.311
10109SOL     OW32333  10.002   0.850   9.674
10109SOL    HW132334  10.053   0.821  20.789
10109SOL    HW232335   9.933   0.784   9.665
10110SOL     OW32336  -1.238  -0.454  11.884
10110SOL    HW132337  -1.145  32.682  11.900
10110SOL    HW232338  20.837  32.571 -43.332
10111SOL     OW32339   6.151   0.621   3.105
10111SOL    HW132340   6.083 -10.482   3.081
10111SOL    HW232341   6.176   0.662   3.023
10112SOL     OW32342   0.682   1.965   0.435
10112SOL    HW132343  11.630  -9.095   0.454
10112SOL    HW232344   0.695   2.054   0.469
10113SOL     OW32345  10.980  10.577   6.993
10113SOL    HW132346  10.959  10.641  -3.978
10113SOL    HW232347  11.066  10.604  -4.079
10114SOL     OW32348   7.926  -0.965  10.936
10114SOL    HW132349   8.004  10.097  10.988
10114SOL    HW232350   7.957  10.078  10.845
10115SOL     OW32351   3.360   4.003   0.185
10115SOL    HW132352   3.284   3.969   0.232
10115SOL    HW232353   3.415  14.967  11.209
10116SOL     OW32354   9.780   4.707   3.915
10116SOL    HW132355   9.760  15.771   3.825
10116SOL    HW232356  31.940  -6.384   3.909
10117SOL     OW32357   1.445   1.143   5.675
10117SOL    HW132358   1.391   1.208   5.630
10117SOL    HW232359  -9.504   1.172  -5.379
10118SOL     OW32360   7.451   1.378  10.070
10118SOL    HW132361   7.518  12.350  10.064
10118SOL    HW232362  -3.573   1.434   9.993
10119SOL     OW32363   8.236   9.706   4.530
10119SOL    HW132364  30.240   9.684   4.585
10119SOL    HW232365   8.212   9.673  15.482
10120SOL     OW32366   3.917   9.471   0.648
10120SOL    HW132367   3.988 -12.636 -10.449
10120SOL    HW232368   3.924  -1.473  11.690
10121SOL     OW32369   6.713  10.478   9.530
10121SOL    HW132370   6.689  10.399  -1.460
10121SOL    HW232371   6.671  -0.573   9.445
10122SOL     OW32372   2.610   3.791   1.746
10122SOL    HW132373   2.636   3.771   1.656
10122SOL    HW232374   2.593   3.705  12.825
10123SOL     OW32375   3.087   7.430   1.873
10123SOL    HW132376  25.253   7.408   1.907
10123SOL    HW232377   3.059   7.504  -9.113
10124SOL     OW32378   7.413   8.515   4.107
10124SOL    HW132379   7.449   8.530   4.195
10124SOL    HW232380  18.363  19.586   4.112
10125SOL     OW32381   3.563   2.882  11.734
10125SOL    HW132382  14.654 -19.273 -10.370
10125SOL    HW232383  -7.528  13.892  11.809
10126SOL     OW32384   8.346   8.290  10.571
10126SOL    HW132385  19.304   8.246  -0.443
10126SOL    HW232386  30.419  19.337  10.476
10127SOL     OW32387   1.899   0.014   7.056
10127SOL    HW132388   1.900  -0.056  -4.049
10127SOL    HW232389   1.888   0.094   7.006
10128SOL     OW32390   1.990   0.666   4.268
10128SOL    HW132391   1.917   0.726   4.286
10128SOL    HW232392   2.067   0.722  15.305
10129SOL     OW32393   6.053   0.116   3.805
10129SOL    HW132394  -5.016  33.213 -40.441
10129SOL    HW232395  -5.060   0.166   3.843
10130SOL     OW32396   2.445   5.975  10.605
10130SOL    HW132397   2.474   6.038  10.671
10130SOL    HW232398  13.547   5.903  10.612
10131SOL     OW32399   3.485   4.977   8.435
10131SOL    HW132400  -7.546   4.946  19.385
10131SOL    HW232401   3.457  38.019   8.485
10132SOL     OW32402   3.018   9.544   4.745
10132SOL    HW132403  14.071   9.629   4.786
10132SOL    HW232404   3.015   9.564  15.691
10133SOL     OW32405   4.037   4.067   2.896
10133SOL    HW132406   3.988   4.120   2.834
10133SOL    HW232407   4.010  15.016  13.918
10134SOL     OW32408   3.701   3.041   9.750
10134SOL    HW132409  25.824 -18.999   9.826
10134SOL    HW232410  14.653   3.080   9.750
10135SOL     OW32411  14.877   1.968   7.947
10135SOL    HW132412 -18.196   1.917   7.880
10135SOL    HW232413 -29.358   1.915  -3.071
10136SOL     OW32414   9.996   2.842   3.400
10136SOL    HW132415   9.940  -8.122   3.381
10136SOL    HW232416  21.121   2.880   3.420
10137SOL     OW32417  10.825  10.851   8.756
10137SOL    HW132418  -0.247  10.931   8.797
10137SOL    HW232419  10.845  10.792   8.829
10138SOL     OW32420   0.763   1.957   7.527
10138SOL    HW132421   0.794   1.867 -14.539
10138SOL    HW232422  11.721   1.962   7.577
10139SOL     OW32423   4.740   4.309   5.733
10139SOL    HW132424   4.761  -6.774  27.895
10139SOL    HW232425  15.739   4.392  -5.281
10140SOL     OW32426   6.183   0.069   5.295
10140SOL    HW132427  -4.788   0.086  16.400
10140SOL    HW232428   6.142  22.233   5.280
10141SOL     OW32429  10.467   3.473   6.600
10141SOL    HW132430  10.450  -7.549 -15.572
10141SOL    HW232431  10.416  14.578   6.647
10142SOL     OW32432   6.336  10.371  11.030
10142SOL    HW132433   6.246  10.372   0.024
10142SOL    HW232434  17.386  21.496 -11.090
10143SOL     OW32435   6.616   5.455   9.916
10143SOL    HW132436   6.627  49.569  20.872
10143SOL    HW232437   6.585  16.582   9.893
10144SOL     OW32438   4.440   4.426   9.294
10144SOL    HW132439   4.484   4.501   9.332
10144SOL    HW232440  -6.660  15.503  20.269
10145SOL     OW32441   2.564   2.442   0.281
10145SOL    HW132442   2.535   2.356   0.251
10145SOL    HW232443  -8.535   2.465   0.352
10146SOL     OW32444   1.261   9.354   0.125
10146SOL    HW132445   1.235   9.416   0.193
10146SOL    HW232446  12.297   9.405   0.044
10147SOL     OW32447   1.779   2.178   8.670
10147SOL    HW132448   1.716   2.185  19.638
10147SOL    HW232449   1.806  24.166   8.671
10148SOL     OW32450   5.516   8.060   0.525
10148SOL    HW132451   5.488   7.993  44.621
10148SOL    HW232452   5.463  -2.903  11.545
10149SOL     OW32453  10.862   9.830   3.630
10149SOL    HW132454  10.948   9.791  -7.398
10149SOL    HW232455  10.801   9.765  14.705
10150SOL     OW32456   0.653   9.096   7.775
10150SOL    HW132457   0.655   9.192  18.819
10150SOL    HW232458   0.564   9.075   7.747
10151SOL     OW32459   5.349   5.144   1.485
10151SOL    HW132460   5.337   5.239   1.482
10151SOL    HW232461   5.435   5.129   1.445
10152SOL     OW32462   7.743   7.435   6.517
10152SOL    HW132463  -3.358   7.463   6.450
10152SOL    HW232464   7.829   7.449   6.479
10153SOL     OW32465   8.490  10.419   1.781
10153SOL    HW132466   8.412  10.384  12.777
10153SOL    HW232467  -2.557  10.389   1.871
10154SOL     OW32468   7.404   1.983   4.286
10154SOL    HW132469   7.429   2.020   4.370
10154SOL    HW232470   7.386   1.891 -50.893
10155SOL     OW32471  10.106  10.049   0.299
10155SOL    HW132472  10.146  10.122   0.346
10155SOL    HW232473  10.031  21.128  22.333
10156SOL     OW32474   1.902   2.343   1.599
10156SOL    HW132475   1.841   2.412  23.653
10156SOL    HW232476   1.894   2.337  12.734
10157SOL     OW32477   1.166  10.340   6.251
10157SOL    HW132478   1.209  10.287   6.318
10157SOL    HW232479   1.134  -0.622   6.297
10158SOL     OW32480   1.287   2.518   9.765
10158SOL    HW132481   1.276   2.430  20.843
10158SOL    HW232482   1.214   2.569   9.801
10159SOL     OW32483   9.799   2.117   6.060
10159SOL    HW132484  20.923  -8.967  39.180
10159SOL    HW232485   9.774   2.119   5.968
10160SOL     OW32486   0.864  10.873   1.865
10160SOL    HW132487 -10.216  10.804  34.931
10160SOL    HW232488   0.819  -0.087   1.837
10161SOL     OW32489   4.733  10.428   8.851
10161SOL    HW132490   4.721  10.514   8.891
10161SOL    HW232491   4.738  -0.672   8.925
10162SOL     OW32492   6.270   9.379   8.074
10162SOL    HW132493   6.333   9.422  -3.023
10162SOL    HW232494  17.323 -12.794   8.060
10163SOL     OW32495  -0.289  12.484   6.179
10163SOL    HW132496  10.714  -9.514   6.142
10163SOL    HW232497  -0.348  -9.617   6.251
10164SOL     OW32498   6.784   3.697   5.550
10164SOL    HW132499   6.859   3.641  16.610
10164SOL    HW232500   6.763  -7.363   5.459
10165SOL     OW32501   1.740   1.756   9.149
10165SOL    HW132502   1.827   1.788   9.128
10165SOL    HW232503   1.682   1.829   9.129
10166SOL     OW32504   3.299   0.901   5.596
10166SOL    HW132505  25.349   0.849   5.521
10166SOL    HW232506   3.315  23.068   5.560
10167SOL     OW32507  11.260   7.002   4.038
10167SOL    HW132508   0.287 -26.055  15.048
10167SOL    HW232509  11.179   7.054   4.042
10168SOL     OW32510  11.708   3.695   5.228
10168SOL    HW132511 -10.384   3.767   5.166
10168SOL    HW232512  11.777   3.642  16.229
10169SOL     OW32513   1.109   5.665   4.147
10169SOL    HW132514   1.057   5.627   4.218
10169SOL    HW232515   1.063   5.745   4.123
10170SOL     OW32516  10.421   1.894   8.437
10170SOL    HW132517  10.480   1.933 -13.706
10170SOL    HW232518  10.350   1.857  19.425
10171SOL     OW32519   0.916   3.310   9.653
10171SOL    HW132520   1.010  14.360   9.668
10171SOL    HW232521   0.906  -7.726   9.558
10172SOL     OW32522   8.712   6.850  -0.931
10172SOL    HW132523  30.702   6.816  43.224
10172SOL    HW232524   8.767   6.772  -0.943
10173SOL     OW32525   5.358   2.640  11.298
10173SOL    HW132526 -16.745   2.563  11.350
10173SOL    HW232527   5.318   2.623   0.173
10174SOL     OW32528   4.178   6.845   7.196
10174SOL    HW132529   4.122   6.881   7.127
10174SOL    HW232530   4.133   6.766   7.225
10175SOL     OW32531   1.300  -1.229   3.284
10175SOL    HW132532   1.385  42.970   3.268
10175SOL    HW232533   1.305  -1.262   3.374
10176SOL     OW32534   6.968  10.230   7.290
10176SOL    HW132535   6.969  10.158   7.226
10176SOL    HW232536   7.057  -0.775 -14.791
10177SOL     OW32537   4.414   8.146   4.397
10177SOL    HW132538   4.325   8.152   4.363
10177SOL    HW232539  15.494   8.230  -6.666
10178SOL     OW32540   6.155   7.185   3.783
10178SOL    HW132541   6.115   7.101   3.761
10178SOL    HW232542  -4.790   7.168   3.778
10179SOL     OW32543   5.081   1.993   4.849
10179SOL    HW132544   5.176   1.986   4.859
10179SOL    HW232545  -5.981   1.922  -6.251
10180SOL     OW32546  10.794   8.286   5.163
10180SOL    HW132547  -0.165   8.236  -5.891
10180SOL    HW232548  10.801   8.360   5.103
10181SOL     OW32549   8.521   0.747  10.176
10181SOL    HW132550   8.467   0.682  10.131
10181SOL    HW232551   8.604   0.747  10.128
10182SOL     OW32552   9.751   4.555   4.341
10182SOL    HW132553   9.825   4.616   4.344
10182SOL    HW232554   9.753   4.520  -6.788
10183SOL     OW32555  10.061   9.414   2.053
10183SOL    HW132556  10.095  -1.611   1.965
10183SOL    HW232557 -11.953   9.454   2.111
10184SOL     OW32558   1.475   4.934   8.772
10184SOL    HW132559   1.462   5.029   8.768
10184SOL    HW232560   1.500  15.956  19.902
10185SOL     OW32561   9.803  -0.374   5.022
10185SOL    HW132562   9.896  -0.394   5.013
10185SOL    HW232563   9.794  10.754   4.986
10186SOL     OW32564   9.753   2.340   3.730
10186SOL    HW132565   9.711  13.450   3.681
10186SOL    HW232566   9.840  35.492 -29.369
10187SOL     OW32567   8.742   6.079   7.832
10187SOL    HW132568   8.707   6.079   7.742
10187SOL    HW232569   8.829   6.118   7.823
10188SOL     OW32570   2.669   0.038   5.983
10188SOL    HW132571   2.707  44.212   6.070
10188SOL    HW232572  -8.295  22.103  16.966
10189SOL     OW32573   9.545   1.513   2.943
10189SOL    HW132574   9.557  12.583   3.033
10189SOL    HW232575  31.596  12.631   2.894
10190SOL     OW32576   0.533   8.607  10.328
10190SOL    HW132577   0.615  -2.478  10.311
10190SOL    HW232578   0.537   8.632  -0.620
10191SOL     OW32579   6.213   9.449   2.749
10191SOL    HW132580   6.255  -1.662   2.798
10191SOL    HW232581   6.137   9.408 -30.412
10192SOL     OW32582   1.993   8.540   8.519
10192SOL    HW132583  35.101   8.493  30.516
10192SOL    HW232584   1.939   8.493   8.582
10193SOL     OW32585  10.520   2.932   0.344
10193SOL    HW132586  -0.526   2.994   0.416
10193SOL    HW232587  10.583   2.971  11.323
10194SOL     OW32588   6.058   1.664   8.998
10194SOL    HW132589   5.995  12.769   8.968
10194SOL    HW232590   6.013   1.580   8.989
10195SOL     OW32591   4.897   7.353   4.654
10195SOL    HW132592   4.805  18.396  26.759
10195SOL    HW232593   4.901   7.404   4.573
10196SOL     OW32594   7.094   2.912   7.546
10196SOL    HW132595   7.121   2.967  -3.420
10196SOL    HW232596   7.068   2.974  18.517
10197SOL     OW32597   1.979   9.202   1.432
10197SOL    HW132598  -8.984   9.188  23.567
10197SOL    HW232599   1.905   9.203   1.493
10198SOL     OW32600   3.263   4.031   5.471
10198SOL    HW132601   3.280   4.050   5.379
10198SOL    HW232602   3.349   4.040  -5.526
10199SOL     OW32603   5.389   8.530   4.543
10199SOL    HW132604  -5.681  19.659  -6.507
10199SOL    HW232605  16.417   8.491   4.456
10200SOL     OW32606   4.910  -0.903   5.539
10200SOL    HW132607   4.903  10.167  16.488
10200SOL    HW232608   4.925  10.217   5.590
10201SOL     OW32609  10.093   2.321   9.931
10201SOL    HW132610  10.166  -8.657   9.929
10201SOL    HW232611  -1.008  13.397  -1.045
10202SOL     OW32612  10.663   3.663  10.819
10202SOL    HW132613  -0.343   3.683  10.906
10202SOL    HW232614  10.703   3.579  10.796
10203SOL     OW32615   3.246   6.638   9.185
10203SOL    HW132616 -18.809   6.657   9.094
10203SOL    HW232617   3.313   6.577   9.215
10204SOL     OW32618   4.289   8.399   7.759
10204SOL    HW132619   4.214   8.340   7.771
10204SOL    HW232620  -6.705   8.395   7.843
10205SOL     OW32621  10.010  10.012   9.000
10205SOL    HW132622   9.966  21.063   9.084
10205SOL    HW232623 -12.114  10.072   8.941
10206SOL     OW32624   4.741   9.252   1.092
10206SOL    HW132625  -6.266   9.342  23.167
10206SOL    HW232626  -6.227  -1.838   1.131
10207SOL     OW32627   5.110   9.077   8.560
10207SOL    HW132628   5.108   9.168  30.668
10207SOL    HW232629   5.203   9.054   8.557
10208SOL     OW32630   9.672   7.325   3.283
10208SOL    HW132631  -1.393  -3.697   3.192
10208SOL    HW232632  20.638 -25.845  -7.721
10209SOL     OW32633   1.944   2.766   7.698
10209SOL    HW132634   2.006   2.824   7.742
10209SOL    HW232635  46.129   2.767   7.606
10210SOL     OW32636   1.232   7.579   5.556
10210SOL    HW132637   1.188  -3.378 -16.501
10210SOL    HW232638   1.304   7.605   5.499
10211SOL     OW32639   5.334   8.511   5.361
10211SOL    HW132640 -16.692  30.669  -5.669
10211SOL    HW232641  16.336   8.517  -5.766
10212SOL     OW32642   1.875   7.579   7.592
10212SOL    HW132643  12.833   7.572  -3.497
10212SOL    HW232644   1.871   7.666   7.632
10213SOL     OW32645   5.419   2.796   1.435
10213SOL    HW132646  27.495   2.707   1.471
10213SOL    HW232647   5.433   2.852   1.511
10214SOL     OW32648  11.169   0.557   5.670
10214SOL    HW132649  11.097   0.616   5.694
10214SOL    HW232650 -10.861   0.605  -5.436
10215SOL     OW32651   4.760   4.184   3.741
10215SOL    HW132652   4.724   4.228   3.664
10215SOL    HW232653  37.860   4.091   3.727
10216SOL     OW32654   9.771   7.100   4.202
10216SOL    HW132655   9.804   7.146   4.279
10216SOL    HW232656   9.720   7.165   4.155
10217SOL     OW32657   4.299   4.908  -0.125
10217SOL    HW132658  15.388   4.925  10.995
10217SOL    HW232659   4.300   4.813  -0.134
10218SOL     OW32660   5.202   2.555   0.644
10218SOL    HW132661   5.130  13.604   0.582
10218SOL    HW232662  16.234 -30.654 -10.364
10219SOL     OW32663   9.127   4.902   6.454
10219SOL    HW132664   9.217   4.872   6.442
10219SOL    HW232665   9.091   4.907 -15.713
10220SOL     OW32666   4.362   1.528   9.080
10220SOL    HW132667   4.447   1.569   9.096
10220SOL    HW232668   4.346 -20.605   9.158
10221SOL     OW32669   4.250   1.298   0.716
10221SOL    HW132670   4.279   1.280   0.806
10221SOL    HW232671  15.247   1.217   0.688
10222SOL     OW32672   1.707  10.917   3.525
10222SOL    HW132673   1.720  11.010   3.547
10222SOL    HW232674   1.682  -0.121  -7.608
10223SOL     OW32675   1.934  10.936   0.906
10223SOL    HW132676   1.851  10.945   0.954
10223SOL    HW232677   1.999  10.975  12.004
10224SOL     OW32678   8.490   9.406  -0.196
10224SOL    HW132679   8.418   9.468  10.854
10224SOL    HW232680   8.475   9.341  -0.127
10225SOL     OW32681   8.111   9.590   9.599
10225SOL    HW132682 -36.119   9.653  20.645
10225SOL    HW232683   8.075   9.516   9.551
10226SOL     OW32684  10.647   8.082   9.993
10226SOL    HW132685  10.621   8.163   9.948
10226SOL    HW232686  10.740  -2.966   9.976
10227SOL     OW32687   3.184   8.991   3.986
10227SOL    HW132688   3.101   8.992   3.939
10227SOL    HW232689   3.191   8.902   4.022
10228SOL     OW32690   5.648   9.430   0.647
10228SOL    HW132691   5.642 -34.651  11.743
10228SOL    HW232692   5.558 -12.665 -10.420
10229SOL     OW32693   9.809   8.812   2.033
10229SOL    HW132694   9.725  19.831   2.075
10229SOL    HW232695   9.833   8.898   2.068
10230SOL     OW32696   7.792   0.007   8.338
10230SOL    HW132697  18.880  -0.076   8.343
10230SOL    HW232698   7.851   0.072   8.375
10231SOL     OW32699   2.564   3.276   7.137
10231SOL    HW132700   2.508  36.472   7.145
10231SOL    HW232701   2.602  47.423   7.224
10232SOL     OW32702   8.244   6.003   8.403
10232SOL    HW132703   8.211   6.086   8.368
10232SOL    HW232704  30.384   5.973   8.337
10233SOL     OW32705   1.700   9.956   7.100
10233SOL    HW132706   1.681 -12.147 -14.889
10233SOL    HW232707   1.749  21.078   7.108
10234SOL     OW32708  10.682   1.185   0.781
10234SOL    HW132709  10.606   1.197   0.837
10234SOL    HW232710  10.657   1.227   0.698
10235SOL     OW32711   8.654   8.184   6.991
10235SOL    HW132712  -2.295  -2.833   6.972
10235SOL    HW232713   8.655   8.089   7.006
10236SOL     OW32714   1.806   6.230   8.899
10236SOL    HW132715   1.826   6.321   8.874
10236SOL    HW232716   1.723   6.211  30.934
10237SOL     OW32717  10.186   7.895   0.245
10237SOL    HW132718 -33.888   7.910   0.288
10237SOL    HW232719  -0.912   7.960   0.283
10238SOL     OW32720   0.250   5.244   0.930
10238SOL    HW132721   0.290   5.212   0.849
10238SOL    HW232722  11.297   5.171   0.991
10239SOL     OW32723   4.535   0.095   3.895
10239SOL    HW132724   4.532   0.093   3.990
10239SOL    HW232725   4.584   0.175   3.874
10240SOL     OW32726   1.942   4.020  10.571
10240SOL    HW132727 -20.111   4.063 -22.629
10240SOL    HW232728  -9.192   4.037  10.578
10241SOL     OW32729   4.219   2.488   7.976
10241SOL    HW132730   4.152  13.462   7.994
10241SOL    HW232731   4.245  13.511   7.886
10242SOL     OW32732   2.306   9.440   5.923
10242SOL    HW132733   2.370  20.409   5.928
10242SOL    HW232734   2.221   9.396   5.928
10243SOL     OW32735   9.492  -0.465   0.447
10243SOL    HW132736   9.522  10.663   0.425
10243SOL    HW232737   9.512  -0.474  11.579
10244SOL     OW32738   7.208   8.558   9.806
10244SOL    HW132739   7.221   8.644 -23.273
10244SOL    HW232740   7.293   8.515   9.812
10245SOL     OW32741   7.189   6.237   6.915
10245SOL    HW132742   7.219   6.271   6.999
10245SOL    HW232743   7.094   6.238   6.920
10246SOL     OW32744   6.186   3.960   8.187
10246SOL    HW132745   6.206  14.917   8.230
10246SOL    HW232746  -4.769  15.030   8.154
10247SOL     OW32747   3.322   1.575   5.850
10247SOL    HW132748  25.412   1.480   5.845
10247SOL    HW232749  14.267  12.628  16.895
10248SOL     OW32750  10.843   0.118   0.747
10248SOL    HW132751  10.927   0.164 -10.295
10248SOL    HW232752  10.816   0.113  22.735
10249SOL     OW32753   4.166   8.000   5.495
10249SOL    HW132754   4.206   8.067   5.550
10249SOL    HW232755   4.100   8.047   5.444
10250SOL     OW32756   3.174  10.676   5.982
10250SOL    HW132757   3.169  10.581   5.968
10250SOL    HW232758  14.269  10.707  27.990
10251SOL     OW32759   9.994   1.093   4.157
10251SOL    HW132760   9.931  -9.926  -6.813
10251SOL    HW232761  10.076   1.079   4.204
10252SOL     OW32762   8.475  10.651   3.476
10252SOL    HW132763   8.515  10.673   3.561
10252SOL    HW232764   8.389  10.693   3.478
10253SOL     OW32765   3.740   3.636   1.158
10253SOL    HW132766  14.761  -7.336   1.223
10253SOL    HW232767  -7.241   3.678  12.134
10254SOL     OW32768  -0.409   7.515   0.604
10254SOL    HW132769  10.629   7.426   0.638
10254SOL    HW232770  10.616   7.570   0.681
10255SOL     OW32771  10.384   3.209   4.920
10255SOL    HW132772  10.393   3.184  16.052
10255SOL    HW232773  21.330   3.219   4.907
10256SOL     OW32774   4.410   3.925  10.342
10256SOL    HW132775  15.537   3.947  10.372
10256SOL    HW232776   4.357   4.002  21.402
10257SOL     OW32777   7.994   3.310   4.418
10257SOL    HW132778   7.929   3.243   4.397
10257SOL    HW232779   8.051   3.269  26.562
10258SOL     OW32780   4.277   8.812   1.310
10258SOL    HW132781   4.306  -2.170   1.239
10258SOL    HW232782   4.287 -13.214   1.389
10259SOL     OW32783  -0.378   1.694   2.537
10259SOL    HW132784  -0.428   1.774  24.600
10259SOL    HW232785  21.660   1.628   2.481
10260SOL     OW32786   8.869   2.617   8.355
10260SOL    HW132787  19.857   2.609   8.435
10260SOL    HW232788   8.894   2.710   8.352
10261SOL     OW32789   3.061   4.354   6.703
10261SOL    HW132790  -7.968   4.446  17.720
10261SOL    HW232791 -19.065  -6.724  -4.410
10262SOL     OW32792   7.458   2.218   5.718
10262SOL    HW132793 -14.651   2.269   5.644
10262SOL    HW232794   7.409  24.331 -16.286
10263SOL     OW32795   5.051   8.209   3.899
10263SOL    HW132796  27.122   8.180   3.990
10263SOL    HW232797   5.060   8.304   3.906
10264SOL     OW32798   0.627   5.934   8.725
10264SOL    HW132799   0.662   5.954   8.812
10264SOL    HW232800   0.654   6.008   8.670
10265SOL     OW32801   5.833  10.098   8.687
10265SOL    HW132802  -5.194  10.152   8.608
10265SOL    HW232803   5.753  10.132   8.726
10266SOL     OW32804   3.354   2.489   6.701
10266SOL    HW132805  14.330   2.549  17.702
10266SOL    HW232806  25.515   2.538   6.703
10267SOL     OW32807   0.111   8.621   5.769
10267SOL    HW132808   0.055   8.544   5.762
10267SOL    HW232809  11.225   8.603   5.711
10268SOL     OW32810   6.423   7.949   5.247
10268SOL    HW132811   6.368   7.913   5.178
10268SOL    HW232812  17.465   7.882  -5.725
10269SOL     OW32813   4.095   4.029   6.300
10269SOL    HW132814 -17.889   4.024   6.309
10269SOL    HW232815   4.062  -7.082   6.353
10270SOL     OW32816   8.323   1.656   5.627
10270SOL    HW132817   8.364   1.592   5.686
10270SOL    HW232818   8.233  23.704   5.619
10271SOL     OW32819   8.512   1.604   7.057
10271SOL    HW132820   8.464  23.604  29.160
10271SOL    HW232821   8.449  45.814  18.046
10272SOL     OW32822   1.436   6.468   4.579
10272SOL    HW132823   1.394   6.453  15.534
10272SOL    HW232824   1.476   6.384   4.601
10273SOL     OW32825  10.253   1.618   2.377
10273SOL    HW132826  21.201   1.646   2.373
10273SOL    HW232827  10.260  -9.488   2.309
10274SOL     OW32828   8.460   0.453   8.305
10274SOL    HW132829   8.397  11.435   8.261
10274SOL    HW232830   8.505  11.436   8.367
10275SOL     OW32831   5.283   4.812  10.903
10275SOL    HW132832 -27.835   4.871  10.828
10275SOL    HW232833  -5.699   4.854  10.968
10276SOL     OW32834   2.356  10.421   7.524
10276SOL    HW132835  13.365  10.367   7.452
10276SOL    HW232836   2.285  10.418   7.589
10277SOL     OW32837   8.417  10.063   3.428
10277SOL    HW132838  -2.710 -12.053  25.500
10277SOL    HW232839   8.422  10.127   3.356
10278SOL     OW32840   2.309   2.014   1.088
10278SOL    HW132841   2.387  13.107   1.071
10278SOL    HW232842  13.275  13.111   1.067
10279SOL     OW32843   8.146   2.814   0.579
10279SOL    HW132844   8.099  -8.300   0.542
10279SOL    HW232845   8.192   2.778   0.655
10280SOL     OW32846   1.865   5.880   5.192
10280SOL    HW132847   1.935   5.898  -5.910
10280SOL    HW232848   1.808 -27.161   5.187
10281SOL     OW32849   9.114   5.177   1.949
10281SOL    HW132850   9.036   5.125   1.968
10281SOL    HW232851   9.174 -16.963  23.986
10282SOL     OW32852   2.662   3.118   1.462
10282SOL    HW132853   2.640 -18.893  12.438
10282SOL    HW232854  13.618   3.078   1.485
10283SOL     OW32855   6.358   4.400   0.105
10283SOL    HW132856   6.277  26.503   0.060
10283SOL    HW232857   6.424   4.459  11.108
10284SOL     OW32858   9.399   5.800   1.629
10284SOL    HW132859  20.461  -5.294   1.554
10284SOL    HW232860   9.338   5.746  23.759
10285SOL     OW32861   6.388   6.185   1.302
10285SOL    HW132862   6.364   6.093  23.397
10285SOL    HW232863   6.459   6.180 -31.880
10286SOL     OW32864   2.585   3.408   6.077
10286SOL    HW132865   2.639   3.421   6.154
10286SOL    HW232866  -8.413  14.376   6.030
10287SOL     OW32867   0.808   1.735   4.326
10287SOL    HW132868   0.779   1.792  37.374
10287SOL    HW232869 -10.159   1.782  15.407
10288SOL     OW32870   6.342   6.656   1.767
10288SOL    HW132871  28.401   6.630   1.677
10288SOL    HW232872  17.297  28.739   1.810
10289SOL     OW32873   9.477   2.806   0.577
10289SOL    HW132874  -1.512   2.870   0.528
10289SOL    HW232875  20.555  -8.232   0.665
10290SOL     OW32876   9.252   6.242  12.048
10290SOL    HW132877   9.244   6.299   0.932
10290SOL    HW232878   9.161   6.218   1.030
10291SOL     OW32879   4.465   3.557   6.236
10291SOL    HW132880   4.553  14.589  17.240
10291SOL    HW232881   4.443   3.650   6.227
10292SOL     OW32882   6.696  10.613   8.297
10292SOL    HW132883   6.614 -11.422  30.354
10292SOL    HW232884   6.730  10.662   8.372
10293SOL     OW32885   5.467   4.007   9.987
10293SOL    HW132886   5.413  37.160  -1.123
10293SOL    HW232887 -16.651  26.121 -12.012
10294SOL     OW32888   3.497   6.106   5.560
10294SOL    HW132889   3.424   6.145   5.512
10294SOL    HW232890 -18.575  17.057   5.524
10295SOL     OW32891   6.439   7.242   8.706
10295SOL    HW132892   6.382   7.188   8.652
10295SOL    HW232893   6.422   7.332  19.716
10296SOL     OW32894   8.966   7.255   5.188
10296SOL    HW132895   8.899   7.204  -5.898
10296SOL    HW232896  -2.121   7.331   5.222
10297SOL     OW32897   8.050   6.712   6.973
10297SOL    HW132898   8.020  17.765  40.002
10297SOL    HW232899  19.068   6.621   6.993
10298SOL     OW32900   1.912   4.527   9.773
10298SOL    HW132901   1.931 -28.651   9.700
10298SOL    HW232902   1.830  -6.469   9.748
10299SOL     OW32903   1.857   4.185   2.762
10299SOL    HW132904   1.916   4.258 -19.298
10299SOL    HW232905   1.909   4.107   2.780
10300SOL     OW32906   8.585   5.868  10.646
10300SOL    HW132907   8.506   5.897  10.601
10300SOL    HW232908   8.592   5.927  10.721
10301SOL     OW32909   4.330   7.799   7.027
10301SOL    HW132910   4.393   7.781   7.096
10301SOL    HW232911   4.282   7.875  -3.982
10302SOL     OW32912   6.247   4.802   3.999
10302SOL    HW132913   6.297   4.798  -6.959
10302SOL    HW232914   6.214  -6.147   3.996
10303SOL     OW32915   8.782   5.231   5.444
10303SOL    HW132916   8.692   5.242   5.413
10303SOL    HW232917   8.835   5.231   5.364
10304SOL     OW32918  10.736   2.318   9.589
10304SOL    HW132919  10.672   2.312   9.518
10304SOL    HW232920  -0.219  35.445   9.545
10305SOL     OW32921   0.902   6.952   0.869
10305SOL    HW132922  11.987  -4.051   0.793
10305SOL    HW232923   0.915   6.858   0.862
10306SOL     OW32924   6.930   5.338   8.599
10306SOL    HW132925  -4.064   5.422  -2.448
10306SOL    HW232926   6.884  16.368   8.516
10307SOL     OW32927  10.267   7.966   3.063
10307SOL    HW132928 -11.826   8.053   3.025
10307SOL    HW232929  10.204  19.001   3.135
10308SOL     OW32930   9.239  10.630   5.138
10308SOL    HW132931  20.332  10.625   5.218
10308SOL    HW232932   9.299  10.605   5.068
10309SOL     OW32933  11.653   1.064   3.409
10309SOL    HW132934  11.595   1.028   3.475
10309SOL    HW232935   0.625   1.156   3.435
10310SOL     OW32936   9.008   7.069   9.737
10310SOL    HW132937   8.921   7.074   9.776
10310SOL    HW232938  31.105  18.197   9.707
10311SOL     OW32939   6.063   7.123   1.391
10311SOL    HW132940   6.145  -3.964  12.417
10311SOL    HW232941 -27.074  -3.875  12.347
10312SOL     OW32942  -1.071   1.421   2.869
10312SOL    HW132943   9.890   1.431   2.816
10312SOL    HW232944   9.944   1.457   2.955
10313SOL     OW32945   1.618   3.306   1.266
10313SOL    HW132946   1.635  25.378  -9.867
10313SOL    HW232947   1.687   3.365  -9.742
10314SOL     OW32948   4.014   4.058   1.173
10314SOL    HW132949  15.141  -7.001   1.205
10314SOL    HW232950   4.026   4.074   1.079
10315SOL     OW32951   7.812   4.476   3.423
10315SOL    HW132952   7.897   4.433  14.467
10315SOL    HW232953   7.749   4.409  -7.589
10316SOL     OW32954   7.999   8.941   1.080
10316SOL    HW132955 -14.006  31.002 -10.017
10316SOL    HW232956   8.024   9.022   1.125
10317SOL     OW32957   6.758  10.208   6.882
10317SOL    HW132958   6.734  10.254   6.963
10317SOL    HW232959   6.764 -11.801   6.817
10318SOL     OW32960   8.001   0.405   0.347
10318SOL    HW132961   8.077  22.487   0.289
10318SOL    HW232962   7.926  11.453   0.288
10319SOL     OW32963   9.984   3.939   3.853
10319SOL    HW132964   9.986   3.843  -7.191
10319SOL    HW232965  10.015   3.968   3.767
10320SOL     OW32966   0.001   0.474  10.748
10320SOL    HW132967   0.093  22.577  -0.302
10320SOL    HW232968  -0.041  11.542  10.667
10321SOL     OW32969   3.083  11.650  10.117
10321SOL    HW132970  14.032  11.682  10.122
10321SOL    HW232971   3.075   0.517  21.142
10322SOL     OW32972   6.729   2.880   5.168
10322SOL    HW132973   6.659  24.895   5.154
10322SOL    HW232974  -4.248   2.834  38.344
10323SOL     OW32975   2.391   6.499   9.921
10323SOL    HW132976   2.425  -4.554   9.832
10323SOL    HW232977   2.310   6.549  -1.131
10324SOL     OW32978  10.312   4.148   3.451
10324SOL    HW132979  -0.813   4.115  14.516
10324SOL    HW232980  10.294   4.227  -7.640
10325SOL     OW32981   7.422   8.049  -0.246
10325SOL    HW132982   7.389   8.107  32.805
10325SOL    HW232983  18.416   8.076  21.913
10326SOL     OW32984   9.128   0.069   5.060
10326SOL    HW132985   9.094   0.147   5.103
10326SOL    HW232986   9.212  22.175 -17.055
10327SOL     OW32987   8.804   5.486   9.029
10327SOL    HW132988   8.820   5.426  -2.084
10327SOL    HW232989   8.754   5.434   9.092
10328SOL     OW32990   7.532   2.271   6.393
10328SOL    HW132991  18.664   2.292  17.419
10328SOL    HW232992   7.495 -30.852   6.305
10329SOL     OW32993   7.753   3.955   6.498
10329SOL    HW132994   7.695   3.882   6.520
10329SOL    HW232995   7.752   3.958  17.442
10330SOL     OW32996   9.262   9.005   8.257
10330SOL    HW132997   9.264   9.055   8.338
10330SOL    HW232998   9.169   9.001   8.233
10331SOL     OW32999   4.872   9.024   8.788
10331SOL    HW133000   4.885   9.023   8.693
10331SOL    HW233001   4.779   9.041   8.800
10332SOL     OW33002   6.989  10.804   3.072
10332SOL    HW133003  17.944  10.843   3.094
10332SOL    HW233004   7.026  10.863   3.006
10333SOL     OW33005   0.257   5.727   1.397
10333SOL    HW133006   0.222  -5.401   1.387
10333SOL    HW233007   0.352   5.716   1.383
10334SOL     OW33008   5.136   0.665   7.050
10334SOL    HW133009  27.296   0.648   7.099
10334SOL    HW233010  16.191   0.749  29.087
10335SOL     OW33011   7.788  10.327   7.377
10335SOL    HW133012   7.728  10.260 -25.709
10335SOL    HW233013  -3.307  10.404  29.443
10336SOL     OW33014   5.690   4.952   8.905
10336SOL    HW133015   5.749 -28.168   8.829
10336SOL    HW233016   5.728   4.888   8.966
10337SOL     OW33017   0.165   7.289   0.173
10337SOL    HW133018   0.140   7.382   0.170
10337SOL    HW233019   0.083 -14.837   0.180
10338SOL     OW33020   4.458   0.513  -0.366
10338SOL    HW133021   4.546   0.510  10.711
10338SOL    HW233022   4.420   0.428  -0.344
10339SOL     OW33023   9.756   8.609   1.003
10339SOL    HW133024   9.792   8.685   1.049
10339SOL    HW233025 -12.259   8.590   0.935
10340SOL     OW33026   3.404   0.422   7.959
10340SOL    HW133027   3.315   0.434   7.927
10340SOL    HW233028  14.498   0.468   7.895
10341SOL     OW33029   8.215   2.059   3.547
10341SOL    HW133030  30.288   2.037   3.639
10341SOL    HW233031  19.249  13.015  14.541
10342SOL     OW33032   8.082  10.177   6.905
10342SOL    HW133033   8.072 -11.918   6.998
10342SOL    HW233034  19.038  10.214   6.877
10343SOL     OW33035   9.245   0.748   2.603
10343SOL    HW133036   9.193  22.830  13.563
10343SOL    HW233037  20.220   0.750  35.793
10344SOL     OW33038   2.652   5.652   5.084
10344SOL    HW133039  13.598  16.694   5.064
10344SOL    HW233040   2.693  38.742  27.081
10345SOL     OW33041   4.969   9.473   5.085
10345SOL    HW133042   4.958  -1.646  16.073
10345SOL    HW233043  -6.140 -23.651   5.151
10346SOL     OW33044   8.844   8.427   6.234
10346SOL    HW133045  19.879   8.502   6.293
10346SOL    HW233046   8.872   8.354   6.290
10347SOL     OW33047   1.575   8.328   0.915
10347SOL    HW133048   1.540   8.247   0.954
10347SOL    HW233049   1.497   8.376   0.888
10348SOL     OW33050   6.250   8.031  10.770
10348SOL    HW133051 -15.907   8.020 -11.254
10348SOL    HW233052  17.257   8.072  10.690
10349SOL     OW33053   7.283   9.049   8.371
10349SOL    HW133054   7.276  20.171 -13.660
10349SOL    HW233055 -25.741  20.073   8.365
10350SOL     OW33056   9.510   4.601   2.128
10350SOL    HW133057   9.588  15.644  13.113
10350SOL    HW233058   9.445   4.653 -19.998
10351SOL     OW33059   8.835   3.726  10.360
10351SOL    HW133060   8.758   3.744  10.306
10351SOL    HW233061   8.799   3.698  21.484
10352SOL     OW33062   1.303   6.785   4.051
10352SOL    HW133063   1.261   6.704   4.079
10352SOL    HW233064   1.234   6.833   4.004
10353SOL     OW33065   2.870   4.705   3.274
10353SOL    HW133066   2.874  15.828   3.322
10353SOL    HW233067  13.850   4.651  -7.714
10354SOL     OW33068   1.972   1.635   5.955
10354SOL    HW133069   1.895   1.582   5.972
10354SOL    HW233070  -9.065   1.699  -5.014
10355SOL     OW33071   8.361   0.963   8.727
10355SOL    HW133072   8.288   1.016 -13.321
10355SOL    HW233073  -2.601  12.055   8.745
10356SOL     OW33074   6.235   0.469   8.351
10356SOL    HW133075   6.230  11.440  30.497
10356SOL    HW233076  28.229  22.545  -2.732
10357SOL     OW33077   9.846   0.222   7.629
10357SOL    HW133078   9.844   0.157   7.698
10357SOL    HW233079   9.757   0.257   7.626
10358SOL     OW33080   1.550   8.411   6.439
10358SOL    HW133081  12.633   8.493   6.459
10358SOL    HW233082  45.758 -13.706   6.367
10359SOL     OW33083   8.566   1.771   3.836
10359SOL    HW133084  -2.518   1.848   3.801
10359SOL    HW233085   8.503   1.734   3.898
10360SOL     OW33086   9.912   6.082   4.870
10360SOL    HW133087  10.008  -4.959   4.871
10360SOL    HW233088  -1.152   6.100   4.961
10361SOL     OW33089   0.777   2.851   7.061
10361SOL    HW133090  22.787   2.856   7.126
10361SOL    HW233091  11.828  24.836  -3.995
10362SOL     OW33092   6.626   7.842   0.608
10362SOL    HW133093   6.650   7.784   0.680
10362SOL    HW233094   6.642   7.930   0.642
10363SOL     OW33095  10.419  10.858  10.889
10363SOL    HW133096  10.429  10.858  10.984
10363SOL    HW233097  10.349  10.920  10.872
10364SOL     OW33098   0.613  10.965   8.769
10364SOL    HW133099   0.610  11.031  19.879
10364SOL    HW233100   0.521  10.945   8.751
10365SOL     OW33101   4.899   4.318   4.304
10365SOL    HW133102 -17.091   4.325   4.271
10365SOL    HW233103   4.866  15.276   4.267
10366SOL     OW33104   8.928  12.322  10.339
10366SOL    HW133105  19.977  12.331  10.433
10366SOL    HW233106   8.839 -31.806  10.320
10367SOL     OW33107   3.804   5.214   2.722
10367SOL    HW133108   3.761  -5.816 -19.272
10367SOL    HW233109   3.897   5.230   2.740
10368SOL     OW33110   6.082   6.042   9.764
10368SOL    HW133111   6.099   6.073   9.675
10368SOL    HW233112  -5.047   6.008   9.761
10369SOL     OW33113   7.321  10.502   6.531
10369SOL    HW133114   7.255  10.434   6.523
10369SOL    HW233115  18.444  10.455   6.530
10370SOL     OW33116   4.803   3.234  10.071
10370SOL    HW133117   4.830  -7.769  10.155
10370SOL    HW233118   4.788   3.142  10.088
10371SOL     OW33119   1.673   5.847   6.812
10371SOL    HW133120   1.708  -5.162   6.895
10371SOL    HW233121   1.700  -5.126   6.748
10372SOL     OW33122   1.409   0.796   9.171
10372SOL    HW133123   1.318   0.770   9.157
10372SOL    HW233124   1.422   0.870   9.112
10373SOL     OW33125   3.773   1.276   8.794
10373SOL    HW133126   3.724   1.349   8.833
10373SOL    HW233127   3.853   1.270   8.846
10374SOL     OW33128   9.239   1.112   3.887
10374SOL    HW133129   9.304  12.202  -7.104
10374SOL    HW233130   9.291   1.050   3.836
10375SOL     OW33131   4.768   3.597   3.023
10375SOL    HW133132 -17.257   3.549   3.086
10375SOL    HW233133 -17.371   3.531   2.987
10376SOL     OW33134   7.013   8.984   6.988
10376SOL    HW133135  29.131  19.965   6.923
10376SOL    HW233136   7.015   8.934   7.070
10377SOL     OW33137   6.073   3.091   2.132
10377SOL    HW133138   5.991   3.136  13.192
10377SOL    HW233139  -4.986   3.041  13.092
10378SOL     OW33140  10.032   0.254   6.417
10378SOL    HW133141  10.010  33.329  17.538
10378SOL    HW233142   9.950   0.295   6.390
10379SOL     OW33143   5.870   5.242   9.388
10379SOL    HW133144   5.790   5.285   9.358
10379SOL    HW233145   5.940  27.358 -12.745
10380SOL     OW33146   5.546   0.742   6.364
10380SOL    HW133147   5.590   0.805   6.422
10380SOL    HW233148   5.618   0.698  17.358
10381SOL     OW33149   7.747   3.075   2.567
10381SOL    HW133150   7.665   3.029   2.587
10381SOL    HW233151   7.815  14.047  -8.463
10382SOL     OW33152   2.832   2.988   1.839
10382SOL    HW133153  13.897 -19.129   1.754
10382SOL    HW233154   2.910  25.056   1.894
10383SOL     OW33155   5.300   2.737   2.275
10383SOL    HW133156  -5.708   2.812  24.304
10383SOL    HW233157   5.353   2.663   2.244
10384SOL     OW33158   7.245   5.590   8.356
10384SOL    HW133159   7.286  16.622  19.482
10384SOL    HW233160   7.188   5.667  19.403
10385SOL     OW33161  10.041   8.894   2.859
10385SOL    HW133162   9.949  -2.151   2.836
10385SOL    HW233163  10.085  -2.205   2.797
10386SOL     OW33164  10.819   5.086   8.781
10386SOL    HW133165  10.771   5.043   8.851
10386SOL    HW233166  10.808  -6.011   8.705
10387SOL     OW33167   5.316   1.854   1.188
10387SOL    HW133168   5.330   1.777  -9.907
10387SOL    HW233169   5.226   1.881   1.170
10388SOL     OW33170   2.664   2.257   7.001
10388SOL    HW133171   2.584   2.257 -26.170
10388SOL    HW233172   2.689 -19.729   7.005
10389SOL     OW33173   4.034   3.989   4.161
10389SOL    HW133174   4.100   3.980   4.230
10389SOL    HW233175  15.009   4.048   4.199
10390SOL     OW33176  10.947   2.497   3.071
10390SOL    HW133177 -11.053  -8.532   3.124
10390SOL    HW233178 -22.141 -19.626   2.991
10391SOL     OW33179   5.436   5.619   1.618
10391SOL    HW133180   5.479   5.652  23.776
10391SOL    HW233181  -5.622   5.527   1.637
10392SOL     OW33182   0.413   1.479   3.580
10392SOL    HW133183   0.422   1.570   3.608
10392SOL    HW233184   0.363  -9.603   3.650
10393SOL     OW33185   2.176   9.181  10.300
10393SOL    HW133186   2.082   9.170  10.314
10393SOL    HW233187  13.222   9.245  10.230
10394SOL     OW33188   9.038  10.259   7.763
10394SOL    HW133189   9.132  21.295   7.781
10394SOL    HW233190   9.028  10.207   7.683
10395SOL     OW33191   8.738   8.029   7.295
10395SOL    HW133192   8.691   8.047   7.214
10395SOL    HW233193  -2.213   8.004  40.386
10396SOL     OW33194   9.122   7.840   8.196
10396SOL    HW133195   9.211  29.887   8.212
10396SOL    HW233196   9.134   7.933  19.216
10397SOL     OW33197   3.209   3.324   0.807
10397SOL    HW133198   3.212   3.280   0.892
10397SOL    HW233199   3.219  14.293   0.743
10398SOL     OW33200  10.500   3.627  10.343
10398SOL    HW133201  -0.485   3.694 -11.777
10398SOL    HW233202  10.423   3.675  10.374
10399SOL     OW33203   7.310   7.324   6.548
10399SOL    HW133204 -25.868   7.362   6.613
10399SOL    HW233205   7.392   7.311   6.595
10400SOL     OW33206   8.468   7.114   1.588
10400SOL    HW133207   8.396  18.138   1.649
10400SOL    HW233208  -2.600  40.306   1.534
10401SOL     OW33209   1.523   2.325  -0.187
10401SOL    HW133210   1.487   2.240  10.877
10401SOL    HW233211  -9.532 -19.747  21.798
10402SOL     OW33212  10.193   3.953  10.691
10402SOL    HW133213  10.254   3.884 -22.402
10402SOL    HW233214  10.142   3.970  10.770
10403SOL     OW33215   6.939   4.615  11.351
10403SOL    HW133216   7.002   4.553  11.388
10403SOL    HW233217   6.980   4.645   0.230
10404SOL     OW33218   7.936   8.500   7.100
10404SOL    HW133219   7.985  41.577  18.211
10404SOL    HW233220   7.881  19.469   7.065
10405SOL     OW33221   5.318   9.470   9.111
10405SOL    HW133222  -5.661   9.481   9.038
10405SOL    HW233223   5.310   9.376  20.163
10406SOL     OW33224   8.421   8.799   3.679
10406SOL    HW133225   8.483   8.777   3.611
10406SOL    HW233226   8.459   8.763   3.759
10407SOL     OW33227  10.302   7.253   0.100
10407SOL    HW133228  10.382   7.295  11.172
10407SOL    HW233229  10.264   7.210   0.177
10408SOL     OW33230  11.938   8.284   6.102
10408SOL    HW133231 -21.210  -2.845   6.117
10408SOL    HW233232  11.860   8.338  17.157
10409SOL     OW33233  -0.476   1.615   5.753
10409SOL    HW133234  21.582   1.551   5.684
10409SOL    HW233235  -0.381   1.607 -16.315
10410SOL     OW33236   4.868  10.119  10.086
10410SOL    HW133237   4.922  10.195  21.104
10410SOL    HW233238   4.809  10.111  10.011
10411SOL     OW33239   5.060   8.312   5.960
10411SOL    HW133240   5.029   8.362  -5.155
10411SOL    HW233241  16.026   8.255   5.982
10412SOL     OW33242   9.403   3.504   7.850
10412SOL    HW133243  20.473   3.540   7.933
10412SOL    HW233244  20.497  14.466   7.836
10413SOL     OW33245   9.636   1.961   6.650
10413SOL    HW133246   9.596   2.001   6.572
10413SOL    HW233247   9.708   2.020   6.672
10414SOL     OW33248   1.267   5.602   6.530
10414SOL    HW133249   1.210   5.574 -15.478
10414SOL    HW233250   1.353   5.611   6.570
10415SOL     OW33251   1.538   5.381   4.140
10415SOL    HW133252   1.573   5.415  15.263
10415SOL    HW233253  12.576  27.366  26.231
10416SOL     OW33254   6.306   9.398   6.204
10416SOL    HW133255   6.355  31.460  17.163
10416SOL    HW233256   6.358   9.464 -15.829
10417SOL     OW33257   7.025   0.927   6.986
10417SOL    HW133258   7.093   0.982  29.104
10417SOL    HW233259   7.021  23.034   6.894
10418SOL     OW33260   8.606   5.981   5.791
10418SOL    HW133261 -24.468   6.066 -16.282
10418SOL    HW233262   8.623   5.951   5.702
10419SOL     OW33263   9.491   5.355   1.876
10419SOL    HW133264   9.526   5.444  34.989
10419SOL    HW233265   9.477   5.340  13.009
10420SOL     OW33266   9.655   0.454   0.827
10420SOL    HW133267  -1.464   0.411   0.795
10420SOL    HW233268  20.696   0.539  22.862
10421SOL     OW33269   4.308   2.598   3.679
10421SOL    HW133270 -17.726  24.683   3.594
10421SOL    HW233271   4.218 -19.504   3.657
10422SOL     OW33272   1.816  10.304   3.358
10422SOL    HW133273   1.885  10.303   3.424
10422SOL    HW233274   1.748  10.361   3.395
10423SOL     OW33275   5.133  10.918   4.885
10423SOL    HW133276   5.099 -11.250   4.872
10423SOL    HW233277  16.122  10.952   4.959
10424SOL     OW33278   1.918   8.176   6.137
10424SOL    HW133279   1.857   8.118   6.092
10424SOL    HW233280   1.958  41.239   6.204
10425SOL     OW33281   6.256   2.870   8.990
10425SOL    HW133282   6.218 -19.237  -2.132
10425SOL    HW233283   6.227   2.961  -2.039
10426SOL     OW33284   0.177   4.154   2.886
10426SOL    HW133285  11.276   4.174   2.958
10426SOL    HW233286   0.188   4.060  13.910
10427SOL     OW33287   5.054   3.533   7.332
10427SOL    HW133288   5.091   3.621  18.361
10427SOL    HW233289   5.008   3.536 -14.663
10428SOL     OW33290   5.668   0.487   9.237
10428SOL    HW133291   5.639   0.397   9.250
10428SOL    HW233292   5.721   0.506 -23.804
10429SOL     OW33293   4.659   2.695   1.523
10429SOL    HW133294   4.728   2.630   1.539
10429SOL    HW233295   4.620   2.668   1.440
10430SOL     OW33296   0.010   6.467   9.853
10430SOL    HW133297  22.017  17.501  20.830
10430SOL    HW233298   0.050   6.380   9.850
10431SOL     OW33299   9.125   1.530   8.506
10431SOL    HW133300  20.209  12.619   8.438
10431SOL    HW233301   9.147   1.439   8.488
10432SOL     OW33302   1.313   5.487   9.029
10432SOL    HW133303   1.278   5.435   9.101
10432SOL    HW233304   1.323  -5.615 -24.161
10433SOL     OW33305   8.555   9.479   5.550
10433SOL    HW133306   8.501  20.494   5.625
10433SOL    HW233307   8.622   9.535  16.627
10434SOL     OW33308   2.414   2.099   4.041
10434SOL    HW133309   2.363   2.030  26.163
10434SOL    HW233310   2.368 -30.939 -29.056
10435SOL     OW33311   3.236  11.010   7.412
10435SOL    HW133312   3.165  10.976   7.357
10435SOL    HW233313   3.254  11.098   7.377
10436SOL     OW33314   0.359   4.349   7.747
10436SOL    HW133315   0.319   4.307   7.823
10436SOL    HW233316   0.357   4.442   7.767
10437SOL     OW33317   3.148   9.789   2.265
10437SOL    HW133318   3.131   9.881   2.286
10437SOL    HW233319   3.144   9.743   2.349
10438SOL     OW33320   1.094   3.223  10.027
10438SOL    HW133321   1.057   3.264  10.105
10438SOL    HW233322   1.018   3.203   9.972
10439SOL     OW33323   5.187   9.800   1.236
10439SOL    HW133324   5.146   9.752   1.308
10439SOL    HW233325   5.164   9.892   1.252
10440SOL     OW33326   2.828   7.223   9.224
10440SOL    HW133327   2.769   7.299   9.223
10440SOL    HW233328 -19.266   7.180  -1.900
10441SOL     OW33329   3.974   1.207   7.589
10441SOL    HW133330 -18.027   1.259  18.650
10441SOL    HW233331   3.963   1.220   7.495
10442SOL     OW33332   6.927   6.468   6.267
10442SOL    HW133333   6.880   6.467   6.184
10442SOL    HW233334   6.858   6.473  17.373
10443SOL     OW33335   5.892   9.098   3.608
10443SOL    HW133336   5.983  -1.917   3.627
10443SOL    HW233337   5.899   9.011   3.568
10444SOL     OW33338   6.540   0.752   9.087
10444SOL    HW133339  17.620   0.666  -1.947
10444SOL    HW233340   6.517   0.762   8.995
10445SOL     OW33341  10.165   1.406   2.223
10445SOL    HW133342  10.154  12.357   2.189
10445SOL    HW233343  10.110   1.460  -8.873
10446SOL     OW33344  -1.429  10.534  11.034
10446SOL    HW133345  31.616 -22.588  11.094
10446SOL    HW233346  -1.380  10.453  11.049
10447SOL     OW33347   6.580   3.281   5.281
10447SOL    HW133348   6.485  -7.765   5.292
10447SOL    HW233349   6.606  14.386   5.346
10448SOL     OW33350   4.292  10.096   5.881
10448SOL    HW133351   4.282  10.001  -5.157
10448SOL    HW233352   4.247  10.124   5.802
10449SOL     OW33353   9.239   0.753   8.230
10449SOL    HW133354   9.155   0.781  19.306
10449SOL    HW233355  31.377   0.750   8.305
10450SOL     OW33356   3.121   3.517  -0.480
10450SOL    HW133357   3.075   3.461  21.662
10450SOL    HW233358   3.052   3.550  -0.537
10451SOL     OW33359   8.701   6.915  -0.505
10451SOL    HW133360  19.775   6.950  -0.587
10451SOL    HW233361   8.632   6.855  21.547
10452SOL     OW33362   1.841   6.199   6.209
10452SOL    HW133363   1.809 -15.960   6.251
10452SOL    HW233364   1.794   6.270 -15.827
10453SOL     OW33365   2.626   4.130   0.491
10453SOL    HW133366   2.665   4.153  11.615
10453SOL    HW233367   2.587 -17.868   0.459
10454SOL     OW33368   9.775   3.429  11.958
10454SOL    HW133369   9.840   3.480 -21.113
10454SOL    HW233370   9.785  14.495   0.827
10455SOL     OW33371   1.146   5.564  10.244
10455SOL    HW133372   1.056  -5.488  -0.767
10455SOL    HW233373  -9.867   5.479  10.208
10456SOL     OW33374   9.146  -1.169   3.814
10456SOL    HW133375  -1.970  20.853   3.810
10456SOL    HW233376   9.212  -1.220  -7.179
10457SOL     OW33377  10.757   6.013   5.492
10457SOL    HW133378  21.755   5.937   5.452
10457SOL    HW233379  -0.195  -5.024  -5.586
10458SOL     OW33380   7.735   5.708  12.036
10458SOL    HW133381  -3.284  27.715  -9.982
10458SOL    HW233382   7.820  16.773   0.960
10459SOL     OW33383  10.068   2.710   9.025
10459SOL    HW133384  10.132   2.781   9.036
10459SOL    HW233385  10.121  13.671  20.055
10460SOL     OW33386   2.335   8.718   4.295
10460SOL    HW133387   2.321   8.754   4.207
10460SOL    HW233388   2.404   8.772 -28.787
10461SOL     OW33389   7.782   2.087   2.448
10461SOL    HW133390   7.810  35.169  13.404
10461SOL    HW233391  -3.177  -8.943   2.498
10462SOL     OW33392   3.187   2.965   2.686
10462SOL    HW133393   3.229   2.879   2.689
10462SOL    HW233394   3.255   3.026  -8.328
10463SOL     OW33395   3.610  10.587   2.378
10463SOL    HW133396   3.556  10.583   2.299
10463SOL    HW233397   3.688  10.536   2.357
10464SOL     OW33398   6.085   3.125   8.815
10464SOL    HW133399  -4.861   3.146  30.899
10464SOL    HW233400  -4.964  14.119  19.771
10465SOL     OW33401   0.332   0.741   7.281
10465SOL    HW133402   0.312   0.739  -3.665
10465SOL    HW233403   0.247  11.781   7.238
10466SOL     OW33404   7.224   1.612   7.356
10466SOL    HW133405  -3.902   1.633  -3.718
10466SOL    HW233406   7.224   1.649   7.444
10467SOL     OW33407   0.084   4.953   6.149
10467SOL    HW133408   0.124  16.033   6.072
10467SOL    HW233409  11.165  15.906   6.155
10468SOL     OW33410   5.493   3.726   7.659
10468SOL    HW133411   5.523   3.725   7.750
10468SOL    HW233412 -16.546   3.650  -3.420
10469SOL     OW33413  10.143   2.129   4.569
10469SOL    HW133414 -11.950  -8.849   4.497
10469SOL    HW233415  21.122   2.058  15.592
10470SOL     OW33416   2.940   4.620   4.070
10470SOL    HW133417   2.869   4.669   4.111
10470SOL    HW233418   2.939   4.535   4.114
10471SOL     OW33419   0.948   2.685  -0.565
10471SOL    HW133420   0.962   2.720  -0.477
10471SOL    HW233421  34.085   2.592  10.483
10472SOL     OW33422   1.506   6.110   9.251
10472SOL    HW133423   1.417   6.083   9.274
10472SOL    HW233424   1.503   6.206   9.252
10473SOL     OW33425   6.538   4.113   7.949
10473SOL    HW133426   6.616   4.168   7.955
10473SOL    HW233427   6.558  26.128  18.920
10474SOL     OW33428  10.163  10.482   7.189
10474SOL    HW133429  21.168  10.398 -36.999
10474SOL    HW233430  10.105  10.547   7.150
10475SOL     OW33431   3.317   5.631   5.022
10475SOL    HW133432   3.266   5.710 -17.037
10475SOL    HW233433   3.333   5.590   5.107
10476SOL     OW33434   5.532   5.255  10.500
10476SOL    HW133435   5.539   5.163  10.475
10476SOL    HW233436  -5.579   5.256  10.564
10477SOL     OW33437   9.989   5.845   0.880
10477SOL    HW133438  -1.127   5.868   0.827
10477SOL    HW233439 -12.123 -16.237   0.970
10478SOL     OW33440   7.667   3.504   3.034
10478SOL    HW133441  18.703   3.414 -19.077
10478SOL    HW233442   7.634   3.499   3.124
10479SOL     OW33443   1.540   5.503   6.348
10479SOL    HW133444   1.475   5.519   6.280
10479SOL    HW233445   1.510   5.423   6.391
10480SOL     OW33446   6.289   6.121  12.641
10480SOL    HW133447   6.276   6.027 -20.493
10480SOL    HW233448   6.380   6.129  -9.409
10481SOL     OW33449   8.826  10.083   6.129
10481SOL    HW133450   8.896  -0.971   6.065
10481SOL    HW233451   8.852 -23.087   6.205
10482SOL     OW33452   6.282   3.568   7.804
10482SOL    HW133453   6.208   3.626   7.783
10482SOL    HW233454   6.338 -29.498   7.861
10483SOL     OW33455   5.779   0.723   0.904
10483SOL    HW133456  16.847  22.877   0.851
10483SOL    HW233457   5.794   0.648 -10.192
10484SOL     OW33458   4.147   6.858   2.897
10484SOL    HW133459  15.161  -4.094   2.924
10484SOL    HW233460   4.195  -4.217   2.972
10485SOL     OW33461   7.949   3.091   8.059
10485SOL    HW133462  41.067   3.059 -14.111
10485SOL    HW233463   8.041   3.109   8.077
10486SOL     OW33464   5.956   4.506  11.622
10486SOL    HW133465  -5.159   4.487  11.678
10486SOL    HW233466  17.071  15.516 -43.525
10487SOL     OW33467   2.005   0.090   6.407
10487SOL    HW133468   1.916   0.056   6.397
10487SOL    HW233469   2.007   0.126  -4.544
10488SOL     OW33470   6.285   2.537   8.199
10488SOL    HW133471  -4.690  24.639   8.132
10488SOL    HW233472   6.264  13.660   8.241
10489SOL     OW33473   8.589  10.491   2.612
10489SOL    HW133474  19.641  -0.484   2.682
10489SOL    HW233475   8.613  21.578  13.571
10490SOL     OW33476   7.309   5.139   4.007
10490SOL    HW133477  -3.721   5.186   3.925
10490SOL    HW233478   7.216   5.113   4.009
10491SOL     OW33479   4.832   2.359  -0.491
10491SOL    HW133480   4.831   2.365  10.453
10491SOL    HW233481  -6.267   2.428  -0.462
10492SOL     OW33482   1.767   0.571   5.909
10492SOL    HW133483   1.800   0.634   5.973
10492SOL    HW233484   1.694   0.527  -5.086
10493SOL     OW33485   4.935   0.424   9.429
10493SOL    HW133486  -6.176   0.475   9.390
10493SOL    HW233487 -17.142  22.422   9.378
10494SOL     OW33488   8.645   4.185   4.962
10494SOL    HW133489  -2.412   4.169 -17.024
10494SOL    HW233490   8.571   4.238   4.933
10495SOL     OW33491   1.215   9.746   5.436
10495SOL    HW133492   1.216  -1.240  -5.524
10495SOL    HW233493   1.301  -1.335   5.434
10496SOL     OW33494   8.015   5.514  10.634
10496SOL    HW133495   8.058 -16.595  10.554
10496SOL    HW233496   7.988   5.433  -0.362
10497SOL     OW33497   6.902   6.832   0.726
10497SOL    HW133498  17.889   6.814   0.804
10497SOL    HW233499   6.870   6.917 -10.345
10498SOL     OW33500   4.207  -1.654   0.485
10498SOL    HW133501   4.276   9.404  11.460
10498SOL    HW233502 -39.904  20.407   0.566
10499SOL     OW33503   8.864   8.921   3.136
10499SOL    HW133504  -2.087   8.884   3.131
10499SOL    HW233505   8.843   8.946   3.046
10500SOL     OW33506   7.611   8.802   5.348
10500SOL    HW133507  18.725  19.902   5.347
10500SOL    HW233508   7.651   8.715   5.347
10501SOL     OW33509   5.030   3.861   3.096
10501SOL    HW133510   5.094   3.808   3.143
10501SOL    HW233511   5.072  -7.093   3.086
10502SOL     OW33512   1.291  10.072  10.170
10502SOL    HW133513 -20.810  10.025  10.090
10502SOL    HW233514   1.286  10.006 -11.840
10503SOL     OW33515   8.194   7.570   6.715
10503SOL    HW133516   8.179   7.659   6.748
10503SOL    HW233517  -2.922  40.639   6.743
10504SOL     OW33518  11.070   7.090   7.502
10504SOL    HW133519  11.065   7.011   7.449
10504SOL    HW233520   0.026   7.162   7.438
10505SOL     OW33521   1.250   7.497   8.390
10505SOL    HW133522   1.268   7.416   8.438
10505SOL    HW233523  -9.789  18.605   8.457
10506SOL     OW33524   4.773   8.947   2.011
10506SOL    HW133525   4.820   9.008   1.954
10506SOL    HW233526   4.768   8.992   2.095
10507SOL     OW33527   6.901   4.663   6.058
10507SOL    HW133528  17.977  26.679 -16.084
10507SOL    HW233529  39.931   4.630  17.116
10508SOL     OW33530   8.462   3.898   4.784
10508SOL    HW133531  19.535 -40.188   4.732
10508SOL    HW233532  -2.670 -18.187 -17.318
10509SOL     OW33533   7.368   6.428   3.857
10509SOL    HW133534   7.438   6.364   3.871
10509SOL    HW233535   7.319   6.395   3.782
10510SOL     OW33536   7.453   2.489   0.844
10510SOL    HW133537   7.517   2.542   0.797
10510SOL    HW233538 -25.742 -19.533   0.856
10511SOL     OW33539   4.136   4.203   8.550
10511SOL    HW133540  -6.847  15.168   8.569
10511SOL    HW233541   4.070   4.201   8.619
10512SOL     OW33542   0.793   1.340   6.261
10512SOL    HW133543  22.784   1.303   6.265
10512SOL    HW233544   0.801  12.432  28.419
10513SOL     OW33545   5.022   7.139  12.384
10513SOL    HW133546   5.107   7.112 -20.700
10513SOL    HW233547   4.988   7.200 -20.670
10514SOL     OW33548   9.449   9.336   1.808
10514SOL    HW133549   9.479   9.313  -9.144
10514SOL    HW233550   9.395   9.262  -9.258
10515SOL     OW33551  10.177   2.273   4.026
10515SOL    HW133552  21.180   2.356   3.996
10515SOL    HW233553  10.102  13.264   4.060
10516SOL     OW33554   6.035  10.732   8.177
10516SOL    HW133555  -5.011  10.649   8.225
10516SOL    HW233556   6.084  10.709   8.097
10517SOL     OW33557   8.820   2.475   7.323
10517SOL    HW133558   8.750   2.504   7.264
10517SOL    HW233559 -24.287   2.382   7.303
10518SOL     OW33560   8.543   5.760   6.230
10518SOL    HW133561 -13.617   5.712 -26.904
10518SOL    HW233562   8.582   5.719   6.307
10519SOL     OW33563   8.884   9.532   8.359
10519SOL    HW133564  19.972  -1.427   8.376
10519SOL    HW233565   8.798   9.562 -13.751
10520SOL     OW33566   7.692   5.735  10.791
10520SOL    HW133567  -3.262   5.751  10.753
10520SOL    HW233568   7.630  -5.291  10.719
10521SOL     OW33569   0.298   9.392   9.341
10521SOL    HW133570   0.231 -12.623   9.363
10521SOL    HW233571   0.367   9.406   9.405
10522SOL     OW33572   4.590   8.165   7.406
10522SOL    HW133573   4.619   8.215 -25.789
10522SOL    HW233574   4.520  19.258   7.444
10523SOL     OW33575   1.373   9.390   8.167
10523SOL    HW133576  -9.619   9.407   8.086
10523SOL    HW233577  -9.694  31.555  -2.842
10524SOL     OW33578   1.923   2.072   3.327
10524SOL    HW133579   1.926   2.165   3.349
10524SOL    HW233580  -9.085   2.028   3.406
10525SOL     OW33581   3.759   2.999   9.299
10525SOL    HW133582  14.864  14.102   9.270
10525SOL    HW233583   3.678   3.028   9.258
10526SOL     OW33584   2.476   8.568   6.305
10526SOL    HW133585   2.477  19.515  17.318
10526SOL    HW233586  13.470   8.568   6.389
10527SOL     OW33587   6.499   9.434   9.384
10527SOL    HW133588   6.447  20.507 -12.622
10527SOL    HW233589  -4.482 -12.710  -1.617
10528SOL     OW33590   6.544   8.585   0.277
10528SOL    HW133591   6.591   8.540 -10.692
10528SOL    HW233592   6.532   8.519  22.289
10529SOL     OW33593   5.847   6.932   7.859
10529SOL    HW133594   5.761  40.010   7.869
10529SOL    HW233595   5.836   7.020   7.894
10530SOL     OW33596   0.378   4.383   7.143
10530SOL    HW133597   0.353 -39.844   7.081
10530SOL    HW233598   0.404  15.376  -3.818
10531SOL     OW33599   8.713   9.782   8.550
10531SOL    HW133600   8.805   9.779  -2.517
10531SOL    HW233601   8.664   9.756   8.472
10532SOL     OW33602  14.562   4.089   3.856
10532SOL    HW133603 -29.525  26.220   3.892
10532SOL    HW233604 -18.527   4.065   3.768
10533SOL     OW33605   9.675   3.319   7.532
10533SOL    HW133606   9.674   3.366  -3.591
10533SOL    HW233607  -1.277   3.280   7.536
10534SOL     OW33608   7.924   0.424   5.241
10534SOL    HW133609   7.879  11.407  -5.736
10534SOL    HW233610  30.054 -10.677   5.187
10535SOL     OW33611   3.297   4.828   0.935
10535SOL    HW133612   3.239   4.839  23.089
10535SOL    HW233613   3.265 -39.268   0.870
10536SOL     OW33614   2.835   6.706   6.078
10536SOL    HW133615   2.872   6.690  -4.874
10536SOL    HW233616   2.869   6.792   6.054
10537SOL     OW33617   7.165   8.641  12.899
10537SOL    HW133618   7.075   8.613  12.915
10537SOL    HW233619   7.176  -2.321 -31.204
10538SOL     OW33620   3.205   9.063   6.466
10538SOL    HW133621   3.273   9.062   6.534
10538SOL    HW233622   3.125   9.038 -15.567
10539SOL     OW33623   9.416   6.647   0.290
10539SOL    HW133624   9.372   6.631   0.206
10539SOL    HW233625  -1.596   6.738   0.285
10540SOL     OW33626  -1.041  10.293   0.688
10540SOL    HW133627  -1.086 -11.792 -10.267
10540SOL    HW233628  20.973 -11.815  22.703
10541SOL     OW33629   3.262   3.956   7.027
10541SOL    HW133630   3.169   3.970   7.012
10541SOL    HW233631  14.332  15.075   7.070
10542SOL     OW33632   6.842   8.306   2.361
10542SOL    HW133633   6.844   8.399   2.336
10542SOL    HW233634   6.816   8.261   2.281
10543SOL     OW33635   2.604   8.455  10.829
10543SOL    HW133636   2.524  30.558  10.782
10543SOL    HW233637   2.604  19.399  10.830
10544SOL     OW33638  11.610  10.329   9.789
10544SOL    HW133639  11.666  -0.729   9.864
10544SOL    HW233640   0.512  10.399   9.818
10545SOL     OW33641   5.793   3.662   7.448
10545SOL    HW133642   5.785 -18.443   7.539
10545SOL    HW233643   5.887   3.660  18.470
10546SOL     OW33644   0.437   0.537   0.074
10546SOL    HW133645   0.435   0.526  -0.021
10546SOL    HW233646   0.467   0.452  11.147
10547SOL     OW33647   8.167   8.572   3.075
10547SOL    HW133648 -25.047   8.565 -19.014
10547SOL    HW233649   8.201  19.533  -8.007
10548SOL     OW33650   2.636  10.322  10.353
10548SOL    HW133651 -19.390  10.394  10.319
10548SOL    HW233652   2.695  21.312  10.409
10549SOL     OW33653   6.039   4.128   9.501
10549SOL    HW133654  -4.913  15.207   9.494
10549SOL    HW233655   6.054   4.034   9.491
10550SOL     OW33656  -0.927  11.889   1.147
10550SOL    HW133657  21.149  11.835  23.148
10550SOL    HW233658  -1.000 -10.220   1.201
10551SOL     OW33659   4.429   4.186  10.820
10551SOL    HW133660   4.507  -6.856  -0.164
10551SOL    HW233661   4.437   4.110  -0.276
10552SOL     OW33662   2.707   9.036   0.074
10552SOL    HW133663  13.829  31.158   0.095
10552SOL    HW233664   2.656   9.103   0.030
10553SOL     OW33665   1.461   4.393   1.632
10553SOL    HW133666   1.532   4.330   1.620
10553SOL    HW233667   1.500  15.518 -20.463
10554SOL     OW33668   3.571   4.510   1.725
10554SOL    HW133669   3.478  26.567   1.717
10554SOL    HW233670   3.617   4.433   1.692
10555SOL     OW33671   1.375   2.900   3.372
10555SOL    HW133672   1.330   2.931 -18.786
10555SOL    HW233673   1.310  13.887 -18.661
10556SOL     OW33674   6.439   6.030   4.356
10556SOL    HW133675  17.566  39.135  15.433
10556SOL    HW233676  17.457  28.200   4.379
10557SOL     OW33677   6.602   3.497   3.418
10557SOL    HW133678   6.652   3.484  -7.541
10557SOL    HW233679   6.613   3.590   3.398
10558SOL     OW33680   9.354   6.903   3.583
10558SOL    HW133681   9.317   6.931  14.539
10558SOL    HW233682   9.295   6.940   3.649
10559SOL     OW33683   3.864   6.683   8.410
10559SOL    HW133684   3.820   6.704  19.532
10559SOL    HW233685  25.934   6.589  19.441
10560SOL     OW33686   7.654  12.316   2.061
10560SOL    HW133687   7.745   1.289  -9.007
10560SOL    HW233688   7.629  -9.847   2.021
10561SOL     OW33689   6.252   7.069   9.233
10561SOL    HW133690   6.308   7.123  53.336
10561SOL    HW233691   6.222  -3.911 -12.777
10562SOL     OW33692   7.553   6.674   4.445
10562SOL    HW133693 -14.572   6.606   4.495
10562SOL    HW233694   7.571   6.634   4.360
10563SOL     OW33695   8.911   6.750   6.652
10563SOL    HW133696 -13.186   6.701   6.572
10563SOL    HW233697   8.830   6.797  17.710
10564SOL     OW33698   9.521   6.427   1.463
10564SOL    HW133699   9.456   6.473   1.411
10564SOL    HW233700   9.470   6.375   1.525
10565SOL     OW33701   2.400   7.192   5.462
10565SOL    HW133702   2.449   7.152 -16.689
10565SOL    HW233703   2.453  -3.771   5.487
10566SOL     OW33704   0.419   2.278   9.821
10566SOL    HW133705   0.491  13.283  -1.166
10566SOL    HW233706   0.450   2.363   9.789
10567SOL     OW33707   4.287   6.761   0.990
10567SOL    HW133708   4.206  50.970  12.025
10567SOL    HW233709   4.309  28.823   0.898
10568SOL     OW33710   7.063   3.474   0.022
10568SOL    HW133711  18.018   3.519   0.020
10568SOL    HW233712  40.223   3.497  -0.061
10569SOL     OW33713  11.462   7.112   7.804
10569SOL    HW133714 -10.523   7.123   7.818
10569SOL    HW233715  11.432   7.059  -3.162
10570SOL     OW33716   7.415   2.394   1.815
10570SOL    HW133717   7.503 -30.704 -20.294
10570SOL    HW233718  18.411   2.479   1.823
10571SOL     OW33719   9.820  10.091   3.453
10571SOL    HW133720   9.741  -0.960   3.505
10571SOL    HW233721  20.930  10.059  14.549
10572SOL     OW33722   3.744  10.520  10.012
10572SOL    HW133723   3.706  -0.535   9.926
10572SOL    HW233724   3.744  10.615  10.023
10573SOL     OW33725   3.323   2.879   5.651
10573SOL    HW133726  14.453   2.892  16.662
10573SOL    HW233727   3.326   2.891   5.746
10574SOL     OW33728   1.010   6.469   0.319
10574SOL    HW133729  11.965  -4.606   0.346
10574SOL    HW233730  12.113 -26.717  22.422
10575SOL     OW33731   8.070   5.740   4.819
10575SOL    HW133732   8.102   5.830  15.867
10575SOL    HW233733  -3.065  16.789   4.819
10576SOL     OW33734   2.650   7.079   4.313
10576SOL    HW133735   2.616   7.039  -6.807
10576SOL    HW233736  57.902   7.011   4.353
10577SOL     OW33737   4.061   4.910   1.881
10577SOL    HW133738  -6.967 -28.201   1.976
10577SOL    HW233739  15.069   4.821   1.867
10578SOL     OW33740   0.497   6.678   6.150
10578SOL    HW133741   0.452   6.618   6.090
10578SOL    HW233742   0.438   6.754   6.156
10579SOL     OW33743   2.331   7.344   1.380
10579SOL    HW133744  -8.666   7.272   1.333
10579SOL    HW233745   2.403   7.391   1.422
10580SOL     OW33746   5.785   0.896   7.508
10580SOL    HW133747  16.803   0.985  29.615
10580SOL    HW233748  16.913   0.902  18.513
10581SOL     OW33749   5.252   2.357  10.194
10581SOL    HW133750   5.223   2.270  21.204
10581SOL    HW233751   5.302   2.392  10.120
10582SOL     OW33752   0.932   1.916   8.399
10582SOL    HW133753   0.960   1.826   8.389
10582SOL    HW233754 -10.185   1.912   8.455
10583SOL     OW33755  -1.790   8.108   6.577
10583SOL    HW133756  20.374   8.086  17.656
10583SOL    HW233757   9.219   8.025   6.539
10584SOL     OW33758   8.871   7.868   7.958
10584SOL    HW133759   8.792   7.850   7.907
10584SOL    HW233760  19.905   7.808   8.033
10585SOL     OW33761   7.791   9.910   8.139
10585SOL    HW133762   7.854   9.847   8.173
10585SOL    HW233763  29.848  20.917  19.092
10586SOL     OW33764   3.909   5.500   9.294
10586SOL    HW133765   3.862   5.549   9.361
10586SOL    HW233766   3.879   5.410  31.383
10587SOL     OW33767   4.758   2.390  10.256
10587SOL    HW133768   4.769   2.484  10.266
10587SOL    HW233769 -17.250  24.442  10.199
10588SOL     OW33770   6.730   7.863   8.125
10588SOL    HW133771   6.686  -3.261  19.165
10588SOL    HW233772   6.684  18.953  41.177
10589SOL     OW33773   9.409   1.011   3.679
10589SOL    HW133774   9.398  34.218   3.645
10589SOL    HW233775   9.432   0.958   3.603
10590SOL     OW33776   3.753   9.615   1.531
10590SOL    HW133777   3.842   9.628   1.565
10590SOL    HW233778  -7.277   9.546   1.466
10591SOL     OW33779   8.960   1.544  10.057
10591SOL    HW133780   8.889   1.547  10.121
10591SOL    HW233781 -13.103   1.636  10.036
10592SOL     OW33782  -1.441   3.238   0.984
10592SOL    HW133783  20.714   3.296 -10.053
10592SOL    HW233784   9.577   3.231   0.891
10593SOL     OW33785   1.190   5.527   8.772
10593SOL    HW133786  -9.842   5.551   8.865
10593SOL    HW233787   1.097  16.551   8.759
10594SOL     OW33788   4.427   5.735   6.276
10594SOL    HW133789   4.354  16.831   6.251
10594SOL    HW233790   4.416   5.720   6.370
10595SOL     OW33791   4.015   1.906   9.453
10595SOL    HW133792  14.992  24.051   9.483
10595SOL    HW233793   4.000   1.831   9.512
10596SOL     OW33794   4.628   9.432   7.111
10596SOL    HW133795  -6.503   9.407   7.124
10596SOL    HW233796  26.755 -12.730   7.115
10597SOL     OW33797   9.144   3.669   1.360
10597SOL    HW133798   9.215   3.733   1.362
10597SOL    HW233799 -12.990   3.696   1.286
10598SOL     OW33800   7.685   0.063   6.130
10598SOL    HW133801   7.780  11.097   6.125
10598SOL    HW233802  18.694   0.028   6.046
10599SOL     OW33803   0.892   7.660  10.195
10599SOL    HW133804   0.829   7.691  10.259
10599SOL    HW233805   0.876   7.566  10.189
10600SOL     OW33806   1.391   1.846   4.971
10600SOL    HW133807   1.452   1.884 -17.045
10600SOL    HW233808   1.448  -9.232   4.904
10601SOL     OW33809  13.066   7.915   7.529
10601SOL    HW133810  13.086   8.001   7.492
10601SOL    HW233811 -31.008   7.880   7.555
10602SOL     OW33812  10.772   4.019   4.819
10602SOL    HW133813  10.749   4.071   4.896
10602SOL    HW233814  -0.187   4.059   4.787
10603SOL     OW33815  10.271   1.969   2.789
10603SOL    HW133816  21.368   2.044   2.770
10603SOL    HW233817  10.293   1.905   2.721
10604SOL     OW33818   7.102   8.894   9.960
10604SOL    HW133819  18.224 -13.178 -12.168
10604SOL    HW233820   7.117 -13.259  10.020
10605SOL     OW33821   5.051   1.829   2.871
10605SOL    HW133822  27.130   1.923   2.853
10605SOL    HW233823  27.222   1.808   2.887
10606SOL     OW33824   8.809   0.402   8.270
10606SOL    HW133825   8.843   0.384   8.182
10606SOL    HW233826   8.817  22.399   8.317
10607SOL     OW33827   7.379   5.747   8.706
10607SOL    HW133828   7.456  -5.268   8.758
10607SOL    HW233829   7.395   5.786  19.660
10608SOL     OW33830   5.185   2.533   7.770
10608SOL    HW133831   5.227  13.571   7.855
10608SOL    HW233832   5.254   2.559   7.709
10609SOL     OW33833   7.117   5.547   6.992
10609SOL    HW133834   7.090   5.624  -3.998
10609SOL    HW233835   7.205   5.567   6.962
10610SOL     OW33836  10.967   6.605   9.379
10610SOL    HW133837  10.899  -4.369   9.394
10610SOL    HW233838  11.049   6.649   9.401
10611SOL     OW33839   9.568   3.804  10.172
10611SOL    HW133840  20.615  -7.294  10.097
10611SOL    HW233841   9.504   3.763  10.229
10612SOL     OW33842   5.493   7.046   1.577
10612SOL    HW133843   5.561   6.979  -9.473
10612SOL    HW233844   5.461   7.033  45.824
10613SOL     OW33845   9.174   9.875   5.236
10613SOL    HW133846 -23.888   9.937   5.282
10613SOL    HW233847   9.230   9.834  -5.869
10614SOL     OW33848   3.539   4.343   4.229
10614SOL    HW133849   3.617   4.336  15.324
10614SOL    HW233850   3.473   4.385   4.284
10615SOL     OW33851   2.274   2.251   0.747
10615SOL    HW133852   2.208   2.298   0.695
10615SOL    HW233853   2.224   2.213   0.819
10616SOL     OW33854   9.121   0.423  10.176
10616SOL    HW133855   9.200   0.401  10.126
10616SOL    HW233856  -1.915   0.518  10.185
10617SOL     OW33857   1.875   4.587   3.003
10617SOL    HW133858  12.849  15.626   3.073
10617SOL    HW233859   1.912  15.715  14.045
10618SOL     OW33860   5.436   5.213   0.859
10618SOL    HW133861   5.434  -5.810   0.953
10618SOL    HW233862  16.478   5.118  11.891
10619SOL     OW33863   5.252   2.587   5.391
10619SOL    HW133864   5.326   2.648   5.391
10619SOL    HW233865   5.242   2.562   5.483
10620SOL     OW33866   7.956   9.464   5.142
10620SOL    HW133867   7.939   9.390   5.200
10620SOL    HW233868  -3.026  20.561   5.193
10621SOL     OW33869   1.782   7.035   0.987
10621SOL    HW133870  -9.207   7.032   0.906
10621SOL    HW233871   1.707 -14.987   0.967
10622SOL     OW33872   1.619   2.964  10.836
10622SOL    HW133873   1.547   2.974  -0.142
10622SOL    HW233874  12.616   2.951  10.751
10623SOL     OW33875   7.328   0.415   7.080
10623SOL    HW133876   7.364   0.461   7.005
10623SOL    HW233877   7.338   0.477   7.153
10624SOL     OW33878  10.991   2.401   4.844
10624SOL    HW133879  10.973 -19.619 -17.308
10624SOL    HW233880  11.086  13.428  -6.197
10625SOL     OW33881   0.057   0.108  10.237
10625SOL    HW133882   0.121  11.184  10.175
10625SOL    HW233883   0.086  11.058  21.290
10626SOL     OW33884   9.667   3.619   8.982
10626SOL    HW133885   9.630   3.678   8.915
10626SOL    HW233886  20.680   3.532   8.954
10627SOL     OW33887   7.846   0.976   6.418
10627SOL    HW133888   7.896   0.945 -15.586
10627SOL    HW233889   7.809   0.896   6.379
10628SOL     OW33890   8.012   5.671   4.542
10628SOL    HW133891   7.936  -5.347   4.596
10628SOL    HW233892   8.086   5.677   4.602
10629SOL     OW33893   4.624   4.964   9.094
10629SOL    HW133894   4.564   4.889   9.098
10629SOL    HW233895   4.616   5.006   9.180
10630SOL     OW33896   2.549   5.915   0.765
10630SOL    HW133897  -8.423   5.919   0.698
10630SOL    HW233898  -8.456   5.854   0.830
10631SOL     OW33899   4.604   9.788   8.298
10631SOL    HW133900  15.563  -1.298   8.274
10631SOL    HW233901   4.629   9.836  19.259
10632SOL     OW33902   9.329  10.219  -0.777
10632SOL    HW133903 -12.664  10.228  21.263
10632SOL    HW233904   9.314  10.124  -0.774
10633SOL     OW33905   3.892   6.858   9.104
10633SOL    HW133906   3.957  17.872   9.039
10633SOL    HW233907   3.928  17.869  20.227
10634SOL     OW33908   7.567   1.717   2.890
10634SOL    HW133909   7.649   1.734   2.937
10634SOL    HW233910   7.545  -9.238 -19.229
10635SOL     OW33911   6.556   4.605   1.579
10635SOL    HW133912   6.557 -17.389   1.623
10635SOL    HW233913   6.465   4.594   1.551
10636SOL     OW33914   1.895   3.555   4.605
10636SOL    HW133915  23.927   3.575  37.805
10636SOL    HW233916   1.911 -29.658   4.610
10637SOL     OW33917   5.274   6.625  10.477
10637SOL    HW133918   5.249   6.641  10.386
10637SOL    HW233919 -27.825   6.531  10.480
10638SOL     OW33920   2.785  -0.932   2.615
10638SOL    HW133921  13.757  10.154   2.566
10638SOL    HW233922   2.745  32.103   2.639
10639SOL     OW33923   9.301   3.300   9.925
10639SOL    HW133924   9.251   3.276  -1.192
10639SOL    HW233925   9.320   3.216  21.008
10640SOL     OW33926   8.672   2.145   8.591
10640SOL    HW133927   8.744   2.169   8.532
10640SOL    HW233928   8.594   2.144  19.574
10641SOL     OW33929   2.587  11.300   2.911
10641SOL    HW133930   2.605  11.311  -8.222
10641SOL    HW233931   2.607   0.168  -8.111
10642SOL     OW33932   0.236   2.834   3.787
10642SOL    HW133933   0.200   2.891  -7.185
10642SOL    HW233934   0.176   2.759 -18.296
10643SOL     OW33935   3.595   1.085   8.737
10643SOL    HW133936  -7.380   1.152   8.757
10643SOL    HW233937   3.541   1.079   8.816
10644SOL     OW33938  11.583   5.326   6.557
10644SOL    HW133939  11.664   5.294  28.676
10644SOL    HW233940 -10.537  16.420 -15.454
10645SOL     OW33941   8.780   4.033   3.494
10645SOL    HW133942   8.822   4.096   3.435
10645SOL    HW233943 -13.365   3.989   3.440
10646SOL     OW33944   9.551   0.868   1.582
10646SOL    HW133945   9.622   0.844  23.721
10646SOL    HW233946  20.528   0.915   1.637
10647SOL     OW33947   2.002   9.800   1.790
10647SOL    HW133948   1.911   9.783 -42.392
10647SOL    HW233949   2.032   9.719  34.950
10648SOL     OW33950   2.958   6.381  10.738
10648SOL    HW133951   2.924   6.378  10.649
10648SOL    HW233952   2.986  17.331  10.756
10649SOL     OW33953   8.861   6.843   2.076
10649SOL    HW133954   8.860  -4.153   1.991
10649SOL    HW233955  19.839   6.770   2.066
10650SOL     OW33956   0.130   1.931   2.855
10650SOL    HW133957   0.160   1.879   2.781
10650SOL    HW233958   0.207   1.979   2.885
10651SOL     OW33959   0.360   7.906  12.548
10651SOL    HW133960   0.431   7.961   1.543
10651SOL    HW233961   0.404  18.864  -9.555
10652SOL     OW33962   0.284   1.063   8.316
10652SOL    HW133963   0.358  12.160   8.297
10652SOL    HW233964   0.318   0.974  19.342
10653SOL     OW33965   4.123  10.096   1.307
10653SOL    HW133966  15.178 -11.888  12.345
10653SOL    HW233967  15.240  -0.981  -9.774
10654SOL     OW33968  -0.212   0.757  10.855
10654SOL    HW133969  21.857  11.732  -0.114
10654SOL    HW233970  -0.120   0.754  10.832
10655SOL     OW33971   5.954  10.731  10.044
10655SOL    HW133972   5.897  10.769   9.977
10655SOL    HW233973 -16.135  10.636  10.033
10656SOL     OW33974   3.020   4.234   0.502
10656SOL    HW133975   2.933   4.274   0.503
10656SOL    HW233976   3.071   4.287  11.603
10657SOL     OW33977   5.113   9.440   2.034
10657SOL    HW133978   5.021   9.462   2.049
10657SOL    HW233979   5.162  -1.531   2.079
10658SOL     OW33980   8.941   2.792   7.547
10658SOL    HW133981  20.035   2.854  18.635
10658SOL    HW233982   8.909   2.732  -3.425
10659SOL     OW33983   1.414   1.479  10.280
10659SOL    HW133984   1.485  12.509  10.344
10659SOL    HW233985   1.453  -9.585  21.236
10660SOL     OW33986   5.182   7.822   8.610
10660SOL    HW133987  -5.790   7.879  -2.393
10660SOL    HW233988   5.177   7.748   8.671
10661SOL     OW33989   6.012   3.435   1.991
10661SOL    HW133990   6.040   3.431   2.082
10661SOL    HW233991  17.021   3.347   1.971
10662SOL     OW33992   9.875   7.604   6.111
10662SOL    HW133993 -12.299  -3.435   6.106
10662SOL    HW233994   9.896   7.541   6.179
10663SOL     OW33995   2.816   9.313   2.316
10663SOL    HW133996  -8.174   9.395   2.325
10663SOL    HW233997   2.850   9.275   2.234
10664SOL     OW33998   3.796   0.814   0.482
10664SOL    HW133999   3.804   0.838   0.390
10664SOL    HW234000  14.815   0.720   0.481
10665SOL     OW34001   6.539   2.828   8.993
10665SOL    HW134002   6.446  -8.214   9.015
10665SOL    HW234003  17.591 -30.205   8.951
10666SOL     OW34004   2.403  14.085   1.996
10666SOL    HW134005  -8.675 -41.173   2.060
10666SOL    HW234006   2.329  -7.941   1.966
10667SOL     OW34007   5.045   6.421   0.018
10667SOL    HW134008   5.083  -4.665   0.092
10667SOL    HW234009   5.089   6.385  -0.058
10668SOL     OW34010   8.521   6.561  10.181
10668SOL    HW134011   8.494   6.644  -0.818
10668SOL    HW234012   8.461  17.589  10.108
10669SOL     OW34013   3.636   7.307  11.411
10669SOL    HW134014  14.621  18.424  11.426
10669SOL    HW234015 -18.354   7.342   0.360
10670SOL     OW34016   1.719   3.341   5.359
10670SOL    HW134017  23.861  25.406   5.288
10670SOL    HW234018  23.714   3.352  16.354
10671SOL     OW34019   3.440   0.751   6.245
10671SOL    HW134020 -29.651   0.668   6.284
10671SOL    HW234021   3.346   0.754  -4.779
10672SOL     OW34022   9.433   6.256   2.798
10672SOL    HW134023  -1.544  17.315   2.729
10672SOL    HW234024   9.476   6.190   2.853
10673SOL     OW34025   2.938   4.625   1.665
10673SOL    HW134026 -30.152   4.536   1.687
10673SOL    HW234027   2.929   4.669   1.749
10674SOL     OW34028   2.971   5.139   2.867
10674SOL    HW134029   2.934  -5.922  13.992
10674SOL    HW234030   3.060 -27.949   2.886
10675SOL     OW34031   8.783   8.763   9.701
10675SOL    HW134032   8.736 -13.251   9.649
10675SOL    HW234033  -2.274  -2.252  20.831
10676SOL     OW34034   3.921  10.580   3.338
10676SOL    HW134035   3.962  10.663  14.403
10676SOL    HW234036   3.855  -0.475   3.406
10677SOL     OW34037   8.229   4.063   0.868
10677SOL    HW134038   8.161  26.152   0.801
10677SOL    HW234039 -24.937   4.063   0.951
10678SOL     OW34040   6.890   8.527   1.270
10678SOL    HW134041  39.980  -2.602   1.251
10678SOL    HW234042   6.981   8.531   1.240
10679SOL     OW34043   1.371   5.832   7.608
10679SOL    HW134044   1.399 -16.321  -3.377
10679SOL    HW234045   1.343  16.831  -3.514
10680SOL     OW34046   5.790   9.807   5.786
10680SOL    HW134047   5.863   9.838   5.839
10680SOL    HW234048   5.818   9.817  16.735
10681SOL     OW34049   2.634   6.700   3.121
10681SOL    HW134050   2.591   6.782  14.187
10681SOL    HW234051   2.719  17.743  -7.875
10682SOL     OW34052   1.800   2.571  12.170
10682SOL    HW134053   1.885   2.611   1.148
10682SOL    HW234054  23.874  -8.475 -21.044
10683SOL     OW34055   7.065   5.818   0.287
10683SOL    HW134056   7.134   5.778  11.274
10683SOL    HW234057   6.984   5.779   0.254
10684SOL     OW34058   9.345   4.091   6.080
10684SOL    HW134059  -1.748   4.096  17.199
10684SOL    HW234060 -12.682   4.012  -4.947
10685SOL     OW34061   1.839   6.568   3.843
10685SOL    HW134062   1.773  17.628   3.776
10685SOL    HW234063   1.836   6.642   3.904
10686SOL     OW34064   6.364   7.850   7.736
10686SOL    HW134065  -4.755  -3.140   7.756
10686SOL    HW234066  39.451  -3.275 -14.373
10687SOL     OW34067   7.813   6.778   5.692
10687SOL    HW134068  -3.291  -4.260   5.622
10687SOL    HW234069   7.765   6.810   5.769
10688SOL     OW34070   5.876   5.701   2.900
10688SOL    HW134071  -5.073   5.692  13.969
10688SOL    HW234072   5.855   5.615 -30.257
10689SOL     OW34073   9.703   2.935   7.915
10689SOL    HW134074  31.693   2.971  -3.120
10689SOL    HW234075  -1.346  -8.187   7.867
10690SOL     OW34076   4.267   9.767   6.769
10690SOL    HW134077  -6.796  20.859   6.692
10690SOL    HW234078   4.185   9.757   6.817
10691SOL     OW34079   3.465   0.265  11.154
10691SOL    HW134080   3.460   0.257  11.250
10691SOL    HW234081  -7.603  22.259 -21.997
10692SOL     OW34082   2.543   4.433   1.241
10692SOL    HW134083  24.560 -28.711   1.309
10692SOL    HW234084   2.554   4.527   1.251
10693SOL     OW34085   2.196   5.743   2.136
10693SOL    HW134086  -8.827   5.662 -19.991
10693SOL    HW234087  13.145  16.804  -8.923
10694SOL     OW34088  10.863  -0.571   3.412
10694SOL    HW134089  10.957  10.450   3.416
10694SOL    HW234090  -0.204  -0.568   3.503
10695SOL     OW34091   9.154  10.775  10.600
10695SOL    HW134092   9.138  10.769  10.506
10695SOL    HW234093 -23.897  10.710  -0.423
10696SOL     OW34094   3.678   6.999  10.454
10696SOL    HW134095   3.591   6.963  10.474
10696SOL    HW234096   3.737   6.952  10.513
10697SOL     OW34097   6.471  10.580   8.653
10697SOL    HW134098   6.460  10.622   8.567
10697SOL    HW234099   6.565  10.584 -13.409
10698SOL     OW34100   7.418   7.519   6.914
10698SOL    HW134101   7.373   7.486 -15.087
10698SOL    HW234102  -3.602   7.610  -4.105
10699SOL     OW34103   5.035   7.925  10.541
10699SOL    HW134104   5.087  18.956  10.460
10699SOL    HW234105   4.999   7.838  10.556
10700SOL     OW34106   5.982   3.259   9.897
10700SOL    HW134107   5.912 -18.855   9.843
10700SOL    HW234108  17.089   3.191   9.897
10701SOL     OW34109   6.777   2.439  11.025
10701SOL    HW134110  17.877  -8.658  10.979
10701SOL    HW234111  39.826  24.461  11.057
10702SOL     OW34112   4.820   0.965   4.174
10702SOL    HW134113   4.770  12.071   4.221
10702SOL    HW234114   4.769   0.884   4.185
10703SOL     OW34115   2.845   0.740   9.336
10703SOL    HW134116   2.900   0.742   9.258
10703SOL    HW234117  -8.171 -10.220   9.384
10704SOL     OW34118   0.557   1.992  -1.174
10704SOL    HW134119  11.618   2.032  20.820
10704SOL    HW234120   0.638  35.120  -1.123
10705SOL     OW34121   2.677   4.167   6.404
10705SOL    HW134122   2.729  15.270   6.355
10705SOL    HW234123   2.733   4.090   6.412
10706SOL     OW34124   6.967  10.153   9.857
10706SOL    HW134125   6.958 -22.947  -1.089
10706SOL    HW234126  17.968 -34.092   9.845
10707SOL     OW34127   5.354   9.438   4.660
10707SOL    HW134128   5.269   9.400  26.761
10707SOL    HW234129  38.512   9.460   4.744
10708SOL     OW34130   3.029   8.133  10.522
10708SOL    HW134131   3.113   8.104  10.487
10708SOL    HW234132   2.972   8.137  10.445
10709SOL     OW34133   7.793   7.873   3.918
10709SOL    HW134134   7.842   7.831  15.027
10709SOL    HW234135   7.765 -36.358  14.901
10710SOL     OW34136   5.798   9.181   0.637
10710SOL    HW134137  -5.212   9.178   0.728
10710SOL    HW234138   5.737  20.294   0.634
10711SOL     OW34139   2.293   3.831   6.399
10711SOL    HW134140   2.348   3.857   6.473
10711SOL    HW234141   2.287   3.910   6.345
10712SOL     OW34142  10.172   1.272   1.824
10712SOL    HW134143  10.081   1.251   1.846
10712SOL    HW234144  10.215   1.186  12.855
10713SOL     OW34145   2.608   7.260   7.972
10713SOL    HW134146  35.776   7.248   8.053
10713SOL    HW234147   2.518   7.277   8.000
10714SOL     OW34148  10.910  11.775   4.083
10714SOL    HW134149  10.984 -10.318 -18.056
10714SOL    HW234150  10.834  11.743   4.035
10715SOL     OW34151   4.197   3.883   9.390
10715SOL    HW134152   4.233 -18.193  31.381
10715SOL    HW234153 -17.874  15.012   9.423
10716SOL     OW34154   5.878   6.856   5.413
10716SOL    HW134155  -5.164   6.763  -5.605
10716SOL    HW234156  -5.176   6.858   5.318
10717SOL     OW34157   4.757   1.263   9.527
10717SOL    HW134158   4.700   1.269   9.450
10717SOL    HW234159  15.740   1.230  20.636
10718SOL     OW34160   0.220   9.778   9.696
10718SOL    HW134161   0.220 -12.384   9.648
10718SOL    HW234162   0.222   9.752 -12.291
10719SOL     OW34163   9.965   5.034   1.417
10719SOL    HW134164  10.000   5.089  -9.692
10719SOL    HW234165  10.006   5.068   1.497
10720SOL     OW34166   1.428   9.286   4.819
10720SOL    HW134167   1.436   9.381   4.833
10720SOL    HW234168   1.335   9.273   4.798
10721SOL     OW34169   4.161   3.270   3.218
10721SOL    HW134170 -17.843  -7.766   3.277
10721SOL    HW234171   4.087   3.247   3.274
10722SOL     OW34172   5.342   3.774   2.298
10722SOL    HW134173   5.255   3.756   2.263
10722SOL    HW234174   5.359  -7.337  13.399
10723SOL     OW34175   0.959  12.235   3.355
10723SOL    HW134176   0.896   1.266  14.380
10723SOL    HW234177   0.959   1.147   3.272
10724SOL     OW34178   7.208   9.501   7.566
10724SOL    HW134179  -3.798  -1.460   7.521
10724SOL    HW234180   7.271   9.485   7.636
10725SOL     OW34181   2.009  12.094   5.316
10725SOL    HW134182   2.053 -21.073 -27.734
10725SOL    HW234183  24.027 -10.048   5.278
10726SOL     OW34184  10.639   1.110   4.333
10726SOL    HW134185  10.707   1.177   4.323
10726SOL    HW234186 -11.398  23.109   4.302
10727SOL     OW34187   6.542  10.469   4.108
10727SOL    HW134188   6.526  10.390   4.056
10727SOL    HW234189  -4.568  10.469  15.213
10728SOL     OW34190   7.718   8.000  10.239
10728SOL    HW134191   7.791   7.988  10.299
10728SOL    HW234192   7.645  -3.088  10.279
10729SOL     OW34193   0.429   6.325   2.899
10729SOL    HW134194   0.456   6.269  24.905
10729SOL    HW234195   0.500  -4.723 -30.156
10730SOL     OW34196   8.867   7.946   5.749
10730SOL    HW134197   8.873  18.964   5.842
10730SOL    HW234198   8.793  18.934 -16.362
10731SOL     OW34199   4.525  11.839   3.045
10731SOL    HW134200  15.547  11.824  14.178
10731SOL    HW234201   4.457 -10.178 -30.100
10732SOL     OW34202   8.559   3.057   6.515
10732SOL    HW134203  19.542   3.041   6.440
10732SOL    HW234204   8.509   3.116  -4.468
10733SOL     OW34205   1.568   7.176   7.140
10733SOL    HW134206   1.556   7.131   7.057
10733SOL    HW234207   1.659   7.205   7.139
10734SOL     OW34208   5.931   8.742   8.316
10734SOL    HW134209   5.872   8.722   8.388
10734SOL    HW234210  -5.071  -2.212  -2.702
10735SOL     OW34211   4.247   9.046   7.225
10735SOL    HW134212  15.228   8.978   7.190
10735SOL    HW234213  26.298  20.097   7.315
10736SOL     OW34214   4.575   6.657   0.026
10736SOL    HW134215   4.503   6.605   0.062
10736SOL    HW234216   4.648   6.594   0.019
10737SOL     OW34217   1.095   8.500   1.561
10737SOL    HW134218   1.069   8.518   1.651
10737SOL    HW234219  23.269   8.488   1.566
10738SOL     OW34220   5.113   4.110   3.155
10738SOL    HW134221 -17.026   4.134   3.226
10738SOL    HW234222 -16.879   4.123   3.193
10739SOL     OW34223   7.717   8.947   8.009
10739SOL    HW134224   7.739   8.908  19.134
10739SOL    HW234225  18.841   8.978   7.975
10740SOL     OW34226   7.408   3.824   3.970
10740SOL    HW134227   7.467   3.898   3.986
10740SOL    HW234228   7.405   3.816   3.875
10741SOL     OW34229   6.014   9.633   9.066
10741SOL    HW134230  16.976   9.689   9.073
10741SOL    HW234231   6.009   9.597   8.977
10742SOL     OW34232   0.231   1.420   5.072
10742SOL    HW134233   0.180   1.348   5.035
10742SOL    HW234234   0.174  -9.543   5.066
10743SOL     OW34235   8.356   3.895   6.685
10743SOL    HW134236   8.361   3.977 -15.444
10743SOL    HW234237   8.338 -18.157   6.775
10744SOL     OW34238   4.478   7.712  10.913
10744SOL    HW134239   4.491  18.782  11.003
10744SOL    HW234240  -6.493   7.647  10.899
10745SOL     OW34241   6.548   3.530   5.503
10745SOL    HW134242  -4.583   3.545   5.477
10745SOL    HW234243   6.598   3.592   5.450
10746SOL     OW34244   8.927   5.321   8.855
10746SOL    HW134245  19.926   5.300   8.770
10746SOL    HW234246  20.056   5.290   8.847
10747SOL     OW34247   3.295   1.799   3.824
10747SOL    HW134248   3.363   1.768   3.884
10747SOL    HW234249  -7.813   1.732  -7.211
10748SOL     OW34250   1.806   2.537   5.676
10748SOL    HW134251   1.739   2.604  -5.354
10748SOL    HW234252   1.777   2.484   5.602
10749SOL     OW34253  12.468   6.961  10.165
10749SOL    HW134254  12.480   7.019  10.241
10749SOL    HW234255 -31.771   6.914  10.184
10750SOL     OW34256  11.777  10.091   8.107
10750SOL    HW134257 -21.329  21.214 -25.056
10750SOL    HW234258 -21.358  10.028   8.037
10751SOL     OW34259   3.001   1.399   7.780
10751SOL    HW134260  14.090   1.319   7.797
10751SOL    HW234261   2.987   1.398   7.685
10752SOL     OW34262   1.442   1.274   2.059
10752SOL    HW134263   1.452   1.225   1.977
10752SOL    HW234264   1.530 -20.804   2.096
10753SOL     OW34265   7.678   8.511   1.523
10753SOL    HW134266  29.736 -13.653   1.484
10753SOL    HW234267   7.613 -13.556   1.592
10754SOL     OW34268   3.797   6.903   0.962
10754SOL    HW134269   3.773   6.977   1.017
10754SOL    HW234270   3.777   6.932   0.873
10755SOL     OW34271  11.928   6.964   3.772
10755SOL    HW134272  11.835  18.009   3.750
10755SOL    HW234273 -10.111  18.078 -18.351
10756SOL     OW34274   0.750   4.918  12.332
10756SOL    HW134275   0.723   4.911   1.384
10756SOL    HW234276   0.836   4.959  -9.744
10757SOL     OW34277   0.163   4.291  10.261
10757SOL    HW134278   0.150   4.268  10.169
10757SOL    HW234279   0.110   4.227  10.309
10758SOL     OW34280   5.998   2.304   5.029
10758SOL    HW134281  17.056  -8.745   4.935
10758SOL    HW234282  28.140   2.245   5.071
10759SOL     OW34283   1.123   7.840   7.392
10759SOL    HW134284   1.212   7.851  -3.614
10759SOL    HW234285   1.075  29.881   7.466
10760SOL     OW34286   3.393   2.226   6.259
10760SOL    HW134287  14.418   2.320   6.258
10760SOL    HW234288  14.524   2.217   6.288
10761SOL     OW34289   3.802   2.785  11.259
10761SOL    HW134290   3.805   2.870  11.215
10761SOL    HW234291  25.948   2.791   0.288
10762SOL     OW34292   4.613   0.130   5.494
10762SOL    HW134293  15.721  11.211   5.546
10762SOL    HW234294   4.602   0.187  16.458
10763SOL     OW34295   7.531   1.788   4.660
10763SOL    HW134296   7.621  -9.223   4.644
10763SOL    HW234297   7.518  -9.325   4.600
10764SOL     OW34298   6.218  10.037   1.558
10764SOL    HW134299  17.291  -1.090   1.575
10764SOL    HW234300  28.330  21.100   1.472
10765SOL     OW34301   0.313   2.139   8.570
10765SOL    HW134302   0.221   2.163   8.575
10765SOL    HW234303  22.429 -19.881   8.504
10766SOL     OW34304   1.998   6.957   2.744
10766SOL    HW134305   2.007   6.909   2.826
10766SOL    HW234306  13.016  18.086   2.771
10767SOL     OW34307   8.530   1.855  10.708
10767SOL    HW134308   8.514   1.935  -0.381
10767SOL    HW234309   8.624   1.857  10.726
10768SOL     OW34310   2.195   3.352   5.359
10768SOL    HW134311   2.257   3.424   5.355
10768SOL    HW234312  13.172   3.377   5.427
10769SOL     OW34313  10.810   7.631  10.671
10769SOL    HW134314  10.795   7.633  10.765
10769SOL    HW234315  10.885 -14.508 -33.497
10770SOL     OW34316   8.546   8.115   9.240
10770SOL    HW134317   8.472   8.055  20.283
10770SOL    HW234318   8.525   8.183   9.303
10771SOL     OW34319   5.723   1.301   4.360
10771SOL    HW134320   5.740   1.290   4.454
10771SOL    HW234321   5.767  12.422 -28.781
10772SOL     OW34322   9.373   1.472  10.101
10772SOL    HW134323   9.312   1.534  10.060
10772SOL    HW234324   9.326  -9.597  10.179
10773SOL     OW34325   1.007   5.948   7.826
10773SOL    HW134326   1.024 -16.056   7.882
10773SOL    HW234327   0.915   5.957   7.800
10774SOL     OW34328   3.095   9.572   2.904
10774SOL    HW134329   3.055  20.653   2.980
10774SOL    HW234330   3.118  -1.396  -8.194
10775SOL     OW34331   4.342   0.670   9.513
10775SOL    HW134332  15.296   0.714   9.515
10775SOL    HW234333   4.320   0.577   9.504
10776SOL     OW34334   2.022   8.403  10.929
10776SOL    HW134335  13.014  30.483  10.846
10776SOL    HW234336  -9.066  19.503  -0.054
10777SOL     OW34337  10.546   1.428   7.281
10777SOL    HW134338  10.630   1.437  18.275
10777SOL    HW234339  10.566   1.451   7.371
10778SOL     OW34340   0.313   4.191   2.146
10778SOL    HW134341   0.266   4.210   2.065
10778SOL    HW234342   0.284   4.103   2.170
10779SOL     OW34343   2.185  -0.931   0.884
10779SOL    HW134344   2.262  10.076   0.837
10779SOL    HW234345  24.295  10.185   0.931
10780SOL     OW34346  10.709   8.933  10.187
10780SOL    HW134347  10.707 -13.124  -0.760
10780SOL    HW234348  10.775  -2.048  10.150
10781SOL     OW34349   7.080  11.375   2.199
10781SOL    HW134350  -3.961   0.257  13.183
10781SOL    HW234351   7.014   0.393   2.161
10782SOL     OW34352  10.105  11.376   1.347
10782SOL    HW134353  21.238   0.338  12.367
10782SOL    HW234354  10.101  11.367   1.442
10783SOL     OW34355   8.104   9.002   0.570
10783SOL    HW134356   8.197   8.981   0.559
10783SOL    HW234357 -25.046  31.102   0.482
10784SOL     OW34358   8.855   2.200   4.073
10784SOL    HW134359  30.924   2.295  -6.973
10784SOL    HW234360 -13.306   2.169   4.110
10785SOL     OW34361   2.293   6.762   3.300
10785SOL    HW134362  -8.706  -4.202  -7.782
10785SOL    HW234363 -19.765  17.728   3.243
10786SOL     OW34364   2.489   3.978  10.395
10786SOL    HW134365   2.549   3.905  10.410
10786SOL    HW234366  -8.560  15.059  10.481
10787SOL     OW34367   1.933   6.171   7.192
10787SOL    HW134368   1.856  39.274 -14.834
10787SOL    HW234369  24.085  17.175   7.243
10788SOL     OW34370   3.969   4.525   8.668
10788SOL    HW134371   3.890   4.528  19.654
10788SOL    HW234372   3.965   4.605   8.720
10789SOL     OW34373   5.916   6.859   9.587
10789SOL    HW134374   5.994   6.884   9.636
10789SOL    HW234375  -5.113   6.899  31.580
10790SOL     OW34376   8.543   0.973   9.468
10790SOL    HW134377   8.501   0.904  -1.520
10790SOL    HW234378   8.495  12.014  -1.654
10791SOL     OW34379   4.034   9.664   4.806
10791SOL    HW134380  15.141   9.697  -6.173
10791SOL    HW234381  -6.987   9.709  15.763
10792SOL     OW34382   5.963  10.462  10.235
10792SOL    HW134383   5.951  10.439  21.182
10792SOL    HW234384   5.897  -0.510  10.251
10793SOL     OW34385   1.980   1.896   9.067
10793SOL    HW134386  -9.040   1.871 -13.102
10793SOL    HW234387   2.017  13.023  -1.962
10794SOL     OW34388   3.672   0.022   6.021
10794SOL    HW134389   3.621   0.103  17.059
10794SOL    HW234390   3.732   0.033  28.174
10795SOL     OW34391   4.357   0.401  10.128
10795SOL    HW134392   4.427   0.336  10.119
10795SOL    HW234393   4.398   0.483  21.140
10796SOL     OW34394   2.302   0.036   9.210
10796SOL    HW134395   2.354   0.107   9.247
10796SOL    HW234396   2.360  11.033  -1.893
10797SOL     OW34397   8.644   6.933   1.864
10797SOL    HW134398   8.713   6.989   1.828
10797SOL    HW234399   8.635 -26.256   1.799
10798SOL     OW34400   1.744   3.455   7.609
10798SOL    HW134401   1.831   3.443   7.648
10798SOL    HW234402   1.754   3.428  -3.521
10799SOL     OW34403   6.181   3.800  10.273
10799SOL    HW134404   6.180   3.748  10.193
10799SOL    HW234405  28.340   3.852  10.267
10800SOL     OW34406   2.792   3.114   6.752
10800SOL    HW134407   2.862   3.180   6.747
10800SOL    HW234408   2.781   3.098   6.845
10801SOL     OW34409   6.800   4.588   2.749
10801SOL    HW134410   6.803  15.535   2.775
10801SOL    HW234411   6.778   4.635   2.829
10802SOL     OW34412   1.691   5.736   2.441
10802SOL    HW134413   1.629   5.727   2.513
10802SOL    HW234414  -9.401   5.770   2.368
10803SOL     OW34415   5.445   3.042  -1.228
10803SOL    HW134416  27.463   2.973  -1.203
10803SOL    HW234417  16.571  -8.033  20.873
10804SOL     OW34418   0.133   5.324   1.458
10804SOL    HW134419   0.146   5.244   1.408
10804SOL    HW234420  11.171   5.394  -9.646
10805SOL     OW34421   1.184   4.299   9.262
10805SOL    HW134422   1.250   4.267   9.200
10805SOL    HW234423  12.150  -6.801   9.252
10806SOL     OW34424   8.940   6.012   6.132
10806SOL    HW134425   9.010   6.007  -4.973
10806SOL    HW234426   8.861   5.987   6.084
10807SOL     OW34427   3.277   6.661   4.563
10807SOL    HW134428   3.301  17.625   4.509
10807SOL    HW234429  14.400  17.737 -28.526
10808SOL     OW34430   7.192  10.502   8.863
10808SOL    HW134431   7.144  10.438   8.915
10808SOL    HW234432  -3.861 -11.494  42.028
10809SOL     OW34433   6.113   8.843   0.940
10809SOL    HW134434 -27.044   8.930 -21.151
10809SOL    HW234435   6.190   8.843  22.962
10810SOL     OW34436   6.263   1.454   3.967
10810SOL    HW134437 -15.742   1.508  14.981
10810SOL    HW234438   6.302   1.380   4.013
10811SOL     OW34439  10.866   4.190   5.861
10811SOL    HW134440  10.831   4.231   5.940
10811SOL    HW234441  10.788   4.158   5.815
10812SOL     OW34442   2.438   5.265   3.619
10812SOL    HW134443  -8.589   5.230   3.707
10812SOL    HW234444   2.511   5.227 -18.511
10813SOL     OW34445   0.092   7.603   4.255
10813SOL    HW134446   0.154   7.676  15.285
10813SOL    HW234447   0.132  -3.492   4.323
10814SOL     OW34448   0.889   7.146   1.097
10814SOL    HW134449   0.918  -3.926   1.182
10814SOL    HW234450   0.924  -3.956   1.034
10815SOL     OW34451  -0.284   0.303   8.528
10815SOL    HW134452  10.729   0.217   8.496
10815SOL    HW234453  -0.288  11.335   8.623
10816SOL     OW34454   5.341   4.035   2.337
10816SOL    HW134455   5.246   4.036  -8.693
10816SOL    HW234456  27.439  -7.087   2.293
10817SOL     OW34457   5.319   1.343   4.068
10817SOL    HW134458   5.383   1.346   4.139
10817SOL    HW234459 -60.926  -9.790  -6.993
10818SOL     OW34460   0.833   3.467   4.339
10818SOL    HW134461   0.748   3.461   4.296
10818SOL    HW234462   0.869   3.378   4.335
10819SOL     OW34463   2.944  10.216   9.864
10819SOL    HW134464  13.961  10.128   9.894
10819SOL    HW234465   2.873  10.240   9.804
10820SOL     OW34466   8.990   4.011  10.701
10820SOL    HW134467  42.037 -18.130  10.691
10820SOL    HW234468   8.948  37.215  10.700
10821SOL     OW34469   9.416  10.586   5.328
10821SOL    HW134470   9.497  -0.494   5.357
10821SOL    HW234471  -1.595  10.666  16.322
10822SOL     OW34472   8.046   7.876   5.320
10822SOL    HW134473 -14.009   7.883  -5.812
10822SOL    HW234474   8.130   7.878  -5.673
10823SOL     OW34475   8.539   8.876   1.598
10823SOL    HW134476   8.555   8.970   1.598
10823SOL    HW234477  41.683   8.847   1.686
10824SOL     OW34478   5.621   3.369   2.905
10824SOL    HW134479  16.746   3.362   2.947
10824SOL    HW234480   5.599   3.463   2.909
10825SOL     OW34481   1.303   3.222   3.999
10825SOL    HW134482  12.411   3.268  -6.993
10825SOL    HW234483  -9.754   3.277   3.922
10826SOL     OW34484   8.276   6.795  10.727
10826SOL    HW134485   8.320   6.879  10.712
10826SOL    HW234486  19.259   6.784  10.650
10827SOL     OW34487   8.697   3.235   8.756
10827SOL    HW134488   8.760   3.222   8.827
10827SOL    HW234489   8.681 -18.750   8.754
10828SOL     OW34490   7.098  11.361   3.556
10828SOL    HW134491   7.064  11.353   3.467
10828SOL    HW234492   7.038 -10.658  14.639
10829SOL     OW34493   0.360   7.963   6.930
10829SOL    HW134494  11.324   7.931   6.978
10829SOL    HW234495   0.400   8.027   6.990
10830SOL     OW34496   6.328   7.246   5.257
10830SOL    HW134497  -4.649   7.246   5.330
10830SOL    HW234498   6.380   7.273  -5.858
10831SOL     OW34499  10.132   8.291   8.081
10831SOL    HW134500  10.054   8.239   8.099
10831SOL    HW234501  10.204   8.241 -13.958
10832SOL     OW34502   2.606   6.336   1.809
10832SOL    HW134503   2.532   6.396   1.804
10832SOL    HW234504   2.567   6.249  12.845
10833SOL     OW34505   0.387   9.403   9.838
10833SOL    HW134506   0.459  20.389   9.873
10833SOL    HW234507   0.390 -12.596  -1.150
10834SOL     OW34508  10.823   6.193  10.296
10834SOL    HW134509  10.845   6.283  10.320
10834SOL    HW234510  10.905   6.145  10.309
10835SOL     OW34511   1.623   5.414   4.383
10835SOL    HW134512   1.709   5.443  15.391
10835SOL    HW234513  12.682   5.358   4.458
10836SOL     OW34514   0.694   3.186   5.370
10836SOL    HW134515   0.754   3.258  27.428
10836SOL    HW234516   0.610  -7.826   5.335
10837SOL     OW34517   1.444   3.553   9.323
10837SOL    HW134518   1.530  14.551   9.337
10837SOL    HW234519   1.406   3.558  31.490
10838SOL     OW34520   5.758   4.138  11.950
10838SOL    HW134521   5.739   4.132  12.043
10838SOL    HW234522   5.671  15.175 -10.171
10839SOL     OW34523   4.467   0.175   4.836
10839SOL    HW134524   4.513   0.196   4.918
10839SOL    HW234525  15.575   0.143   4.778
10840SOL     OW34526  -0.147  10.317   9.344
10840SOL    HW134527  10.972  -0.775   9.331
10840SOL    HW234528  -0.179  -0.705  -1.784
10841SOL     OW34529   7.919   7.294   7.507
10841SOL    HW134530  -3.146   7.386  -3.524
10841SOL    HW234531   7.880   7.266   7.424
10842SOL     OW34532   9.311  10.601  -0.204
10842SOL    HW134533   9.376  -0.385  -0.158
10842SOL    HW234534   9.230 -11.428  10.843
10843SOL     OW34535  10.637   9.160   1.895
10843SOL    HW134536  -0.478   9.219  23.978
10843SOL    HW234537  10.698  31.282   1.836
10844SOL     OW34538   5.849   1.559   1.185
10844SOL    HW134539   5.799   1.637  12.197
10844SOL    HW234540  38.986   1.513  12.143
10845SOL     OW34541   1.078  -2.755   7.378
10845SOL    HW134542   1.003  30.319   7.339
10845SOL    HW234543   1.051  41.495  18.421
10846SOL     OW34544   9.353   6.143  10.274
10846SOL    HW134545   9.331  28.169  10.198
10846SOL    HW234546   9.448  -4.897  -0.763
10847SOL     OW34547   2.538  10.811   7.485
10847SOL    HW134548 -19.616  10.753   7.468
10847SOL    HW234549  -8.508  10.830   7.579
10848SOL     OW34550   6.824   4.282  10.092
10848SOL    HW134551  50.960   4.318  10.006
10848SOL    HW234552   6.803   4.189  10.086
10849SOL     OW34553   3.921   1.342  10.711
10849SOL    HW134554  15.048  34.432  -0.356
10849SOL    HW234555   3.862   1.290  10.657
10850SOL     OW34556   7.015   5.172   7.987
10850SOL    HW134557  18.118   5.231   7.946
10850SOL    HW234558  40.085   5.134  -3.126
10851SOL     OW34559   2.933   6.334   7.295
10851SOL    HW134560  25.058  17.456  18.354
10851SOL    HW234561   2.900   6.304   7.379
10852SOL     OW34562   4.971   7.892   2.089
10852SOL    HW134563  27.109   7.838  13.181
10852SOL    HW234564   5.024   7.920   2.014
10853SOL     OW34565   9.378   9.973   5.884
10853SOL    HW134566   9.330   9.976  -5.238
10853SOL    HW234567   9.381   9.880   5.907
10854SOL     OW34568   5.643   1.055   1.234
10854SOL    HW134569   5.663   1.146  12.297
10854SOL    HW234570  16.690   1.053   1.139
10855SOL     OW34571   4.396   7.015   9.655
10855SOL    HW134572   4.474   6.966  -1.409
10855SOL    HW234573  15.456   7.056   9.739
10856SOL     OW34574   6.470   8.505  -1.792
10856SOL    HW134575   6.378   8.518  31.304
10856SOL    HW234576   6.470   8.487  -1.698
10857SOL     OW34577   5.421   3.106   5.529
10857SOL    HW134578   5.483   3.033   5.524
10857SOL    HW234579  27.544   3.171  38.702
10858SOL     OW34580   4.718  10.230   2.118
10858SOL    HW134581   4.724  10.227   2.214
10858SOL    HW234582   4.650  10.294   2.100
10859SOL     OW34583   4.506  10.084   6.640
10859SOL    HW134584   4.555  10.006   6.614
10859SOL    HW234585   4.419  10.071   6.602
10860SOL     OW34586   7.672   8.264   2.635
10860SOL    HW134587   7.688   8.171  24.727
10860SOL    HW234588   7.579   8.275   2.654
10861SOL     OW34589   1.989   4.518   6.956
10861SOL    HW134590   1.988   4.457 -26.089
10861SOL    HW234591   1.940   4.594 -15.093
10862SOL     OW34592   1.432   0.528   4.752
10862SOL    HW134593   1.479   0.492   4.677
10862SOL    HW234594   1.339   0.510   4.733
10863SOL     OW34595   5.572   4.740  -0.059
10863SOL    HW134596  -5.414   4.722  11.058
10863SOL    HW234597   5.545   4.654  -0.090
10864SOL     OW34598   4.734  10.535   4.544
10864SOL    HW134599   4.657 -11.499   4.508
10864SOL    HW234600  26.887 -22.551   4.493
10865SOL     OW34601   7.427   6.705   3.969
10865SOL    HW134602  29.505   6.623 -18.158
10865SOL    HW234603   7.358   6.695   4.036
10866SOL     OW34604   6.300   7.905   2.432
10866SOL    HW134605  17.306   7.868   2.513
10866SOL    HW234606  39.441  -3.210 -19.702
10867SOL     OW34607   7.390   4.269   6.107
10867SOL    HW134608   7.439   4.350   6.123
10867SOL    HW234609   7.308   4.299   6.068
10868SOL     OW34610   5.265   6.555   2.399
10868SOL    HW134611   5.177   6.559  13.402
10868SOL    HW234612  -5.722   6.510   2.332
10869SOL     OW34613  11.302   0.187   5.074
10869SOL    HW134614   0.182  11.193  38.154
10869SOL    HW234615 -10.784  11.206  16.207
10870SOL     OW34616   1.989  -1.104   6.532
10870SOL    HW134617   1.987   9.919  -4.602
10870SOL    HW234618   2.076   9.905  28.639
10871SOL     OW34619   3.146   2.473   9.225
10871SOL    HW134620  -7.847  -8.615 -23.962
10871SOL    HW234621  14.174   2.561  20.228
10872SOL     OW34622   4.013   5.421   4.274
10872SOL    HW134623   3.955   5.489   4.308
10872SOL    HW234624   4.054   5.461  -6.842
10873SOL     OW34625   0.029   2.172   4.459
10873SOL    HW134626   0.015   2.264   4.482
10873SOL    HW234627   0.124   2.165  15.484
10874SOL     OW34628   8.536  -0.306   8.531
10874SOL    HW134629  -2.443  -0.378   8.518
10874SOL    HW234630   8.454  10.705   8.490
10875SOL     OW34631   2.318   5.030   9.509
10875SOL    HW134632  24.316   4.981  20.558
10875SOL    HW234633  13.335  16.141  20.488
10876SOL     OW34634   1.156   3.410   3.457
10876SOL    HW134635   1.136   3.455   3.375
10876SOL    HW234636  12.270   3.354   3.437
10877SOL     OW34637   1.059   7.082  10.946
10877SOL    HW134638  12.009   7.096  10.977
10877SOL    HW234639   1.086   7.166  -0.129
10878SOL     OW34640   0.278   8.129   7.393
10878SOL    HW134641  22.362   8.190  -3.720
10878SOL    HW234642   0.369  -2.937   7.408
10879SOL     OW34643   2.458   2.749   6.473
10879SOL    HW134644  -8.552  -8.227  17.578
10879SOL    HW234645   2.475   2.792   6.389
10880SOL     OW34646   0.032  10.048   6.178
10880SOL    HW134647   0.066  10.061   6.090
10880SOL    HW234648  11.076  10.134   6.219
10881SOL     OW34649   4.583   9.740   2.377
10881SOL    HW134650  26.716   9.805   2.331
10881SOL    HW234651   4.531   9.791  13.478
10882SOL     OW34652   6.361  10.496   9.179
10882SOL    HW134653  -4.705  10.466   9.092
10882SOL    HW234654   6.287  10.472   9.236
10883SOL     OW34655   2.424   4.582   7.041
10883SOL    HW134656   2.439   4.520   7.113
10883SOL    HW234657   2.487   4.652  -3.982
10884SOL     OW34658   0.932   6.375   6.872
10884SOL    HW134659 -10.038 -15.680   6.811
10884SOL    HW234660   0.919 -37.877   6.857
10885SOL     OW34661   1.630   9.323  10.649
10885SOL    HW134662   1.570   9.336  10.576
10885SOL    HW234663  -9.323  31.392  10.608
10886SOL     OW34664  10.098   8.601   6.592
10886SOL    HW134665  10.165  19.703  28.642
10886SOL    HW234666  10.148 -13.548   6.634
10887SOL     OW34667   6.873   1.836   2.822
10887SOL    HW134668  -4.085  12.868   2.773
10887SOL    HW234669 -15.182  34.934  -8.127
10888SOL     OW34670   2.566   3.373   9.914
10888SOL    HW134671   2.608   3.296   9.875
10888SOL    HW234672   2.535   3.423   9.839
10889SOL     OW34673  -0.142   8.400  10.144
10889SOL    HW134674  22.005   8.372 -11.997
10889SOL    HW234675  -0.093   8.436  10.218
10890SOL     OW34676   2.766   9.949   5.422
10890SOL    HW134677   2.753   9.907   5.507
10890SOL    HW234678   2.850   9.914   5.390
10891SOL     OW34679   2.565   6.422   3.144
10891SOL    HW134680   2.618   6.394 -19.009
10891SOL    HW234681   2.582   6.516  14.192
10892SOL     OW34682   0.977   0.544  10.803
10892SOL    HW134683   0.890   0.550  10.840
10892SOL    HW234684   0.969   0.480  10.732
10893SOL     OW34685   8.249   3.918  10.798
10893SOL    HW134686   8.174  25.951  -0.204
10893SOL    HW234687   8.228   3.926  10.705
10894SOL     OW34688   9.175  10.639   2.306
10894SOL    HW134689   9.163  10.600 -19.860
10894SOL    HW234690   9.148  10.730   2.296
10895SOL     OW34691   6.253  10.370   2.987
10895SOL    HW134692  -4.780  10.283  -8.015
10895SOL    HW234693 -15.806  10.429  -7.981
10896SOL     OW34694   1.127   7.395   5.393
10896SOL    HW134695  23.253   7.312   5.397
10896SOL    HW234696   1.176   7.453   5.451
10897SOL     OW34697   4.746  10.751   5.247
10897SOL    HW134698   4.708  10.758   5.335
10897SOL    HW234699   4.837  -0.263   5.258
10898SOL     OW34700   8.941  10.258   0.387
10898SOL    HW134701   8.851  10.250   0.357
10898SOL    HW234702   8.954  10.351  11.442
10899SOL     OW34703  10.481   7.574   3.944
10899SOL    HW134704  10.432   7.610   4.017
10899SOL    HW234705  10.545   7.515  -7.055
10900SOL     OW34706   0.401   6.130   0.958
10900SOL    HW134707   0.324   6.142   1.014
10900SOL    HW234708   0.410  17.075   0.949
10901SOL     OW34709   5.103  10.577   3.359
10901SOL    HW134710   5.104  -0.395   3.291
10901SOL    HW234711   5.158  10.507   3.324
10902SOL     OW34712   5.907   7.619   9.630
10902SOL    HW134713   5.878 -14.369   9.624
10902SOL    HW234714  28.023   7.612  -1.321
10903SOL     OW34715   3.161   0.349  -0.562
10903SOL    HW134716  14.137   0.412  10.442
10903SOL    HW234717  25.223  11.308  -0.610
10904SOL     OW34718   6.549   1.505   0.051
10904SOL    HW134719   6.546   1.524  22.224
10904SOL    HW234720   6.599   1.424   0.044
10905SOL     OW34721   7.157  11.422   9.529
10905SOL    HW134722   7.151   0.370   9.624
10905SOL    HW234723  -3.973  11.431   9.500
10906SOL     OW34724   0.942   4.410   2.140
10906SOL    HW134725   0.893   4.333  46.270
10906SOL    HW234726   0.926   4.415   2.234
10907SOL     OW34727   7.898   6.751   2.846
10907SOL    HW134728   7.863   6.700 -19.306
10907SOL    HW234729  18.874   6.739   2.917
10908SOL     OW34730   2.378  10.432   4.892
10908SOL    HW134731   2.462  10.387   4.903
10908SOL    HW234732  -8.723  -0.678  15.910
10909SOL     OW34733   1.837   9.220   3.230
10909SOL    HW134734   1.750   9.228  -7.848
10909SOL    HW234735   1.890   9.285  14.222
10910SOL     OW34736   1.718  11.096   8.485
10910SOL    HW134737   1.686  11.161   8.423
10910SOL    HW234738  -9.326 -11.066   8.437
10911SOL     OW34739   9.865   7.986   3.025
10911SOL    HW134740 -34.206  19.063   3.016
10911SOL    HW234741 -23.283   7.970   2.936
10912SOL     OW34742   7.361   3.294   5.633
10912SOL    HW134743   7.425   3.282 -16.376
10912SOL    HW234744 -14.763  36.494  16.695
10913SOL     OW34745   6.810   5.930   9.146
10913SOL    HW134746  17.916 -16.093   9.106
10913SOL    HW234747  -4.299  28.003   9.079
10914SOL     OW34748   7.080   7.085   4.963
10914SOL    HW134749   7.066  18.150  -6.167
10914SOL    HW234750   6.992   7.062   4.995
10915SOL     OW34751   6.638   9.611  10.681
10915SOL    HW134752   6.546 -12.467  10.653
10915SOL    HW234753  28.716   9.649  -0.271
10916SOL     OW34754  -2.673  10.460   7.001
10916SOL    HW134755  19.423  10.508   6.920
10916SOL    HW234756  30.484  10.515  18.109
10917SOL     OW34757   9.906   9.679  -0.248
10917SOL    HW134758   9.848  20.793  -0.231
10917SOL    HW234759   9.925  -1.356  32.777
10918SOL     OW34760   0.577   3.638   2.198
10918SOL    HW134761   0.507   3.670   2.142
10918SOL    HW234762   0.598  14.591   2.163
10919SOL     OW34763   8.567  -1.052   3.660
10919SOL    HW134764   8.529   9.987 -18.507
10919SOL    HW234765   8.492  21.032   3.719
10920SOL     OW34766   3.315   9.036   7.055
10920SOL    HW134767   3.361   9.056   7.136
10920SOL    HW234768  14.330  -1.918   7.021
10921SOL     OW34769   0.046   3.109   7.867
10921SOL    HW134770   0.091   3.174   7.813
10921SOL    HW234771   0.108   3.036   7.874
10922SOL     OW34772   7.585  10.670   7.929
10922SOL    HW134773  18.599  10.761   7.948
10922SOL    HW234774   7.507  10.631  18.930
10923SOL     OW34775   2.339   3.487   9.009
10923SOL    HW134776  13.320   3.549   9.053
10923SOL    HW234777   2.292   3.404  31.090
10924SOL     OW34778   7.652   5.648   4.322
10924SOL    HW134779   7.623   5.738   4.340
10924SOL    HW234780   7.706  27.703  -6.642
10925SOL     OW34781   6.815   9.366   2.644
10925SOL    HW134782  17.891   9.277  13.676
10925SOL    HW234783   6.774   9.368   2.730
10926SOL     OW34784   5.828   8.487   4.048
10926SOL    HW134785  -5.285   8.520   4.100
10926SOL    HW234786  -5.199  -2.643  15.117
10927SOL     OW34787   4.877   4.707   7.584
10927SOL    HW134788   4.888  15.657  -3.486
10927SOL    HW234789   4.876 -17.319   7.504
10928SOL     OW34790   7.106   3.539   7.006
10928SOL    HW134791 -14.913   3.613   7.008
10928SOL    HW234792   7.117   3.502   6.919
10929SOL     OW34793   1.334   3.899  10.151
10929SOL    HW134794  -9.683   3.986 -11.961
10929SOL    HW234795  12.390   3.840  10.078
10930SOL     OW34796   0.395   5.465   6.343
10930SOL    HW134797   0.431   5.437   6.427
10930SOL    HW234798   0.472   5.475   6.287
10931SOL     OW34799  10.166   7.220   2.590
10931SOL    HW134800  10.250   7.185   2.562
10931SOL    HW234801  10.186   7.265   2.673
10932SOL     OW34802   4.749   7.843  10.714
10932SOL    HW134803   4.724   7.775  10.651
10932SOL    HW234804  -6.371   7.862  10.762
10933SOL     OW34805   2.973   7.795   8.884
10933SOL    HW134806   3.003  -3.285   8.803
10933SOL    HW234807   3.053   7.804   8.937
10934SOL     OW34808   5.254   7.542  -1.818
10934SOL    HW134809   5.312   7.583  31.237
10934SOL    HW234810   5.172   7.590  -1.826
10935SOL     OW34811   0.865   9.286   6.136
10935SOL    HW134812  22.971   9.355   6.197
10935SOL    HW234813   0.921   9.212  -4.883
10936SOL     OW34814   6.406   0.035   2.008
10936SOL    HW134815  28.432   0.025   2.087
10936SOL    HW234816  -4.550  11.034   2.030
10937SOL     OW34817   8.138   4.118   6.135
10937SOL    HW134818   8.186  15.164   6.052
10937SOL    HW234819   8.093   4.033   6.129
10938SOL     OW34820   7.570   2.974  11.419
10938SOL    HW134821   7.549   2.956  11.510
10938SOL    HW234822  18.536   2.938 -10.710
10939SOL     OW34823   5.385   1.988   7.522
10939SOL    HW134824   5.476   2.012   7.538
10939SOL    HW234825   5.389  -9.120   7.456
10940SOL     OW34826   9.550  10.748   5.106
10940SOL    HW134827   9.493  10.717  16.076
10940SOL    HW234828 -12.440  10.736   5.073
10941SOL     OW34829   1.920   6.882   8.118
10941SOL    HW134830   2.003   6.843   8.094
10941SOL    HW234831   1.857   6.810  19.151
10942SOL     OW34832   0.140   6.206   8.183
10942SOL    HW134833  11.248  17.244   8.250
10942SOL    HW234834  22.149  39.271   8.220
10943SOL     OW34835  10.765   2.260   7.624
10943SOL    HW134836  10.758  -8.690   7.590
10943SOL    HW234837  10.859  -8.799   7.619
10944SOL     OW34838   3.308   5.226   9.387
10944SOL    HW134839 -18.800   5.189   9.303
10944SOL    HW234840   3.311   5.320   9.373
10945SOL     OW34841   1.309   8.169   4.899
10945SOL    HW134842   1.338  19.133   4.847
10945SOL    HW234843  12.259   8.186   4.869
10946SOL     OW34844   5.483   7.386   3.635
10946SOL    HW134845 -38.751 -14.657   3.589
10946SOL    HW234846 -16.633   7.318   3.691
10947SOL     OW34847   2.276   1.405   8.049
10947SOL    HW134848   2.271   1.447   7.964
10947SOL    HW234849   2.199   1.348   8.052
10948SOL     OW34850   7.883   8.558   3.052
10948SOL    HW134851   7.817   8.613   3.092
10948SOL    HW234852  18.875   8.507 -19.093
10949SOL     OW34853   9.696   6.420   4.313
10949SOL    HW134854  -1.265   6.366  15.350
10949SOL    HW234855  -1.353  39.564  37.524
10950SOL     OW34856   7.051   5.742   7.748
10950SOL    HW134857 -15.122   5.729   7.758
10950SOL    HW234858   7.060  -5.241   7.672
10951SOL     OW34859   3.370   3.544   3.766
10951SOL    HW134860  14.461   3.625   3.767
10951SOL    HW234861   3.287   3.569 -29.312
10952SOL     OW34862   7.614   5.092   8.960
10952SOL    HW134863   7.708  -5.937  31.050
10952SOL    HW234864   7.601   4.997   8.958
10953SOL     OW34865   4.790   2.566   7.084
10953SOL    HW134866   4.726  -8.491  29.094
10953SOL    HW234867   4.776   2.495   7.147
10954SOL     OW34868   6.698   1.653   2.988
10954SOL    HW134869  -4.256  -9.377   3.028
10954SOL    HW234870   6.715   1.654   2.894
10955SOL     OW34871   7.379   2.894   4.799
10955SOL    HW134872  -3.613  13.921  15.921
10955SOL    HW234873   7.291   2.920  -6.215
10956SOL     OW34874   2.274  10.404   3.107
10956SOL    HW134875   2.277  10.477  14.208
10956SOL    HW234876   2.205  10.347  14.181
10957SOL     OW34877   7.078   6.095   9.108
10957SOL    HW134878   7.160 -38.111 -12.963
10957SOL    HW234879  18.142   6.181   9.074
10958SOL     OW34880   5.075   4.278   9.926
10958SOL    HW134881   5.096  15.387   9.989
10958SOL    HW234882   5.077  15.237   9.977
10959SOL     OW34883   8.657   2.927   1.903
10959SOL    HW134884  19.684  -8.047   1.835
10959SOL    HW234885 -13.510   2.898  -9.115
10960SOL     OW34886   0.619   6.761  10.815
10960SOL    HW134887   0.667   6.739 -22.383
10960SOL    HW234888   0.672  -4.314  10.886
10961SOL     OW34889   8.169   7.733  10.341
10961SOL    HW134890   8.243   7.727  -0.759
10961SOL    HW234891 -13.987   7.726  10.285
10962SOL     OW34892   4.991   4.337   9.480
10962SOL    HW134893   4.962  -6.758   9.408
10962SOL    HW234894   4.965   4.426  31.534
10963SOL     OW34895   9.850   0.950   4.871
10963SOL    HW134896   9.930  12.043   4.874
10963SOL    HW234897   9.800   0.986 -50.400
10964SOL     OW34898   5.857  10.166   3.012
10964SOL    HW134899   5.790  10.156   3.079
10964SOL    HW234900   5.827  10.239  -8.081
10965SOL     OW34901   4.631   0.541   4.400
10965SOL    HW134902   4.658   0.510   4.313
10965SOL    HW234903   4.591   0.626   4.383
10966SOL     OW34904   0.025   2.978   0.820
10966SOL    HW134905  33.197   2.934   0.885
10966SOL    HW234906  11.122   2.987   0.744
10967SOL     OW34907   7.545   1.830   8.476
10967SOL    HW134908  -3.451   1.745  -2.548
10967SOL    HW234909   7.565  23.929   8.385
10968SOL     OW34910   1.003   4.638   4.010
10968SOL    HW134911   0.984   4.692   3.933
10968SOL    HW234912   0.961   4.554  26.070
10969SOL     OW34913   2.453   4.234   9.751
10969SOL    HW134914   2.453   4.281   9.835
10969SOL    HW234915   2.545 -28.908   9.737
10970SOL     OW34916   5.013   2.478   6.826
10970SOL    HW134917   5.033   2.533   6.751
10970SOL    HW234918  -6.122  -8.563  28.910
10971SOL     OW34919   5.964   6.565   6.801
10971SOL    HW134920 -16.184  -4.537  -4.215
10971SOL    HW234921  -4.998   6.531   6.845
10972SOL     OW34922   7.349   5.137   0.031
10972SOL    HW134923 -36.840  -5.851  -0.043
10972SOL    HW234924 -14.635  -5.896   0.026
10973SOL     OW34925   2.449   6.946   3.180
10973SOL    HW134926  -8.580 -15.101  -7.769
10973SOL    HW234927   2.459 -15.054   3.126
10974SOL     OW34928   5.124   2.095   9.138
10974SOL    HW134929  16.092   2.117 -13.001
10974SOL    HW234930  16.215   2.175   9.144
10975SOL     OW34931   3.741   3.077   8.570
10975SOL    HW134932 -18.397   3.151 -13.521
10975SOL    HW234933  -7.342   3.023 -13.442
10976SOL     OW34934  10.777   4.312   6.093
10976SOL    HW134935  10.733  -6.647  17.161
10976SOL    HW234936  -0.295   4.245  17.193
10977SOL     OW34937  10.008   7.603   8.819
10977SOL    HW134938  10.025  29.603   8.769
10977SOL    HW234939   9.916  29.703   8.802
10978SOL     OW34940   2.037  10.615  10.074
10978SOL    HW134941   2.109  10.609  -1.028
10978SOL    HW234942 -20.109  10.557  10.038
10979SOL     OW34943   6.886   2.800   8.487
10979SOL    HW134944   6.971   2.805   8.529
10979SOL    HW234945   6.831   2.752   8.549
10980SOL     OW34946   6.115   1.378  10.250
10980SOL    HW134947   6.136  12.340  -0.737
10980SOL    HW234948  39.138   1.385 -11.822
10981SOL     OW34949   0.911   3.877  13.373
10981SOL    HW134950   0.853 -18.148  -8.653
10981SOL    HW234951   0.989   3.930  -8.719
10982SOL     OW34952   1.069   7.129   3.608
10982SOL    HW134953   1.030   7.207   3.569
10982SOL    HW234954  12.124 -37.089   3.535
10983SOL     OW34955   6.395   6.011   0.829
10983SOL    HW134956   6.480   5.974   0.851
10983SOL    HW234957   6.393   6.011   0.733
10984SOL     OW34958  10.094   0.226   9.570
10984SOL    HW134959  10.186   0.251   9.573
10984SOL    HW234960  10.095   0.132   9.552
10985SOL     OW34961  -1.803   7.693   2.677
10985SOL    HW134962  20.316   7.724  -8.282
10985SOL    HW234963   9.150   7.660   2.704
10986SOL     OW34964   2.569   1.707   3.448
10986SOL    HW134965   2.559  -9.289   3.532
10986SOL    HW234966  13.641   1.620   3.469
10987SOL     OW34967   7.569   5.809  -0.022
10987SOL    HW134968   7.597 -16.349   0.024
10987SOL    HW234969  29.682  -5.241  10.928
10988SOL     OW34970   6.936  12.875   7.526
10988SOL    HW134971   6.904 -20.313  -3.455
10988SOL    HW234972   7.017  12.906  29.647
10989SOL     OW34973   7.054   2.135   6.334
10989SOL    HW134974  18.077   2.218   6.379
10989SOL    HW234975  18.147   2.159   6.258
10990SOL     OW34976   2.468   8.546   5.927
10990SOL    HW134977   2.548  19.577   5.978
10990SOL    HW234978  13.475  19.673  -5.091
10991SOL     OW34979   6.077   6.231  11.724
10991SOL    HW134980   6.023  -4.770 -10.287
10991SOL    HW234981  -5.002   6.262  11.642
10992SOL     OW34982   3.135  10.174   7.779
10992SOL    HW134983   3.211  10.118  29.840
10992SOL    HW234984  25.138  -0.923   7.766
10993SOL     OW34985  10.447   8.491   4.941
10993SOL    HW134986  10.429   8.397   4.934
10993SOL    HW234987  -0.562   8.504   5.031
10994SOL     OW34988   4.810   9.297   9.278
10994SOL    HW134989 -28.384  20.278  20.322
10994SOL    HW234990   4.885 -12.839 -23.857
10995SOL     OW34991  10.811   7.815   5.004
10995SOL    HW134992  10.771   7.731   5.025
10995SOL    HW234993  10.797  18.864  26.988
10996SOL     OW34994   8.515   5.822   4.228
10996SOL    HW134995  19.606   5.799   4.305
10996SOL    HW234996   8.466   5.900   4.254
10997SOL     OW34997   7.919   6.889  -0.797
10997SOL    HW134998  18.873   6.869  21.245
10997SOL    HW234999  30.028   6.807  -0.759
10998SOL     OW35000   8.837   6.449   8.341
10998SOL    HW135001  -2.244   6.376 -13.783
10998SOL    HW235002  -2.208   6.521  -2.761
10999SOL     OW35003   5.326   7.993   9.270
10999SOL    HW135004   5.331 -14.104  -1.863
10999SOL    HW235005   5.410   7.965   9.305
11000SOL     OW35006  11.558   0.979   3.944
11000SOL    HW135007 -10.522   1.030   3.863
11000SOL    HW235008  11.497   1.026   4.001
11001SOL     OW35009   4.195   4.523   5.812
11001SOL    HW135010   4.250   4.498   5.738
11001SOL    HW235011  -6.878   4.609   5.789
11002SOL     OW35012   8.014   6.830   0.591
11002SOL    HW135013  -3.046  17.782   0.556
11002SOL    HW235014   7.939   6.850   0.647
11003SOL     OW35015   1.038   0.472   5.500
11003SOL    HW135016   1.038   0.377   5.502
11003SOL    HW235017   0.949  33.614   5.473
11004SOL     OW35018  -0.095   6.169   3.315
11004SOL    HW135019  -0.001   6.149   3.306
11004SOL    HW235020  10.901   6.085   3.308
11005SOL     OW35021   1.095   1.402   3.685
11005SOL    HW135022  12.114   1.320  -7.310
11005SOL    HW235023  12.194   1.377   3.615
11006SOL     OW35024   0.245   0.148   4.336
11006SOL    HW135025   0.161  11.206   4.294
11006SOL    HW235026   0.257   0.219   4.399
11007SOL     OW35027   4.819   0.519  10.821
11007SOL    HW135028 -17.227   0.511  10.910
11007SOL    HW235029   4.879   0.581  10.779
11008SOL     OW35030   2.088   6.121   4.271
11008SOL    HW135031   2.065  17.249  15.280
11008SOL    HW235032   2.184   6.122   4.277
11009SOL     OW35033   3.708   1.950   1.082
11009SOL    HW135034  14.709   1.919   1.164
11009SOL    HW235035  25.760   2.042   1.076
11010SOL     OW35036   2.695   3.129   2.284
11010SOL    HW135037  13.826  14.187   2.264
11010SOL    HW235038   2.693   3.035   2.301
11011SOL     OW35039  11.695   5.288   4.830
11011SOL    HW135040 -10.475   5.298   4.857
11011SOL    HW235041   0.678   5.199   4.858
11012SOL     OW35042   8.527   1.860   3.225
11012SOL    HW135043   8.569   1.902  14.340
11012SOL    HW235044   8.439   1.839  14.295
11013SOL     OW35045   0.990   6.230   4.175
11013SOL    HW135046  12.037   6.311   4.226
11013SOL    HW235047  23.031   6.167   4.235
11014SOL     OW35048   4.646   3.868  10.863
11014SOL    HW135049   4.734   3.838  10.839
11014SOL    HW235050  15.664 -29.301  10.942
11015SOL     OW35051   2.574   2.277  10.662
11015SOL    HW135052  35.716  -8.726  10.747
11015SOL    HW235053  35.646   2.348  10.617
11016SOL     OW35054  -1.642   5.622   8.459
11016SOL    HW135055  42.490   5.683   8.390
11016SOL    HW235056  20.453  16.579   8.413
11017SOL     OW35057   5.601   8.912   3.979
11017SOL    HW135058   5.663 -13.142  14.950
11017SOL    HW235059   5.526  -2.070  37.084
11018SOL     OW35060   3.898  11.411  10.172
11018SOL    HW135061   3.917  11.362  10.092
11018SOL    HW235062  -7.070   0.350  10.231
11019SOL     OW35063   5.666   9.985   4.580
11019SOL    HW135064  -5.428  10.046   4.631
11019SOL    HW235065  -5.404 -12.181   4.607
11020SOL     OW35066   9.228   8.198   1.794
11020SOL    HW135067   9.282  30.339   1.746
11020SOL    HW235068   9.275  19.154   1.786
11021SOL     OW35069   1.385   0.489   9.473
11021SOL    HW135070 -31.797   0.427   9.512
11021SOL    HW235071  23.541   0.435   9.453
11022SOL     OW35072  10.246   3.739   7.518
11022SOL    HW135073  10.238   3.732   7.613
11022SOL    HW235074  10.159   3.765  62.686
11023SOL     OW35075  10.684   2.559   7.822
11023SOL    HW135076  10.653   2.469  18.868
11023SOL    HW235077  10.724  -8.474   7.736
11024SOL     OW35078   5.385   0.321   5.030
11024SOL    HW135079  16.504   0.372   5.012
11024SOL    HW235080   5.339   0.371 -50.100
11025SOL     OW35081  -0.168  10.288   4.368
11025SOL    HW135082  32.922  -0.661  -6.660
11025SOL    HW235083  -0.242  10.245  -6.714
11026SOL     OW35084   3.406   7.608   8.960
11026SOL    HW135085   3.437   7.627   9.049
11026SOL    HW235086   3.479   7.632   8.903
11027SOL     OW35087   0.775   5.624   0.248
11027SOL    HW135088   0.819   5.540  33.350
11027SOL    HW235089   0.733   5.612   0.333
11028SOL     OW35090   4.374  11.314   1.513
11028SOL    HW135091   4.396  11.234   1.562
11028SOL    HW235092  -6.753   0.257   1.477
11029SOL     OW35093   4.990  11.726  -0.353
11029SOL    HW135094   4.962  11.812  21.756
11029SOL    HW235095   5.075 -10.339  54.804
11030SOL     OW35096   9.550   1.582   4.609
11030SOL    HW135097   9.615   1.525   4.650
11030SOL    HW235098  -1.538   1.525   4.550
11031SOL     OW35099   4.077   1.997   4.634
11031SOL    HW135100   4.069   1.994 -17.540
11031SOL    HW235101   4.080   2.091   4.655
11032SOL     OW35102   2.030   0.677   4.566
11032SOL    HW135103   2.098   0.618  -6.440
11032SOL    HW235104   2.040  11.713   4.471
11033SOL     OW35105   0.047  10.150   5.927
11033SOL    HW135106   0.050  10.155   5.831
11033SOL    HW235107   0.111  10.215  -5.083
11034SOL     OW35108  10.348   7.780   1.548
11034SOL    HW135109  10.339   7.873  12.608
11034SOL    HW235110  10.426   7.752  -9.442
11035SOL     OW35111  12.279   9.533   6.898
11035SOL    HW135112   1.219  -1.586   6.947
11035SOL    HW235113  -9.741   9.504  -4.211
11036SOL     OW35114   8.705   6.049   8.818
11036SOL    HW135115   8.631   6.109   8.828
11036SOL    HW235116   8.721   6.015   8.906
11037SOL     OW35117   2.058  -0.513   5.381
11037SOL    HW135118   2.090  32.689  38.533
11037SOL    HW235119  13.124  -0.514   5.289
11038SOL     OW35120   4.516  10.032   0.221
11038SOL    HW135121  15.469  10.000   0.194
11038SOL    HW235122  15.559 -22.996   0.191
11039SOL     OW35123   7.810   2.181   5.380
11039SOL    HW135124   7.885  13.166  16.393
11039SOL    HW235125  18.804  -8.839   5.299
11040SOL     OW35126  10.272   7.661   2.697
11040SOL    HW135127  10.342  18.641   2.724
11040SOL    HW235128  10.191   7.614   2.717
11041SOL     OW35129  11.268   3.610  -0.388
11041SOL    HW135130 -43.844   3.592  10.692
11041SOL    HW235131 -32.880   3.581  10.561
11042SOL     OW35132   4.756   1.794   3.585
11042SOL    HW135133 -17.292   1.732  14.690
11042SOL    HW235134   4.677   1.754  14.588
11043SOL     OW35135   4.539  -0.292   9.637
11043SOL    HW135136   4.489  21.868   9.623
11043SOL    HW235137  -6.452  -0.305 -23.563
11044SOL     OW35138   3.308   1.032   1.375
11044SOL    HW135139 -18.691   0.983   1.392
11044SOL    HW235140  -7.731   1.045  23.359
11045SOL     OW35141   3.823   4.654   4.831
11045SOL    HW135142   3.889   4.717   4.803
11045SOL    HW235143   3.776   4.631   4.751
11046SOL     OW35144  11.321   3.164   1.485
11046SOL    HW135145   0.279  14.270   1.417
11046SOL    HW235146  11.343 -18.867  -9.474
11047SOL     OW35147  10.392   9.582   4.033
11047SOL    HW135148  21.355   9.609   3.983
11047SOL    HW235149  10.446  20.700  -6.999
11048SOL     OW35150   9.563   5.039   9.050
11048SOL    HW135151   9.635   5.064  -2.047
11048SOL    HW235152   9.512  16.016   8.999
11049SOL     OW35153   3.470  10.031   7.537
11049SOL    HW135154   3.531  10.090   7.583
11049SOL    HW235155  -7.628  21.130   7.490
11050SOL     OW35156   1.199   9.009   9.361
11050SOL    HW135157   1.188   8.974   9.272
11050SOL    HW235158  45.428   9.073   9.353
11051SOL     OW35159   8.919   1.209  11.638
11051SOL    HW135160   8.971  12.215   0.526
11051SOL    HW235161   8.973   1.194 -43.482
11052SOL     OW35162   2.153   4.256   3.311
11052SOL    HW135163  -8.798   4.265   3.347
11052SOL    HW235164  -8.912   4.346  14.327
11053SOL     OW35165   2.379   4.715   8.447
11053SOL    HW135166   2.338  26.747   8.519
11053SOL    HW235167   2.431   4.650   8.401
11054SOL     OW35168   5.070   8.315   5.253
11054SOL    HW135169   5.131  -2.774  27.277
11054SOL    HW235170 -16.962  -2.712   5.336
11055SOL     OW35171   7.509   4.443   3.738
11055SOL    HW135172   7.437   4.452   3.675
11055SOL    HW235173  18.571   4.350   3.736
11056SOL     OW35174   2.364   4.671   2.540
11056SOL    HW135175   2.324  15.652   2.605
11056SOL    HW235176  24.454  26.695   2.462
11057SOL     OW35177   0.879   3.704   4.458
11057SOL    HW135178   0.951   3.738  -6.635
11057SOL    HW235179  22.952   3.611   4.435
11058SOL     OW35180   8.293   7.136   5.120
11058SOL    HW135181   8.230  -3.975   5.114
11058SOL    HW235182   8.377  -3.943   5.095
11059SOL     OW35183   5.759   9.726  10.557
11059SOL    HW135184   5.840   9.726  21.647
11059SOL    HW235185  27.852  -1.247  -0.550
11060SOL     OW35186   7.756   3.151   9.967
11060SOL    HW135187  -3.325  14.235   9.893
11060SOL    HW235188   7.821   3.213 -23.119
11061SOL     OW35189   7.250   8.780   7.182
11061SOL    HW135190 -14.915   8.759  -3.820
11061SOL    HW235191   7.230   8.829  -3.937
11062SOL     OW35192   4.061   2.264  10.573
11062SOL    HW135193  26.167   2.278 -11.596
11062SOL    HW235194   3.973   2.302  10.578
11063SOL     OW35195  11.833  10.228   3.218
11063SOL    HW135196 -21.340  10.171  -7.876
11063SOL    HW235197  11.874  -0.752   3.155
11064SOL     OW35198   6.661   1.462   1.274
11064SOL    HW135199  -4.470  34.607   1.266
11064SOL    HW235200   6.708   1.543 -20.787
11065SOL     OW35201   9.519   3.161   9.488
11065SOL    HW135202   9.580  14.250   9.433
11065SOL    HW235203 -23.634   3.093   9.430
11066SOL     OW35204   8.162  10.128   4.185
11066SOL    HW135205   8.143  10.216   4.217
11066SOL    HW235206   8.243  10.103  37.347
11067SOL     OW35207   5.473   9.812   5.020
11067SOL    HW135208  38.601   9.905   5.042
11067SOL    HW235209   5.533   9.767   5.079
11068SOL     OW35210   2.423   5.653   1.672
11068SOL    HW135211 -19.664   5.561  12.736
11068SOL    HW235212   2.344   5.671   1.622
11069SOL     OW35213   1.651   3.742   8.853
11069SOL    HW135214   1.643   3.729   8.758
11069SOL    HW235215   1.574  -7.340 -46.308
11070SOL     OW35216   9.602   3.983   6.988
11070SOL    HW135217  31.774  14.999   6.985
11070SOL    HW235218   9.590   4.023  -3.965
11071SOL     OW35219  10.993   8.568   3.432
11071SOL    HW135220  10.963  -2.429  36.631
11071SOL    HW235221   0.048   8.587   3.429
11072SOL     OW35222   3.215   2.605   5.790
11072SOL    HW135223   3.210   2.699   5.772
11072SOL    HW235224  14.318   2.598  -5.178
11073SOL     OW35225   0.242   4.828  -0.222
11073SOL    HW135226  11.229   4.775  10.879
11073SOL    HW235227   0.194   4.824  -0.304
11074SOL     OW35228   5.030  10.272   9.031
11074SOL    HW135229   5.060  10.216  31.182
11074SOL    HW235230   4.955  21.265   8.994
11075SOL     OW35231   8.955   5.759   1.809
11075SOL    HW135232   8.954   5.838   1.862
11075SOL    HW235233 -13.196  -5.269   1.746
11076SOL     OW35234   2.834  10.341   3.605
11076SOL    HW135235   2.747  10.305   3.623
11076SOL    HW235236   2.894 -11.811  25.697
11077SOL     OW35237  10.505   6.804   3.015
11077SOL    HW135238  10.431   6.828   3.070
11077SOL    HW235239  10.471   6.737   2.957
11078SOL     OW35240   1.319   6.143   7.015
11078SOL    HW135241 -20.667   6.151 -15.042
11078SOL    HW235242  23.383   6.207  -4.094
11079SOL     OW35243   2.096   3.879   9.201
11079SOL    HW135244   2.009   3.848  20.218
11079SOL    HW235245  13.140  -7.169   9.296
11080SOL     OW35246   1.182   2.371   1.021
11080SOL    HW135247   1.182   2.432   1.095
11080SOL    HW235248   1.173  13.324   1.060
11081SOL     OW35249   6.610   4.259   7.640
11081SOL    HW135250   6.684  -6.735   7.601
11081SOL    HW235251  17.665  -6.873   7.620
11082SOL     OW35252   9.193   3.929   6.702
11082SOL    HW135253  -1.848   4.024   6.714
11082SOL    HW235254   9.268  25.978   6.753
11083SOL     OW35255   7.890  11.193   4.009
11083SOL    HW135256   7.969  11.197 -18.017
11083SOL    HW235257   7.851   0.241   4.018
11084SOL     OW35258  10.538   7.215   9.742
11084SOL    HW135259  10.589   7.145  20.822
11084SOL    HW235260  10.581   7.296   9.771
11085SOL     OW35261   1.703   5.334   6.203
11085SOL    HW135262  23.724   5.397  17.285
11085SOL    HW235263  23.863   5.383   6.188
11086SOL     OW35264   2.778   1.816   5.616
11086SOL    HW135265   2.827 -20.335  38.775
11086SOL    HW235266   2.695   1.776   5.590
11087SOL     OW35267   5.837   6.295  -0.355
11087SOL    HW135268   5.831   6.254  10.598
11087SOL    HW235269   5.787  17.416  -0.363
11088SOL     OW35270   7.699  12.182   7.906
11088SOL    HW135271   7.718   1.116   7.816
11088SOL    HW235272   7.641   1.218   7.897
11089SOL     OW35273   1.239   1.796  10.131
11089SOL    HW135274  -9.797   1.737  10.206
11089SOL    HW235275   1.308   1.860  -0.893
11090SOL     OW35276   3.698   3.556   5.585
11090SOL    HW135277 -18.298  -7.452  38.667
11090SOL    HW235278  -7.408   3.605   5.537
11091SOL     OW35279  10.997   9.132   4.533
11091SOL    HW135280  11.027   9.185   4.607
11091SOL    HW235281  10.906   9.110   4.554
11092SOL     OW35282   6.848   8.723   2.550
11092SOL    HW135283   6.778   8.671  24.670
11092SOL    HW235284   6.815   8.741  -8.578
11093SOL     OW35285   4.324   9.861  10.207
11093SOL    HW135286   4.410   9.887  10.175
11093SOL    HW235287  -6.748   9.938  21.294
11094SOL     OW35288  11.266   9.838   6.521
11094SOL    HW135289 -10.749   9.867   6.586
11094SOL    HW235290  11.295   9.750  28.576
11095SOL     OW35291   0.877   4.266   2.689
11095SOL    HW135292   0.785   4.277   2.713
11095SOL    HW235293   0.924  -6.710   2.744
11096SOL     OW35294   1.721   8.415   0.449
11096SOL    HW135295   1.724 -13.598   0.379
11096SOL    HW235296   1.637   8.430   0.492
11097SOL     OW35297   7.512  -0.259   1.358
11097SOL    HW135298   7.431  -0.254   1.307
11097SOL    HW235299 -25.592  21.910  23.469
11098SOL     OW35300   2.372   9.173  -1.026
11098SOL    HW135301  35.527   9.239  21.112
11098SOL    HW235302   2.436   9.102  -1.026
11099SOL     OW35303   7.450  10.567  10.173
11099SOL    HW135304   7.514  10.562  10.102
11099SOL    HW235305   7.426  -0.380  10.178
11100SOL     OW35306   9.543   2.542   5.435
11100SOL    HW135307   9.606 -19.558   5.504
11100SOL    HW235308   9.482   2.604   5.475
11101SOL     OW35309   3.927   2.300   5.559
11101SOL    HW135310  15.019   2.327  -5.556
11101SOL    HW235311   3.848   2.353   5.553
11102SOL     OW35312   5.154  11.885   6.089
11102SOL    HW135313   5.088   0.915   6.096
11102SOL    HW235314   5.105 -10.275   6.098
11103SOL     OW35315   8.607   0.327   1.152
11103SOL    HW135316   8.656   0.384   1.092
11103SOL    HW235317   8.586  11.289   1.100
11104SOL     OW35318   7.487   0.353   8.602
11104SOL    HW135319   7.476  22.523   8.630
11104SOL    HW235320  29.484   0.332   8.556
11105SOL     OW35321   8.316   8.506   5.510
11105SOL    HW135322   8.270   8.492   5.593
11105SOL    HW235323   8.321   8.419   5.470
11106SOL     OW35324  10.486   4.799   0.258
11106SOL    HW135325  10.482  15.890   0.177
11106SOL    HW235326  10.573   4.817   0.294
11107SOL     OW35327  10.720  10.236   1.858
11107SOL    HW135328  10.652  10.169   1.866
11107SOL    HW235329  10.685  -0.741   1.795
11108SOL     OW35330   3.001   6.412   5.564
11108SOL    HW135331   2.905   6.409   5.559
11108SOL    HW235332 -19.048   6.368   5.485
11109SOL     OW35333   3.262   6.916   4.084
11109SOL    HW135334   3.298   6.848   4.026
11109SOL    HW235335   3.203   6.868  -6.897
11110SOL     OW35336   7.189   2.195   8.321
11110SOL    HW135337   7.130   2.259   8.360
11110SOL    HW235338   7.131  13.174   8.275
11111SOL     OW35339   3.336   0.554   7.057
11111SOL    HW135340   3.362   0.617   7.124
11111SOL    HW235341  36.459   0.603   6.975
11112SOL     OW35342   7.521   4.188   0.326
11112SOL    HW135343  -3.602  -6.827   0.365
11112SOL    HW235344   7.587  15.256   0.390
11113SOL     OW35345  -1.842   1.029   5.646
11113SOL    HW135346  20.245   0.942   5.685
11113SOL    HW235347  42.400   1.044   5.602
11114SOL     OW35348   1.300   5.003  12.762
11114SOL    HW135349  12.270   4.961   1.672
11114SOL    HW235350   1.326  15.977  -9.253
11115SOL     OW35351   7.463   4.801   2.572
11115SOL    HW135352   7.498  -6.153   2.597
11115SOL    HW235353  40.653  26.819  -8.448
11116SOL     OW35354   2.340   2.613   2.608
11116SOL    HW135355   2.431   2.604 -19.442
11116SOL    HW235356   2.290   2.557   2.667
11117SOL     OW35357  11.042   9.812   9.029
11117SOL    HW135358  -0.044   9.894  20.087
11117SOL    HW235359  11.134   9.834  -2.003
11118SOL     OW35360   4.150   8.472  10.678
11118SOL    HW135361   4.058   8.446  10.670
11118SOL    HW235362   4.163  -2.501  10.611
11119SOL     OW35363   8.472   9.526  10.403
11119SOL    HW135364   8.499   9.592  10.467
11119SOL    HW235365   8.415   9.573  10.343
11120SOL     OW35366  10.902   6.310   0.724
11120SOL    HW135367  10.944  17.328   0.641
11120SOL    HW235368  10.829   6.249   0.731
11121SOL     OW35369   0.949  -0.136   2.629
11121SOL    HW135370   0.924  -0.104   2.543
11121SOL    HW235371   0.931  10.809   2.626
11122SOL     OW35372   0.476   5.648   2.638
11122SOL    HW135373   0.528  -5.472   2.632
11122SOL    HW235374   0.521 -27.408   2.582
11123SOL     OW35375   7.302   1.257   8.512
11123SOL    HW135376   7.381   1.251   8.458
11123SOL    HW235377   7.296   1.349   8.536
11124SOL     OW35378   4.777   6.638   2.843
11124SOL    HW135379   4.826  17.758   2.824
11124SOL    HW235380   4.830  17.608  -8.233
11125SOL     OW35381  10.239   4.519  10.644
11125SOL    HW135382  10.273   4.437  10.678
11125SOL    HW235383  -0.882   4.496  10.601
11126SOL     OW35384   2.043   1.797  10.772
11126SOL    HW135385   2.067   1.822  -0.178
11126SOL    HW235386 -20.112   1.853  10.751
11127SOL     OW35387   3.297  11.783   5.117
11127SOL    HW135388   3.263 -10.380   5.086
11127SOL    HW235389   3.377  11.797   5.066
11128SOL     OW35390   5.728  10.013  10.050
11128SOL    HW135391   5.688  -0.954 -11.980
11128SOL    HW235392   5.816  -0.997  21.069
11129SOL     OW35393  10.934   0.728   5.103
11129SOL    HW135394  10.883   0.798   5.062
11129SOL    HW235395  10.875   0.689   5.167
11130SOL     OW35396   5.282   2.256   4.921
11130SOL    HW135397   5.373   2.267   4.893
11130SOL    HW235398   5.262   2.164  26.981
11131SOL     OW35399   1.138   1.921   2.572
11131SOL    HW135400   1.076   1.914  -8.394
11131SOL    HW235401   1.210   1.974   2.607
11132SOL     OW35402   1.662   4.995   6.501
11132SOL    HW135403   1.610 -28.075   6.564
11132SOL    HW235404   1.661   4.905  17.573
11133SOL     OW35405   1.422   2.209   0.275
11133SOL    HW135406  23.450   2.208   0.194
11133SOL    HW235407   1.427  24.197   0.301
11134SOL     OW35408  -3.591   8.333   5.084
11134SOL    HW135409  40.539  -2.742   4.999
11134SOL    HW235410  18.560   8.276   5.111
11135SOL     OW35411   7.965   1.129   8.527
11135SOL    HW135412   8.049  -9.957   8.533
11135SOL    HW235413  18.981   1.146   8.619
11136SOL     OW35414   3.775   9.196   1.602
11136SOL    HW135415   3.772  20.141   1.611
11136SOL    HW235416   3.812  20.267   1.685
11137SOL     OW35417   4.895   4.461   2.934
11137SOL    HW135418  -6.075   4.443   2.997
11137SOL    HW235419  15.865   4.502 -30.133
11138SOL     OW35420   6.660   0.188   9.392
11138SOL    HW135421   6.608  22.329   9.341
11138SOL    HW235422   6.596   0.134 -12.641
11139SOL     OW35423   1.087   8.234   0.260
11139SOL    HW135424   1.032  19.352  11.304
11139SOL    HW235425  12.189   8.245   0.332
11140SOL     OW35426   6.113   1.648   0.726
11140SOL    HW135427   6.202   1.678   0.741
11140SOL    HW235428 -27.038 -20.377 -10.385
11141SOL     OW35429   3.597   3.882   1.790
11141SOL    HW135430  -7.405   3.914   1.708
11141SOL    HW235431   3.502   3.889  12.816
11142SOL     OW35432   1.756   0.391   9.352
11142SOL    HW135433   1.819  11.458   9.420
11142SOL    HW235434  12.818  22.379   9.333
11143SOL     OW35435   1.208   2.828   1.631
11143SOL    HW135436  12.265   2.879 -20.369
11143SOL    HW235437  23.293  13.932   1.560
11144SOL     OW35438   5.999   7.517  -0.368
11144SOL    HW135439   5.907  -3.514  21.736
11144SOL    HW235440  28.127   7.538  21.791
11145SOL     OW35441  11.012   0.164   3.719
11145SOL    HW135442  11.074  11.134  -7.296
11145SOL    HW235443  -0.010   0.180  14.666
11146SOL     OW35444  10.985   9.113   1.820
11146SOL    HW135445  11.040  -1.972   1.756
11146SOL    HW235446  10.984   9.056  23.976
11147SOL     OW35447   6.891   7.881   2.606
11147SOL    HW135448   6.904   7.793  13.680
11147SOL    HW235449   6.862   7.932   2.681
11148SOL     OW35450   4.524   8.878   6.453
11148SOL    HW135451   4.594   8.912   6.398
11148SOL    HW235452   4.448  -2.167   6.395
11149SOL     OW35453   2.600   5.631   4.349
11149SOL    HW135454  -8.362   5.630   4.404
11149SOL    HW235455   2.625   5.580   4.272
11150SOL     OW35456  -1.664   1.158   8.167
11150SOL    HW135457  20.454   1.072   8.180
11150SOL    HW235458  31.429   1.159   8.075
11151SOL     OW35459   8.111   4.741   3.963
11151SOL    HW135460  19.063   4.712 -18.090
11151SOL    HW235461   8.109   4.742  14.907
11152SOL     OW35462   8.941   8.821   6.064
11152SOL    HW135463   8.890  -2.224   5.983
11152SOL    HW235464  42.149   8.839  17.074
11153SOL     OW35465   2.444   9.772   5.154
11153SOL    HW135466  13.470   9.846 -16.984
11153SOL    HW235467   2.517   9.724  -5.925
11154SOL     OW35468   4.685  10.976   3.721
11154SOL    HW135469   4.737  11.047   3.684
11154SOL    HW235470  -6.416  11.020   3.780
11155SOL     OW35471  10.206   9.564   6.466
11155SOL    HW135472  10.153   9.487 -15.635
11155SOL    HW235473  10.249   9.588   6.384
11156SOL     OW35474  10.047   4.108   0.371
11156SOL    HW135475  -1.052  15.181   0.439
11156SOL    HW235476  10.133   4.143   0.396
11157SOL     OW35477   3.002  13.346   3.463
11157SOL    HW135478   3.066  -8.663  14.511
11157SOL    HW235479   3.048  -8.802  14.455
11158SOL     OW35480   4.525  11.135   6.037
11158SOL    HW135481   4.606  11.084   6.042
11158SOL    HW235482   4.483 -10.958 -15.957
11159SOL     OW35483   2.278   3.886  10.582
11159SOL    HW135484   2.243   3.970  21.653
11159SOL    HW235485  -8.786  14.923  -0.550
11160SOL     OW35486   3.822   6.415   1.371
11160SOL    HW135487   3.840   6.463   1.290
11160SOL    HW235488   3.800   6.484  34.553
11161SOL     OW35489   5.543   7.905   9.406
11161SOL    HW135490   5.575   7.816  -1.616
11161SOL    HW235491   5.577   7.957   9.479
11162SOL     OW35492   9.503  10.985   2.872
11162SOL    HW135493   9.588  -0.014   2.858
11162SOL    HW235494   9.521  10.910   2.928
11163SOL     OW35495   1.017   6.775   3.595
11163SOL    HW135496   0.962   6.820   3.658
11163SOL    HW235497   1.079   6.724  -7.392
11164SOL     OW35498  10.406   2.609   4.759
11164SOL    HW135499  10.486  13.597   4.763
11164SOL    HW235500  10.434   2.696   4.730
11165SOL     OW35501   5.088   2.308   0.801
11165SOL    HW135502  -5.870   2.259   0.795
11165SOL    HW235503   5.024  13.284   0.832
11166SOL     OW35504   6.521  11.333   3.882
11166SOL    HW135505  -4.613   0.309  -7.154
11166SOL    HW235506  -4.480 -10.669   3.924
11167SOL     OW35507   8.134   6.652   2.850
11167SOL    HW135508   8.045   6.683 -19.213
11167SOL    HW235509   8.182   6.672   2.931
11168SOL     OW35510   2.371   7.306   2.029
11168SOL    HW135511   2.282   7.304   1.994
11168SOL    HW235512  24.501  40.374   1.967
11169SOL     OW35513   8.131  10.680   6.811
11169SOL    HW135514   8.157  10.628  17.774
11169SOL    HW235515   8.212  -0.321   6.843
11170SOL     OW35516   1.886   0.422   0.807
11170SOL    HW135517  12.945   0.500   0.857
11170SOL    HW235518   1.859  33.573   0.721
11171SOL     OW35519   8.640   8.283   7.400
11171SOL    HW135520   8.694   8.205   7.398
11171SOL    HW235521  19.590   8.250   7.413
11172SOL     OW35522   9.858   1.241   1.021
11172SOL    HW135523   9.794   1.208   1.083
11172SOL    HW235524   9.941  23.322  -9.970
11173SOL     OW35525   7.039   6.045   4.271
11173SOL    HW135526   7.016   6.137  26.360
11173SOL    HW235527   7.055  28.113   4.177
11174SOL     OW35528   8.068   5.376  11.185
11174SOL    HW135529   8.118   5.321 -10.835
11174SOL    HW235530   8.127   5.391  11.111
11175SOL     OW35531  11.284   4.359   3.914
11175SOL    HW135532   0.220   4.425   3.979
11175SOL    HW235533  11.339   4.298   3.962
11176SOL     OW35534   9.678   8.848   9.651
11176SOL    HW135535  -1.352   8.868   9.744
11176SOL    HW235536   9.765   8.818   9.624
11177SOL     OW35537   0.973   0.242   9.185
11177SOL    HW135538   0.943   0.154  20.250
11177SOL    HW235539   1.069   0.233   9.181
11178SOL     OW35540   3.992   8.259   1.603
11178SOL    HW135541   4.050   8.229   1.673
11178SOL    HW235542   3.905   8.229 -20.450
11179SOL     OW35543   2.994   2.213   7.629
11179SOL    HW135544   3.069   2.205   7.688
11179SOL    HW235545   2.969   2.123   7.609
11180SOL     OW35546   5.627   3.251   1.767
11180SOL    HW135547   5.594   3.326  12.857
11180SOL    HW235548  16.743   3.284   1.721
11181SOL     OW35549   3.198   4.886   4.619
11181SOL    HW135550   3.168   4.920   4.703
11181SOL    HW235551  14.324   4.849   4.638
11182SOL     OW35552  11.574  11.503   8.735
11182SOL    HW135553   0.518  11.563   8.808
11182SOL    HW235554  11.626   0.393   8.773
11183SOL     OW35555   0.003   5.959   9.019
11183SOL    HW135556  11.109   5.982   9.084
11183SOL    HW235557  11.092  16.985   8.938
11184SOL     OW35558   2.336   1.390   8.721
11184SOL    HW135559 -30.807   1.467   8.671
11184SOL    HW235560   2.312   1.411  -2.228
11185SOL     OW35561   3.680   9.999   7.262
11185SOL    HW135562  -7.392   9.947   7.336
11185SOL    HW235563   3.743  10.059   7.302
11186SOL     OW35564   7.815   6.493   2.054
11186SOL    HW135565  -3.172   6.544   1.993
11186SOL    HW235566   7.840   6.526  13.180
11187SOL     OW35567   1.342   2.663  -0.478
11187SOL    HW135568   1.286   2.694  -0.549
11187SOL    HW235569   1.415  -8.315  10.564
11188SOL     OW35570   8.434   7.698   4.558
11188SOL    HW135571   8.355   7.752   4.565
11188SOL    HW235572   8.404   7.608  -6.468
11189SOL     OW35573   0.665   3.015   7.982
11189SOL    HW135574   0.727   2.942   7.976
11189SOL    HW235575   0.721  14.133   7.985
11190SOL     OW35576   1.160   9.939  10.414
11190SOL    HW135577   1.185 -12.053  10.447
11190SOL    HW235578   1.243   9.896  10.396
11191SOL     OW35579   7.998   8.577   2.733
11191SOL    HW135580   7.970  19.586   2.646
11191SOL    HW235581   7.953  19.558   2.794
11192SOL     OW35582   3.028  -1.071   2.595
11192SOL    HW135583   3.017  32.020  13.543
11192SOL    HW235584   2.969  -0.996   2.604
11193SOL     OW35585   5.265   0.381   5.721
11193SOL    HW135586   5.170   0.375   5.707
11193SOL    HW235587   5.285  11.347   5.778
11194SOL     OW35588  10.267   8.822   8.483
11194SOL    HW135589  10.293   8.909   8.453
11194SOL    HW235590  10.320   8.762   8.431
11195SOL     OW35591   5.401   8.222   4.316
11195SOL    HW135592  16.392  -2.735  15.348
11195SOL    HW235593   5.450  -2.824   4.234
11196SOL     OW35594   9.060   8.503   7.140
11196SOL    HW135595   8.967   8.509   7.164
11196SOL    HW235596   9.106  -2.522  29.302
11197SOL     OW35597   6.416  -0.478   3.565
11197SOL    HW135598  -4.676  32.675  -7.402
11197SOL    HW235599  -4.548  10.620   3.560
11198SOL     OW35600   6.036  -0.016   2.204
11198SOL    HW135601  -4.909  -0.012   2.218
11198SOL    HW235602   6.021  11.076   2.125
11199SOL     OW35603   1.040  -0.841   2.671
11199SOL    HW135604   1.075  32.299   2.584
11199SOL    HW235605  12.157 -11.885   2.727
11200SOL     OW35606  10.679   6.813   5.078
11200SOL    HW135607  10.650  17.929  -6.011
11200SOL    HW235608  10.607  28.829 -39.091
11201SOL     OW35609   5.646  10.215   8.873
11201SOL    HW135610   5.553  -0.819   8.895
11201SOL    HW235611   5.672  10.306   8.858
11202SOL     OW35612   4.057   7.714   4.937
11202SOL    HW135613   4.076   7.793   4.987
11202SOL    HW235614 -28.983   7.701  -6.156
11203SOL     OW35615   7.075   3.838   1.811
11203SOL    HW135616   7.168  -7.182   1.821
11203SOL    HW235617   7.049  -7.151   1.733
11204SOL     OW35618   1.467   8.674  10.142
11204SOL    HW135619   1.508   8.594  10.108
11204SOL    HW235620   1.513   8.745  10.097
11205SOL     OW35621  10.069   7.915   6.076
11205SOL    HW135622  10.015   7.935   5.999
11205SOL    HW235623  10.092   7.823 -16.013
11206SOL     OW35624   6.461   9.417   0.874
11206SOL    HW135625   6.543  -1.603   0.919
11206SOL    HW235626  17.485   9.324   0.892
11207SOL     OW35627   5.128   5.947   0.176
11207SOL    HW135628   5.159   5.976   0.261
11207SOL    HW235629  27.221   5.853   0.175
11208SOL     OW35630  10.393   6.407   0.815
11208SOL    HW135631  10.487   6.390  22.905
11208SOL    HW235632  21.418   6.397   0.721
11209SOL     OW35633   4.502   2.304  10.628
11209SOL    HW135634   4.546   2.273  -0.491
11209SOL    HW235635   4.435   2.239  -0.394
11210SOL     OW35636   4.235   5.591   0.908
11210SOL    HW135637   4.288   5.521   0.946
11210SOL    HW235638   4.284   5.618   0.830
11211SOL     OW35639   3.015   1.538   4.417
11211SOL    HW135640   3.097   1.566   4.376
11211SOL    HW235641   3.042   1.499 -17.579
11212SOL     OW35642   1.235   6.488   7.604
11212SOL    HW135643   1.260   6.508  18.734
11212SOL    HW235644  12.236   6.401   7.609
11213SOL     OW35645   9.867   3.010   7.677
11213SOL    HW135646   9.787   2.965  -3.387
11213SOL    HW235647   9.868   3.009  -3.267
11214SOL     OW35648   9.452   3.329   4.490
11214SOL    HW135649   9.531   3.309   4.439
11214SOL    HW235650  -1.659   3.294   4.437
11215SOL     OW35651   6.464  -0.230   2.490
11215SOL    HW135652  17.513  -0.162   2.556
11215SOL    HW235653   6.508  10.733   2.528
11216SOL     OW35654   6.633   0.323   2.252
11216SOL    HW135655   6.583   0.396  -8.825
11216SOL    HW235656   6.569   0.276   2.306
11217SOL     OW35657   6.902   1.521   2.805
11217SOL    HW135658   6.914  -9.502   2.711
11217SOL    HW235659   6.991   1.518   2.840
11218SOL     OW35660   8.312   2.905  10.670
11218SOL    HW135661   8.224   2.909 -11.444
11218SOL    HW235662  19.351   2.829  -0.311
11219SOL     OW35663   0.390  10.750   2.453
11219SOL    HW135664   0.430  10.672   2.416
11219SOL    HW235665   0.391  10.736   2.547
11220SOL     OW35666   2.590   9.621  -1.300
11220SOL    HW135667   2.643  -1.394  -1.224
11220SOL    HW235668   2.640  20.591  42.815
11221SOL     OW35669  11.262   7.178   1.212
11221SOL    HW135670 -10.803  18.285  -9.894
11221SOL    HW235671  11.185   7.130   1.182
11222SOL     OW35672   7.259   2.312   6.964
11222SOL    HW135673  40.296   2.269   6.987
11222SOL    HW235674   7.232   2.397   6.928
11223SOL     OW35675   8.713   9.814   0.137
11223SOL    HW135676   8.692  -1.302   0.190
11223SOL    HW235677   8.733 -34.276   0.200
11224SOL     OW35678   2.850   6.002   0.841
11224SOL    HW135679   2.888   5.920   0.872
11224SOL    HW235680   2.812   5.982  11.795
11225SOL     OW35681   5.308  10.718   9.623
11225SOL    HW135682   5.322  10.628  -1.388
11225SOL    HW235683   5.332  10.718  31.609
11226SOL     OW35684   6.395   0.218   0.043
11226SOL    HW135685   6.451  11.282  22.049
11226SOL    HW235686   6.332   0.156  11.046
11227SOL     OW35687   1.330   9.104   2.705
11227SOL    HW135688   1.289   9.017   2.706
11227SOL    HW235689  -9.639  -1.944  -8.399
11228SOL     OW35690   6.650   5.393   8.092
11228SOL    HW135691   6.612   5.472   8.131
11228SOL    HW235692  17.782   5.416   8.076
11229SOL     OW35693   7.992   6.518  10.602
11229SOL    HW135694  -3.031  -4.562  -0.352
11229SOL    HW235695   7.899 -15.574  10.587
11230SOL     OW35696   6.194   2.703   3.760
11230SOL    HW135697  17.277  -8.418   3.786
11230SOL    HW235698   6.199   2.703 -18.415
11231SOL     OW35699   8.401   5.192   5.945
11231SOL    HW135700   8.312   5.227 -16.123
11231SOL    HW235701   8.442  16.291   5.882
11232SOL     OW35702   9.451   4.389   2.992
11232SOL    HW135703   9.459  15.503   3.052
11232SOL    HW235704   9.412  15.359   3.044
11233SOL     OW35705   4.666   2.091   1.647
11233SOL    HW135706  -6.364   2.185   1.633
11233SOL    HW235707  -6.425  24.164  -9.312
11234SOL     OW35708  11.144   6.531   4.560
11234SOL    HW135709  11.222   6.478   4.571
11234SOL    HW235710 -10.903  17.660   4.550
11235SOL     OW35711   1.425   3.543   5.396
11235SOL    HW135712   1.380   3.493   5.464
11235SOL    HW235713  12.472   3.482  16.362
11236SOL     OW35714   8.902   6.521   1.153
11236SOL    HW135715  -2.053   6.562   1.172
11236SOL    HW235716   8.898   6.517  -9.982
11237SOL     OW35717   8.750   3.012  10.244
11237SOL    HW135718   8.817   3.034  10.180
11237SOL    HW235719  -2.246   2.952  10.305
11238SOL     OW35720   5.382   1.013   5.573
11238SOL    HW135721  -5.698   0.978   5.493
11238SOL    HW235722   5.378 -10.099  -5.404
11239SOL     OW35723   9.284   6.824   8.926
11239SOL    HW135724 -12.759   6.741  19.998
11239SOL    HW235725   9.338   6.845   8.849
11240SOL     OW35726   6.430   6.570   0.411
11240SOL    HW135727   6.345   6.590   0.372
11240SOL    HW235728   6.454   6.485   0.373
11241SOL     OW35729   8.430   5.949   7.499
11241SOL    HW135730   8.517  -5.105  18.576
11241SOL    HW235731   8.441   5.930   7.405
11242SOL     OW35732   7.742   7.614  10.454
11242SOL    HW135733   7.646  -3.423  -0.583
11242SOL    HW235734   7.768  -3.449 -11.536
11243SOL     OW35735   1.920   1.691   0.383
11243SOL    HW135736   1.918   1.671  11.517
11243SOL    HW235737   1.906   1.607   0.340
11244SOL     OW35738   2.154   5.904   3.636
11244SOL    HW135739   2.209 -27.262 -18.381
11244SOL    HW235740  -8.908   5.985   3.682
11245SOL     OW35741   6.683  -1.421   0.140
11245SOL    HW135742   6.672  31.776   0.193
11245SOL    HW235743   6.622  -1.484   0.177
11246SOL     OW35744   2.277   4.445  10.523
11246SOL    HW135745   2.317   4.459  -0.431
11246SOL    HW235746   2.338   4.388  10.477
11247SOL     OW35747   7.295   2.704   7.599
11247SOL    HW135748   7.349   2.706   7.678
11247SOL    HW235749  18.294   2.790   7.596
11248SOL     OW35750  11.536   1.884   8.496
11248SOL    HW135751  22.649   1.834 -24.587
11248SOL    HW235752 -10.568  24.023   8.566
11249SOL     OW35753   9.451  -0.953   3.799
11249SOL    HW135754   9.360  21.151   3.812
11249SOL    HW235755  -1.544  10.169   3.778
11250SOL     OW35756  10.377   2.242   5.134
11250SOL    HW135757  10.349  13.275   5.043
11250SOL    HW235758  10.301   2.276   5.180
11251SOL     OW35759   4.540  10.911   8.557
11251SOL    HW135760  15.609  -0.220   8.563
11251SOL    HW235761   4.615  10.962   8.587
11252SOL     OW35762   1.311   1.182   2.928
11252SOL    HW135763  -9.805   1.237 -19.130
11252SOL    HW235764  -9.765   1.098   2.903
11253SOL     OW35765   8.770  10.758   0.210
11253SOL    HW135766   8.782  10.751   0.305
11253SOL    HW235767   8.696  10.817   0.199
11254SOL     OW35768  10.619   2.466   4.435
11254SOL    HW135769  -0.384   2.552   4.415
11254SOL    HW235770  10.621   2.462   4.531
11255SOL     OW35771   6.547   9.296  -0.734
11255SOL    HW135772   6.590   9.322  21.427
11255SOL    HW235773  17.625   9.352  65.437
11256SOL     OW35774   9.355   1.593   2.390
11256SOL    HW135775   9.296   1.651  24.421
11256SOL    HW235776 -12.676   1.546  57.520
11257SOL     OW35777   6.008   9.774   7.830
11257SOL    HW135778   6.096  31.889   7.843
11257SOL    HW235779   6.020   9.707   7.762
11258SOL     OW35780   9.072   3.260   6.655
11258SOL    HW135781 -13.034   3.298   6.571
11258SOL    HW235782 -13.048   3.315   6.721
11259SOL     OW35783  -0.576   9.590   5.930
11259SOL    HW135784  21.454  20.570   5.873
11259SOL    HW235785  -0.541 -12.423  -5.170
11260SOL     OW35786   7.157  10.926   6.450
11260SOL    HW135787   7.234  10.895   6.497
11260SOL    HW235788   7.187  -0.099   6.361
11261SOL     OW35789   1.074   2.165   3.997
11261SOL    HW135790   1.128  24.322   3.986
11261SOL    HW235791   1.034  35.294 -17.996
11262SOL     OW35792   8.379   2.853   8.244
11262SOL    HW135793  19.400  -8.157   8.155
11262SOL    HW235794   8.339   2.767   8.250
11263SOL     OW35795   0.925   1.783   9.030
11263SOL    HW135796   0.840   1.825   9.017
11263SOL    HW235797 -10.064  -9.231   8.954
11264SOL     OW35798   5.600   2.771   6.066
11264SOL    HW135799   5.566   2.849  -5.017
11264SOL    HW235800   5.674   2.802   6.118
11265SOL     OW35801  12.028   1.561  10.029
11265SOL    HW135802 -43.176  12.696  10.023
11265SOL    HW235803 -10.073   1.541  10.120
11266SOL     OW35804   0.622  10.004   1.941
11266SOL    HW135805   0.665   9.935  12.931
11266SOL    HW235806 -10.505 -34.147   1.903
11267SOL     OW35807   1.401   7.267  11.410
11267SOL    HW135808  12.536   7.266  11.413
11267SOL    HW235809   1.380  18.275   0.283
11268SOL     OW35810   2.312   1.827   1.311
11268SOL    HW135811  35.383   1.867   1.384
11268SOL    HW235812  -8.742   1.886   1.237
11269SOL     OW35813   0.701   4.878   4.652
11269SOL    HW135814   0.703   4.973   4.641
11269SOL    HW235815  11.702   4.845   4.570
11270SOL     OW35816  -0.358   1.557  10.909
11270SOL    HW135817  10.620  23.689  -0.182
11270SOL    HW235818  -0.328  -9.550  10.848
11271SOL     OW35819   6.888   4.381   7.125
11271SOL    HW135820  17.902  -6.614   7.206
11271SOL    HW235821   6.975   4.345   7.144
11272SOL     OW35822   1.796   5.061   5.821
11272SOL    HW135823   1.880 -16.996   5.861
11272SOL    HW235824   1.764   4.987   5.872
11273SOL     OW35825   8.160   5.217   9.080
11273SOL    HW135826   8.176   5.124   9.070
11273SOL    HW235827  30.270  -5.802  -1.872
11274SOL     OW35828   8.010   5.744   7.974
11274SOL    HW135829   7.917   5.758  18.998
11274SOL    HW235830   8.046  -5.208   7.986
11275SOL     OW35831   4.588   4.886   3.093
11275SOL    HW135832   4.649   4.906  36.141
11275SOL    HW235833  15.569   4.821  -7.984
11276SOL     OW35834   0.174  10.196  10.557
11276SOL    HW135835   0.184  21.142  -0.502
11276SOL    HW235836  11.294  10.236  10.526
11277SOL     OW35837   7.351   6.463  13.010
11277SOL    HW135838   7.420   6.476 -20.044
11277SOL    HW235839   7.300   6.543  -9.067
11278SOL     OW35840   2.779   3.953  10.236
11278SOL    HW135841   2.765 -18.221  10.230
11278SOL    HW235842   2.863   3.961  10.281
11279SOL     OW35843  10.178   6.405   8.155
11279SOL    HW135844  10.230  17.455   8.235
11279SOL    HW235845  -0.814   6.454   8.089
11280SOL     OW35846   9.063   9.069   8.636
11280SOL    HW135847  -1.990   8.976  -2.421
11280SOL    HW235848   9.011   9.087  -2.325
11281SOL     OW35849   1.702  11.162   5.373
11281SOL    HW135850  12.650  11.181   5.353
11281SOL    HW235851   1.750 -10.882   5.298
11282SOL     OW35852   4.327   3.222   2.984
11282SOL    HW135853  15.376   3.147   3.043
11282SOL    HW235854   4.264   3.279   3.028
11283SOL     OW35855   7.746   3.255   2.930
11283SOL    HW135856   7.677   3.193  -8.136
11283SOL    HW235857  18.866   3.203  -8.111
11284SOL     OW35858   5.002   4.342   9.071
11284SOL    HW135859  16.096   4.403   9.120
11284SOL    HW235860  27.094   4.258   9.116
11285SOL     OW35861   0.149  10.220   9.757
11285SOL    HW135862  22.289 -11.880   9.828
11285SOL    HW235863   0.163  10.152   9.692
11286SOL     OW35864   6.073   2.080   3.098
11286SOL    HW135865   6.112   2.125  14.063
11286SOL    HW235866   6.103   1.989   3.089
11287SOL     OW35867   3.442   1.006   5.266
11287SOL    HW135868   3.440   1.053   5.349
11287SOL    HW235869   3.430   1.073 -27.919
11288SOL     OW35870   6.041   6.115   1.958
11288SOL    HW135871  -5.079  28.160   1.997
11288SOL    HW235872   6.072   6.044   1.901
11289SOL     OW35873   6.671   9.928   7.237
11289SOL    HW135874  28.688  20.915  -3.752
11289SOL    HW235875  17.657   9.972  29.250
11290SOL     OW35876   9.286   6.235   2.239
11290SOL    HW135877   9.320   6.180   2.169
11290SOL    HW235878   9.261  -4.722   2.196
11291SOL     OW35879  -0.250   0.245   5.589
11291SOL    HW135880  10.752  11.343  16.694
11291SOL    HW235881  -0.250   0.296 -16.571
11292SOL     OW35882   6.967   5.855  10.720
11292SOL    HW135883   6.896   5.897  -0.270
11292SOL    HW235884   6.953   5.761  10.734
11293SOL     OW35885   1.633   0.565   1.734
11293SOL    HW135886   1.612   0.645   1.781
11293SOL    HW235887   1.705  33.708   1.676
11294SOL     OW35888   3.878   7.967   7.431
11294SOL    HW135889   3.844   7.973   7.521
11294SOL    HW235890   3.815  18.951   7.385
11295SOL     OW35891   0.448   3.895  10.387
11295SOL    HW135892   0.358   3.871  10.366
11295SOL    HW235893   0.502   3.830  10.342
11296SOL     OW35894   2.943   0.065  10.551
11296SOL    HW135895   2.975   0.088  10.638
11296SOL    HW235896  13.901   0.113  10.542
11297SOL     OW35897   7.893   1.255   6.509
11297SOL    HW135898   7.858  -9.820  17.630
11297SOL    HW235899   7.896   1.181   6.449
11298SOL     OW35900   9.343   7.856   7.892
11298SOL    HW135901   9.304  18.842   7.961
11298SOL    HW235902  -1.694   7.798   7.816
11299SOL     OW35903  -0.069   5.707  10.363
11299SOL    HW135904  11.013   5.761  10.297
11299SOL    HW235905  10.877   5.719 -11.732
11300SOL     OW35906   0.588   1.174   4.671
11300SOL    HW135907  22.583   1.174  26.794
11300SOL    HW235908 -10.396  -9.809   4.725
11301SOL     OW35909   8.654   2.681   5.907
11301SOL    HW135910   8.577  24.705   5.894
11301SOL    HW235911  41.846  13.670   5.871
11302SOL     OW35912   4.973   6.072  10.438
11302SOL    HW135913   5.017  -5.053  10.442
11302SOL    HW235914   4.881   6.052  10.456
11303SOL     OW35915   4.449   6.686   1.994
11303SOL    HW135916  37.657   6.663  24.049
11303SOL    HW235917  15.498 -15.336   2.070
11304SOL     OW35918  -0.304   2.047   7.919
11304SOL    HW135919  10.802  13.028 -14.124
11304SOL    HW235920  21.780   2.034   7.824
11305SOL     OW35921   6.033  -1.853   6.514
11305SOL    HW135922   6.040  -1.816   6.426
11305SOL    HW235923   5.939  31.269   6.533
11306SOL     OW35924   4.577   1.612   7.142
11306SOL    HW135925   4.492   1.605   7.098
11306SOL    HW235926  -6.406   1.552   7.094
11307SOL     OW35927   5.910  10.617   6.411
11307SOL    HW135928  -5.039  10.628   6.381
11307SOL    HW235929   5.860  10.607   6.330
11308SOL     OW35930   3.589   8.926   2.912
11308SOL    HW135931 -18.558   8.890  -8.184
11308SOL    HW235932   3.668   8.878 -30.232
11309SOL     OW35933   6.124   7.078   7.522
11309SOL    HW135934   6.033   7.052  29.589
11309SOL    HW235935  17.213   6.997   7.507
11310SOL     OW35936   2.556   9.260   0.018
11310SOL    HW135937  13.502   9.241  11.067
11310SOL    HW235938  13.607  -1.694   0.060
11311SOL     OW35939   7.954   2.780   6.830
11311SOL    HW135940   7.884   2.745   6.885
11311SOL    HW235941  -3.028   2.705   6.813
11312SOL     OW35942  11.954   0.052   6.206
11312SOL    HW135943  11.861   0.039   6.187
11312SOL    HW235944 -10.117  11.075   6.300
11313SOL     OW35945   1.889  -0.114   2.221
11313SOL    HW135946   1.841  10.844  24.309
11313SOL    HW235947   1.853  10.966  24.221
11314SOL     OW35948   8.514   8.830   5.991
11314SOL    HW135949   8.494   8.919   6.022
11314SOL    HW235950  -2.432   8.821   6.004
11315SOL     OW35951   5.023   9.354   3.148
11315SOL    HW135952  27.058   9.296  14.124
11315SOL    HW235953  38.087  -1.690   3.226
11316SOL     OW35954   5.369  -4.190   7.655
11316SOL    HW135955   5.323  28.975  18.624
11316SOL    HW235956  -5.730  39.897  40.798
11317SOL     OW35957   6.898   7.293   7.837
11317SOL    HW135958   6.831  -3.795  18.827
11317SOL    HW235959  -4.060   7.249  29.895
11318SOL     OW35960   6.036   0.376   6.862
11318SOL    HW135961   6.009   0.339   6.946
11318SOL    HW235962   5.954   0.398   6.817
11319SOL     OW35963   3.888   5.893   3.410
11319SOL    HW135964   3.916 -16.193   3.502
11319SOL    HW235965   3.901  27.884 -18.704
11320SOL     OW35966   8.992   0.882  11.319
11320SOL    HW135967   8.903   0.913   0.266
11320SOL    HW235968   9.046   0.944  11.270
11321SOL     OW35969  -1.568   2.893   4.306
11321SOL    HW135970  31.575  13.926   4.398
11321SOL    HW235971  -1.528   2.817   4.265
11322SOL     OW35972   1.643   8.042   6.167
11322SOL    HW135973   1.658   8.018   6.258
11322SOL    HW235974   1.643  -3.081   6.120
11323SOL     OW35975  -0.795   7.312   6.673
11323SOL    HW135976  -0.821  40.341  17.691
11323SOL    HW235977  76.498  29.389   6.768
11324SOL     OW35978   3.529   5.843   7.878
11324SOL    HW135979  14.634   5.908   7.903
11324SOL    HW235980   3.467 -27.277 -14.128
11325SOL     OW35981   1.930   1.661   0.944
11325SOL    HW135982   1.855   1.608   0.970
11325SOL    HW235983   1.978   1.676   1.026
11326SOL     OW35984   9.746   7.516   5.686
11326SOL    HW135985   9.782   7.446   5.742
11326SOL    HW235986   9.774   7.492   5.598
11327SOL     OW35987   8.572   7.503   2.681
11327SOL    HW135988 -13.506  29.676   2.698
11327SOL    HW235989   8.484   7.474   2.708
11328SOL     OW35990   2.722   5.963   7.639
11328SOL    HW135991 -19.408   5.991   7.716
11328SOL    HW235992 -19.270   5.943   7.674
11329SOL     OW35993   1.165   5.612   1.824
11329SOL    HW135994   1.096  16.586   1.828
11329SOL    HW235995  12.198   5.649   1.736
11330SOL     OW35996   5.947   6.302   7.649
11330SOL    HW135997 -16.208 -15.832  51.785
11330SOL    HW235998  -5.018 -15.836   7.644
11331SOL     OW35999   0.420  10.819  10.761
11331SOL    HW136000   0.374  10.756  10.705
11331SOL    HW236001  11.549  10.820  10.726
11332SOL     OW36002   8.189  10.170   1.447
11332SOL    HW136003   8.130 -11.865   1.387
11332SOL    HW236004   8.140  10.095   1.479
11333SOL     OW36005  -1.989   8.901   3.585
11333SOL    HW136006  20.159 -13.155  -7.392
11333SOL    HW236007  20.009   8.930   3.628
11334SOL     OW36008   2.563  10.987   4.287
11334SOL    HW136009  -8.465  11.079   4.313
11334SOL    HW236010 -19.466  10.937  15.391
11335SOL     OW36011   3.719   8.515  -2.100
11335SOL    HW136012   3.737   8.489  20.069
11335SOL    HW236013  -7.238  30.582  30.973
11336SOL     OW36014   6.259   4.934   2.099
11336SOL    HW136015   6.174   4.917   2.141
11336SOL    HW236016   6.290   4.847 -20.006
11337SOL     OW36017   1.245   8.354   0.452
11337SOL    HW136018   1.229   8.440  11.452
11337SOL    HW236019   1.290   8.374  33.653
11338SOL     OW36020   0.095  10.684   5.018
11338SOL    HW136021  11.124  10.734   5.099
11338SOL    HW236022   0.175 -11.361   4.979
11339SOL     OW36023   7.741   7.722   5.648
11339SOL    HW136024  51.917   7.730   5.555
11339SOL    HW236025  -3.214  -3.299 -16.389
11340SOL     OW36026   1.401   9.711  -0.018
11340SOL    HW136027   1.403  20.754  11.117
11340SOL    HW236028  -9.684   9.629  22.041
11341SOL     OW36029   1.459   2.069   1.966
11341SOL    HW136030  12.510   2.140   2.029
11341SOL    HW236031   1.548   2.042 -20.136
11342SOL     OW36032   4.913   0.659   9.144
11342SOL    HW136033   4.836 -10.417   9.187
11342SOL    HW236034   4.936   0.735  -1.843
11343SOL     OW36035   4.790   8.801   7.764
11343SOL    HW136036   4.732   8.732   7.796
11343SOL    HW236037   4.858  -2.284   7.716
11344SOL     OW36038  -2.132   2.494   1.185
11344SOL    HW136039  19.911   2.456   1.265
11344SOL    HW236040  31.061   2.437  -9.876
11345SOL     OW36041   2.109   4.498   4.883
11345SOL    HW136042  13.188   4.482  15.837
11345SOL    HW236043  24.094   4.493  37.986
11346SOL     OW36044   1.633   3.159   7.250
11346SOL    HW136045   1.679   3.238   7.278
11346SOL    HW236046   1.570   3.188  18.224
11347SOL     OW36047  10.187   7.450   0.904
11347SOL    HW136048 -11.917   7.363   0.875
11347SOL    HW236049  10.227   7.490 -10.213
11348SOL     OW36050   4.680   4.386   4.435
11348SOL    HW136051   4.764   4.342   4.426
11348SOL    HW236052  -6.356  -6.582  26.450
11349SOL     OW36053   3.644   1.360   6.346
11349SOL    HW136054  -7.372  34.508   6.434
11349SOL    HW236055   3.643   1.264   6.353
11350SOL     OW36056   6.683   8.436   4.035
11350SOL    HW136057 -15.359  30.561   3.959
11350SOL    HW236058  -4.413   8.501  -6.963
11351SOL     OW36059   8.968   0.181   7.055
11351SOL    HW136060  20.068   0.242   7.013
11351SOL    HW236061   9.024   0.111   7.089
11352SOL     OW36062  11.838   2.820   4.017
11352SOL    HW136063   0.764   2.844   3.931
11352SOL    HW236064 -10.306   2.853   4.079
11353SOL     OW36065   4.473   0.779   8.122
11353SOL    HW136066   4.432   0.711   8.068
11353SOL    HW236067   4.565   0.778   8.097
11354SOL     OW36068   3.989   0.760   6.345
11354SOL    HW136069   4.019   0.669  17.382
11354SOL    HW236070   4.069   0.811  -4.700
11355SOL     OW36071   1.308   7.316   6.259
11355SOL    HW136072 -20.818   7.318   6.342
11355SOL    HW236073   1.270  29.466   6.207
11356SOL     OW36074  11.016   8.607   4.574
11356SOL    HW136075  11.004   8.677   4.638
11356SOL    HW236076 -22.155   8.534  -6.433
11357SOL     OW36077   0.404   8.198   9.401
11357SOL    HW136078   0.486  19.199   9.431
11357SOL    HW236079   0.342   8.124   9.400
11358SOL     OW36080   8.157   0.714   0.309
11358SOL    HW136081   8.128   0.780   0.372
11358SOL    HW236082  30.172   0.643  11.358
11359SOL     OW36083  -1.130   2.937   6.060
11359SOL    HW136084  -1.093   2.887   6.133
11359SOL    HW236085  20.985   3.025   6.070
11360SOL     OW36086   8.011   1.271   7.063
11360SOL    HW136087   8.020   1.227   7.148
11360SOL    HW236088  29.998  23.376  29.138
11361SOL     OW36089   6.267   0.617   8.799
11361SOL    HW136090   6.326   0.602   8.726
11361SOL    HW236091   6.187   0.652   8.759
11362SOL     OW36092   7.240   2.026   4.052
11362SOL    HW136093 -14.917   2.061   4.095
11362SOL    HW236094   7.305   2.017   4.122
11363SOL     OW36095   2.076   9.176  10.643
11363SOL    HW136096   2.009  20.251  10.700
11363SOL    HW236097 -31.017  20.290  10.588
11364SOL     OW36098   2.688   2.821   7.898
11364SOL    HW136099  35.827   2.730   7.919
11364SOL    HW236100  35.890   2.857  18.905
11365SOL     OW36101   5.322   2.431  -1.112
11365SOL    HW136102   5.404   2.475   9.907
11365SOL    HW236103   5.256   2.476  31.954
11366SOL     OW36104   0.200   3.931   9.046
11366SOL    HW136105   0.168  14.934  -1.911
11366SOL    HW236106   0.233   3.855   8.997
11367SOL     OW36107  -0.465   1.951   6.349
11367SOL    HW136108  -0.457  13.083 -15.709
11367SOL    HW236109  10.550   1.909  50.589
11368SOL     OW36110   5.448   5.987   6.459
11368SOL    HW136111  27.586   5.965   6.387
11368SOL    HW236112  38.618   5.969  -4.501
11369SOL     OW36113   1.873  -1.127   6.101
11369SOL    HW136114   1.918  -1.119  28.096
11369SOL    HW236115   1.939  20.977   6.166
11370SOL     OW36116   9.175   5.295  10.641
11370SOL    HW136117   9.209 -16.776  10.552
11370SOL    HW236118   9.083 -16.806  10.629
11371SOL     OW36119   6.089   1.757   8.193
11371SOL    HW136120   6.092   1.852   8.195
11371SOL    HW236121  -5.034  -9.303   8.151
11372SOL     OW36122   8.868   8.298   2.037
11372SOL    HW136123   8.805  19.374   1.976
11372SOL    HW236124   8.918  30.453   2.068
11373SOL     OW36125  10.452   6.282   4.035
11373SOL    HW136126  10.438  17.322   4.130
11373SOL    HW236127  10.447   6.374   4.010
11374SOL     OW36128   9.877   5.356   8.167
11374SOL    HW136129   9.970   5.339   8.152
11374SOL    HW236130  -1.200   5.270   8.185
11375SOL     OW36131   8.623   9.729   2.082
11375SOL    HW136132   8.558   9.799   2.071
11375SOL    HW236133  -2.457   9.652   2.043
11376SOL     OW36134   9.704   8.651   0.200
11376SOL    HW136135   9.705  19.786   0.206
11376SOL    HW236136  31.833  19.662   0.277
11377SOL     OW36137   8.323  10.615   6.048
11377SOL    HW136138   8.299  10.571  50.287
11377SOL    HW236139   8.243  -0.425  -5.044
11378SOL     OW36140   8.924   2.497   8.919
11378SOL    HW136141   8.870   2.544   8.983
11378SOL    HW236142  -2.026   2.507   8.951
11379SOL     OW36143   8.388  10.358   5.741
11379SOL    HW136144  19.477  10.321   5.668
11379SOL    HW236145 -13.720  10.443 -27.408
11380SOL     OW36146  10.147  -1.121  10.706
11380SOL    HW136147  10.141  31.995  10.610
11380SOL    HW236148  10.088  -1.191  10.735
11381SOL     OW36149  10.603   0.657   5.659
11381SOL    HW136150  10.597   0.695   5.572
11381SOL    HW236151  10.636   0.728   5.714
11382SOL     OW36152   8.189  -0.979  11.427
11382SOL    HW136153 -13.887  21.196   0.386
11382SOL    HW236154   8.202  -1.004   0.296
11383SOL     OW36155   7.459   7.373   9.522
11383SOL    HW136156   7.424  18.414   9.433
11383SOL    HW236157  29.463   7.355   9.577
11384SOL     OW36158   9.314   7.843   4.422
11384SOL    HW136159  20.293  29.936   4.350
11384SOL    HW236160   9.294   7.914  -6.556
11385SOL     OW36161   6.407   4.263   2.591
11385SOL    HW136162   6.400   4.329   2.523
11385SOL    HW236163   6.348   4.292   2.661
11386SOL     OW36164   2.132   8.310   5.247
11386SOL    HW136165   2.145   8.399   5.212
11386SOL    HW236166   2.093   8.261   5.174
11387SOL     OW36167   4.802   4.878   6.905
11387SOL    HW136168   4.711   4.866  29.011
11387SOL    HW236169  -6.214 -17.284   6.862
11388SOL     OW36170   4.829  13.507   0.880
11388SOL    HW136171   4.899  -8.637   0.878
11388SOL    HW236172   4.784  -8.583   0.797
11389SOL     OW36173   0.714  11.281   5.015
11389SOL    HW136174   0.636  11.282   4.960
11389SOL    HW236175   0.778 -21.889   4.965
11390SOL     OW36176   1.643   7.957  11.791
11390SOL    HW136177   1.588  18.955 -10.222
11390SOL    HW236178   1.700   8.016  11.841
11391SOL     OW36179   9.835   2.246   4.459
11391SOL    HW136180 -12.306  -8.845   4.511
11391SOL    HW236181   9.885  -8.744   4.524
11392SOL     OW36182   1.616   6.720   6.626
11392SOL    HW136183   1.667  -4.250   6.669
11392SOL    HW236184  34.691   6.765  17.593
11393SOL     OW36185  10.738   8.693   5.118
11393SOL    HW136186  -0.309   8.753   5.192
11393SOL    HW236187  10.680   8.730  27.130
11394SOL     OW36188   0.057   2.886   8.134
11394SOL    HW136189  11.071   2.814   8.190
11394SOL    HW236190   0.047   2.853   8.045
11395SOL     OW36191   6.766  11.194   7.248
11395SOL    HW136192   6.742 -10.804   7.294
11395SOL    HW236193   6.862  11.197   7.244
11396SOL     OW36194   7.417   1.970   9.366
11396SOL    HW136195  18.476   1.888   9.411
11396SOL    HW236196   7.345   2.008 -12.663
11397SOL     OW36197   6.191   0.934   6.899
11397SOL    HW136198   6.193   0.904  -4.049
11397SOL    HW236199   6.168  11.895   6.849
11398SOL     OW36200   6.635   8.519   1.037
11398SOL    HW136201  39.700   8.458   0.987
11398SOL    HW236202   6.700   8.463   1.079
11399SOL     OW36203   7.309   8.385  -0.093
11399SOL    HW136204  29.359   8.309  -0.042
11399SOL    HW236205   7.347   8.444  11.012
11400SOL     OW36206   5.704   1.775   4.182
11400SOL    HW136207 -16.289   1.809 -17.872
11400SOL    HW236208   5.662   1.849  -6.901
11401SOL     OW36209   6.598   8.859   2.079
11401SOL    HW136210  -4.382   8.895   2.013
11401SOL    HW236211   6.539   8.801   2.029
11402SOL     OW36212   2.761   1.004   8.252
11402SOL    HW136213   2.770   1.040 -13.739
11402SOL    HW236214   2.796   0.915   8.259
11403SOL     OW36215   9.973   1.235  10.915
11403SOL    HW136216   9.907   1.295  10.949
11403SOL    HW236217  10.028   1.288  10.858
11404SOL     OW36218   5.245   6.897   7.433
11404SOL    HW136219   5.180   6.947  -3.556
11404SOL    HW236220   5.199   6.869   7.354
11405SOL     OW36221   2.265   0.022   4.651
11405SOL    HW136222 -30.930  -0.001   4.703
11405SOL    HW236223   2.233   0.027   4.561
11406SOL     OW36224   0.219   3.087   8.228
11406SOL    HW136225   0.176  25.093   8.185
11406SOL    HW236226   0.306   3.091   8.188
11407SOL     OW36227   7.692   0.401   1.287
11407SOL    HW136228  18.777  22.477   1.202
11407SOL    HW236229  -3.437  44.531   1.267
11408SOL     OW36230   2.661   9.791   0.299
11408SOL    HW136231   2.712   9.712  11.357
11408SOL    HW236232   2.571  20.806  11.358
11409SOL     OW36233   7.097  -1.011   4.569
11409SOL    HW136234  18.227  21.088 -17.535
11409SOL    HW236235   7.094  -0.994   4.663
11410SOL     OW36236   3.995   6.434   1.834
11410SOL    HW136237   3.922   6.495   1.827
11410SOL    HW236238   4.039  17.478  23.828
11411SOL     OW36239   6.242   5.705   0.260
11411SOL    HW136240   6.287   5.745   0.186
11411SOL    HW236241   6.169   5.764   0.278
11412SOL     OW36242   4.808   3.151   2.294
11412SOL    HW136243   4.863  -7.929   2.227
11412SOL    HW236244   4.757   3.217   2.247
11413SOL     OW36245   2.594   1.806   8.873
11413SOL    HW136246   2.561   1.881   8.923
11413SOL    HW236247 -30.434   1.827 -13.225
11414SOL     OW36248   1.032  10.886   1.388
11414SOL    HW136249   1.086  10.879   1.467
11414SOL    HW236250   0.982  10.804  -9.654
11415SOL     OW36251   7.662   3.178   3.819
11415SOL    HW136252  -3.419   3.247   3.768
11415SOL    HW236253   7.589   3.124  14.890
11416SOL     OW36254   6.745   0.902   7.819
11416SOL    HW136255  -4.359   0.972   7.830
11416SOL    HW236256   6.807   0.937   7.755
11417SOL     OW36257   5.497   1.760   1.634
11417SOL    HW136258   5.526  12.882   1.672
11417SOL    HW236259   5.538   1.757   1.548
11418SOL     OW36260   2.403   6.009   6.213
11418SOL    HW136261   2.450   5.926   6.224
11418SOL    HW236262 -30.658   6.075   6.251
11419SOL     OW36263   9.157   6.564   9.664
11419SOL    HW136264   9.245   6.564   9.626
11419SOL    HW236265   9.169  17.638  20.792
11420SOL     OW36266   3.017  10.707   2.961
11420SOL    HW136267  -7.934  10.744   2.961
11420SOL    HW236268   3.005  10.675  -7.989
11421SOL     OW36269   2.267   4.661  10.805
11421SOL    HW136270   2.341   4.627  10.753
11421SOL    HW236271   2.240   4.740  10.758
11422SOL     OW36272   1.182   6.665   9.181
11422SOL    HW136273   1.165  17.696   9.274
11422SOL    HW236274   1.234   6.587   9.159
11423SOL     OW36275   2.633   3.382   6.595
11423SOL    HW136276   2.710   3.437   6.608
11423SOL    HW236277   2.573  25.487  17.705
11424SOL     OW36278   6.808  -0.403   6.988
11424SOL    HW136279  17.914  -0.454   7.034
11424SOL    HW236280   6.727  10.586  18.039
11425SOL     OW36281  10.144   5.385   7.704
11425SOL    HW136282  10.216  -5.662  -3.398
11425SOL    HW236283  10.125   5.479   7.707
11426SOL     OW36284   8.474  -0.819  10.431
11426SOL    HW136285  -2.559  10.134  10.471
11426SOL    HW236286  -2.643  10.215  10.375
11427SOL     OW36287   8.621   1.710   8.151
11427SOL    HW136288   8.642   1.796  -2.852
11427SOL    HW236289   8.630  -9.390   8.224
11428SOL     OW36290   9.477   5.564   2.419
11428SOL    HW136291   9.465   5.605  -8.534
11428SOL    HW236292   9.432  16.661   2.358
11429SOL     OW36293   0.275   2.663   0.787
11429SOL    HW136294   0.216   2.700   0.853
11429SOL    HW236295   0.344  -8.419   0.837
11430SOL     OW36296   5.766   6.888   5.657
11430SOL    HW136297   5.676 -15.177 -27.490
11430SOL    HW236298   5.817  17.930   5.576
11431SOL     OW36299   1.718  -1.076  10.334
11431SOL    HW136300  12.771  -1.164  21.408
11431SOL    HW236301  12.733  21.056  10.410
11432SOL     OW36302   7.709   2.715   6.960
11432SOL    HW136303  18.686   2.667   6.905
11432SOL    HW236304   7.654  13.806   7.019
11433SOL     OW36305   3.931   1.527   4.507
11433SOL    HW136306   3.990   1.589   4.550
11433SOL    HW236307   3.884  34.604   4.579
11434SOL     OW36308   6.438   0.707   7.748
11434SOL    HW136309  17.532 -10.307   7.823
11434SOL    HW236310   6.377  22.859  18.776
11435SOL     OW36311   4.100   1.343   0.467
11435SOL    HW136312   4.028  12.440   0.444
11435SOL    HW236313   4.121  12.404   0.558
11436SOL     OW36314   1.364   1.929   9.217
11436SOL    HW136315   1.274  -9.141  20.267
11436SOL    HW236316  -9.634   1.909   9.301
11437SOL     OW36317   6.522   5.995   1.928
11437SOL    HW136318   6.570   5.956   2.001
11437SOL    HW236319   6.578   5.982   1.852
11438SOL     OW36320   1.575   0.286  10.156
11438SOL    HW136321   1.558   0.192  10.149
11438SOL    HW236322   1.604   0.299  10.246
11439SOL     OW36323   3.720  -0.306   6.285
11439SOL    HW136324   3.681  10.684   6.213
11439SOL    HW236325   3.664  -0.326   6.361
11440SOL     OW36326   4.264   8.264   6.577
11440SOL    HW136327   4.297   8.305   6.498
11440SOL    HW236328   4.169   8.263   6.566
11441SOL     OW36329   3.760   7.816   9.264
11441SOL    HW136330  14.880   7.768   9.284
11441SOL    HW236331  14.770  -3.190   9.348
11442SOL     OW36332  11.545   3.319   0.759
11442SOL    HW136333  11.466  14.361   0.813
11442SOL    HW236334   0.543   3.407   0.768
11443SOL     OW36335   8.597   2.778   7.997
11443SOL    HW136336   8.604   2.750   7.906
11443SOL    HW236337  19.727  13.833 -14.055
11444SOL     OW36338   8.721  -0.595   1.622
11444SOL    HW136339 -24.490  -0.611   1.641
11444SOL    HW236340 -24.363  21.522   1.703
11445SOL     OW36341   2.576   1.195  10.021
11445SOL    HW136342   2.635  12.252  10.094
11445SOL    HW236343   2.629   1.209   9.943
11446SOL     OW36344   5.123   1.164  10.122
11446SOL    HW136345   5.040   1.141  10.081
11446SOL    HW236346   5.190   1.126  10.064
11447SOL     OW36347   4.616   3.232   8.385
11447SOL    HW136348   4.602   3.149 -13.739
11447SOL    HW236349  26.783   3.259  -2.680
11448SOL     OW36350   5.325   7.549   7.872
11448SOL    HW136351 -38.822   7.519 -25.156
11448SOL    HW236352 -16.847  51.693  29.933
11449SOL     OW36353   7.694   2.005   6.121
11449SOL    HW136354  -3.419   1.945   6.138
11449SOL    HW236355   7.760   1.980   6.185
11450SOL     OW36356   1.811   8.876   2.076
11450SOL    HW136357   1.868   8.845   2.006
11450SOL    HW236358   1.731   8.904   2.031
11451SOL     OW36359   9.533   6.780   7.393
11451SOL    HW136360  -1.536   6.689   7.389
11451SOL    HW236361   9.459   6.827   7.432
11452SOL     OW36362   1.976   3.854   6.134
11452SOL    HW136363   1.939   3.775   6.174
11452SOL    HW236364  -8.969   3.839   6.137
11453SOL     OW36365   8.057  11.818   4.054
11453SOL    HW136366   7.994  11.877  15.053
11453SOL    HW236367  -2.899 -21.253   4.050
11454SOL     OW36368   4.628   7.590   8.516
11454SOL    HW136369   4.643 -25.534   8.422
11454SOL    HW236370   4.714   7.579  19.595
11455SOL     OW36371   7.165   3.879   0.131
11455SOL    HW136372   7.206   3.849   0.050
11455SOL    HW236373  18.279   3.908   0.185
11456SOL     OW36374   8.717   4.117  12.134
11456SOL    HW136375   8.662  -6.967  12.070
11456SOL    HW236376 -13.273   4.098  -9.972
11457SOL     OW36377   6.735   6.509  10.351
11457SOL    HW136378  17.799 -15.531  10.267
11457SOL    HW236379  17.840   6.441  10.365
11458SOL     OW36380   4.147   1.651   4.652
11458SOL    HW136381  -6.883   1.731 -17.375
11458SOL    HW236382   4.139   1.581 -17.363
11459SOL     OW36383   2.972   3.699   6.327
11459SOL    HW136384   3.067  14.729   6.340
11459SOL    HW236385   2.935   3.617   6.361
11460SOL     OW36386   7.083   1.082   8.472
11460SOL    HW136387   7.132   1.155   8.508
11460SOL    HW236388   7.150   1.020   8.442
11461SOL     OW36389  -2.080   2.991   9.883
11461SOL    HW136390  42.001   3.047  -1.148
11461SOL    HW236391  31.105   3.047   9.841
11462SOL     OW36392   2.637   5.801   1.743
11462SOL    HW136393   2.618 -27.252 -20.403
11462SOL    HW236394   2.578   5.729   1.723
11463SOL     OW36395   9.799   7.807   1.667
11463SOL    HW136396   9.885  29.843   1.665
11463SOL    HW236397   9.737  18.777   1.644
11464SOL     OW36398   8.078   6.401   3.151
11464SOL    HW136399  -2.945   6.393  -7.983
11464SOL    HW236400   7.999 -15.729   3.166
11465SOL     OW36401   2.393   7.766   0.139
11465SOL    HW136402 -19.776  18.835   0.153
11465SOL    HW236403  -8.607   7.834   0.085
11466SOL     OW36404   7.430   5.677   9.967
11466SOL    HW136405   7.375   5.659   9.891
11466SOL    HW236406   7.416   5.601  10.024
11467SOL     OW36407   0.748  10.341   6.183
11467SOL    HW136408   0.697  10.314  39.379
11467SOL    HW236409  22.762  10.375   6.122
11468SOL     OW36410   9.855   9.066   6.133
11468SOL    HW136411   9.865  -2.033  17.099
11468SOL    HW236412   9.760   9.072   6.146
11469SOL     OW36413   6.775   6.995  10.045
11469SOL    HW136414   6.775   7.082  10.004
11469SOL    HW236415   6.865 -15.114  10.040
11470SOL     OW36416  10.595   2.260   7.996
11470SOL    HW136417  -0.377  24.274   7.976
11470SOL    HW236418 -11.490   2.259   8.091
11471SOL     OW36419   9.295   3.053   2.795
11471SOL    HW136420 -23.740   3.023   2.760
11471SOL    HW236421  -1.723   3.129   2.849
11472SOL     OW36422  10.629  10.044   1.530
11472SOL    HW136423  10.608   9.959  -9.471
11472SOL    HW236424  10.712  -0.971   1.570
11473SOL     OW36425   1.242   3.388  10.305
11473SOL    HW136426  23.273  25.391  10.337
11473SOL    HW236427  23.279   3.463  21.387
11474SOL     OW36428   5.099   6.520   1.590
11474SOL    HW136429   5.191  -4.495   1.584
11474SOL    HW236430  16.136   6.429   1.561
11475SOL     OW36431   8.583   2.557   5.124
11475SOL    HW136432  19.582   2.637   5.089
11475SOL    HW236433  19.716   2.568   5.108
11476SOL     OW36434   1.222   5.668   5.704
11476SOL    HW136435   1.285   5.728   5.744
11476SOL    HW236436   1.212   5.597   5.767
11477SOL     OW36437   4.594   6.019  -1.267
11477SOL    HW136438  -6.446   6.028  31.756
11477SOL    HW236439 -17.405  17.010  -1.248
11478SOL     OW36440   6.313   2.656   5.735
11478SOL    HW136441  28.373   2.674  16.683
11478SOL    HW236442  17.402  13.614   5.734
11479SOL     OW36443   0.463  10.938  10.181
11479SOL    HW136444   0.387  10.995  10.171
11479SOL    HW236445   0.437 -11.223  -0.902
11480SOL     OW36446   2.153   2.637  10.200
11480SOL    HW136447   2.123   2.728  10.191
11480SOL    HW236448   2.246   2.641  10.179
11481SOL     OW36449   5.125   0.331   3.914
11481SOL    HW136450   5.079   0.315   3.996
11481SOL    HW236451   5.155   0.244   3.885
11482SOL     OW36452   6.833   8.686   0.006
11482SOL    HW136453   6.807   8.779   0.008
11482SOL    HW236454   6.928   8.689  -0.002
11483SOL     OW36455   5.229  10.304   8.485
11483SOL    HW136456   5.315  10.287   8.525
11483SOL    HW236457   5.166  21.323  -2.485
11484SOL     OW36458   5.571   7.033   6.852
11484SOL    HW136459   5.583   7.117  17.847
11484SOL    HW236460   5.479   7.033   6.879
11485SOL     OW36461   1.821   3.598   0.929
11485SOL    HW136462   1.852   3.517   0.888
11485SOL    HW236463   1.883  -7.375   0.900
11486SOL     OW36464   7.709   7.828   7.313
11486SOL    HW136465   7.660   7.851  -3.648
11486SOL    HW236466  40.802   7.738   7.294
11487SOL     OW36467   9.624   7.396   3.598
11487SOL    HW136468   9.661  40.444   3.544
11487SOL    HW236469  31.609   7.391   3.582
11488SOL     OW36470   6.369   2.528   0.761
11488SOL    HW136471 -26.831   2.492 -10.243
11488SOL    HW236472   6.344   2.613   0.725
11489SOL     OW36473   7.194   5.157   6.867
11489SOL    HW136474   7.259  -5.916   6.928
11489SOL    HW236475  29.316  -5.807  -4.213
11490SOL     OW36476   8.564   0.483   6.098
11490SOL    HW136477   8.650   0.443   6.101
11490SOL    HW236478  19.545  11.452   6.068
11491SOL     OW36479   9.318   2.642   1.109
11491SOL    HW136480   9.374   2.697   1.163
11491SOL    HW236481   9.331  13.593  12.182
11492SOL     OW36482   9.078   7.324   5.711
11492SOL    HW136483 -13.048   7.408   5.705
11492SOL    HW236484   9.077   7.290   5.621
11493SOL     OW36485   5.222   7.882   0.257
11493SOL    HW136486   5.137   7.869  11.339
11493SOL    HW236487   5.222   7.819   0.184
11494SOL     OW36488   2.690   2.999  10.964
11494SOL    HW136489  13.643  -8.036  10.922
11494SOL    HW236490   2.720   2.909  10.946
11495SOL     OW36491   9.961   6.873   0.585
11495SOL    HW136492   9.954   6.964   0.616
11495SOL    HW236493   9.891  28.906  22.709
11496SOL     OW36494   6.243   6.346  -0.344
11496SOL    HW136495   6.231   6.402  10.772
11496SOL    HW236496   6.337   6.344  -0.358
11497SOL     OW36497   4.196   4.561  11.404
11497SOL    HW136498 -17.961   4.617   0.366
11497SOL    HW236499  -6.797   4.582   0.446
11498SOL     OW36500   5.111   0.476   9.079
11498SOL    HW136501   5.048   0.545  20.138
11498SOL    HW236502  16.178  11.533   8.989
11499SOL     OW36503   8.024   2.183   1.772
11499SOL    HW136504   8.067  -8.879  12.729
11499SOL    HW236505  -3.042  -8.765   1.761
11500SOL     OW36506   2.093   1.336   5.649
11500SOL    HW136507  -9.038   1.311  16.675
11500SOL    HW236508  -8.951   1.420   5.694
11501SOL     OW36509   0.626  10.344   0.148
11501SOL    HW136510   0.590  10.256   0.145
11501SOL    HW236511   0.574  10.389  22.294
11502SOL     OW36512  13.522   8.308   6.308
11502SOL    HW136513 -41.743   8.239  39.424
11502SOL    HW236514   2.534   8.287   6.386
11503SOL     OW36515   9.558   2.298   8.538
11503SOL    HW136516   9.470  -8.778  -2.498
11503SOL    HW236517   9.591   2.273 -13.628
11504SOL     OW36518  12.764   7.303  10.098
11504SOL    HW136519   1.689   7.391  -0.952
11504SOL    HW236520  -9.223   7.316  10.119
11505SOL     OW36521   8.748   8.125   6.573
11505SOL    HW136522   8.733   8.218  17.631
11505SOL    HW236523   8.746  19.123   6.658
11506SOL     OW36524   0.867  11.144   3.957
11506SOL    HW136525   0.842   0.197   3.959
11506SOL    HW236526   0.865   0.082   3.864
11507SOL     OW36527   2.129   2.483   0.940
11507SOL    HW136528   2.071   2.458   0.868
11507SOL    HW236529   2.143  -8.637  12.029
11508SOL     OW36530  10.069   8.038   8.716
11508SOL    HW136531  10.080   8.116  -2.377
11508SOL    HW236532  10.019  19.017   8.662
11509SOL     OW36533   7.846  -0.212  10.113
11509SOL    HW136534   7.922  -0.270  10.109
11509SOL    HW236535  -3.258  10.786  10.055
11510SOL     OW36536  12.264   8.050   5.981
11510SOL    HW136537  -9.862  30.113  -4.977
11510SOL    HW236538 -20.803   8.128   5.998
11511SOL     OW36539   1.628   8.455   4.173
11511SOL    HW136540   1.638   8.375  26.201
11511SOL    HW236541  -9.324   8.494   4.175
11512SOL     OW36542   2.311   3.209   0.376
11512SOL    HW136543  13.401   3.175   0.450
11512SOL    HW236544   2.335   3.152   0.303
11513SOL     OW36545   3.119   3.765   9.890
11513SOL    HW136546   3.073   3.817   9.824
11513SOL    HW236547   3.110  25.754  20.900
11514SOL     OW36548   7.947   0.888  11.076
11514SOL    HW136549   8.041   0.873   0.030
11514SOL    HW236550   7.912   0.805  11.110
11515SOL     OW36551   6.932   2.204   5.969
11515SOL    HW136552   6.899   2.119   6.000
11515SOL    HW236553   6.928   2.260   6.047
11516SOL     OW36554   0.935   5.949   9.071
11516SOL    HW136555  11.983  27.961 -13.076
11516SOL    HW236556   1.020   5.949 -35.043
11517SOL     OW36557   3.994   1.445   6.299
11517SOL    HW136558   3.920   1.478   6.249
11517SOL    HW236559   3.960   1.430   6.387
11518SOL     OW36560   9.319   5.534   4.058
11518SOL    HW136561   9.243   5.553   4.113
11518SOL    HW236562   9.395  27.631  -6.927
11519SOL     OW36563   7.787   6.295   2.803
11519SOL    HW136564  18.801  -4.816   2.745
11519SOL    HW236565   7.823   6.362   2.745
11520SOL     OW36566   8.435   0.816   9.856
11520SOL    HW136567  -2.531  11.854   9.917
11520SOL    HW236568   8.362  11.889   9.908
11521SOL     OW36569   1.647   0.855   9.307
11521SOL    HW136570   1.701  22.982  -1.795
11521SOL    HW236571   1.565   0.838   9.260
11522SOL     OW36572   5.378   2.049  -2.449
11522SOL    HW136573   5.422   2.002  -2.378
11522SOL    HW236574   5.447   2.060  41.642
11523SOL     OW36575   7.150   8.786   6.790
11523SOL    HW136576  40.259   8.693   6.769
11523SOL    HW236577  18.285   8.799   6.796
11524SOL     OW36578   9.628   6.318   5.956
11524SOL    HW136579  20.733  17.288   5.945
11524SOL    HW236580  -1.479  17.319 -27.108
11525SOL     OW36581   5.901   1.442   5.136
11525SOL    HW136582   5.924   1.381   5.207
11525SOL    HW236583  27.924   1.507  27.257
11526SOL     OW36584   6.178   6.967   9.524
11526SOL    HW136585   6.249   7.029 -12.571
11526SOL    HW236586   6.176   6.956   9.619
11527SOL     OW36587  10.119  10.651   0.756
11527SOL    HW136588  10.078  10.669   0.841
11527SOL    HW236589  10.211  -0.401  11.816
11528SOL     OW36590   4.955   7.912   6.401
11528SOL    HW136591   4.866   7.915   6.365
11528SOL    HW236592   5.008   7.875  -4.708
11529SOL     OW36593   2.425   2.795   2.422
11529SOL    HW136594   2.408   2.728   2.488
11529SOL    HW236595  13.442   2.878  13.504
11530SOL     OW36596  10.876   0.832   9.747
11530SOL    HW136597  -0.121  11.820   9.816
11530SOL    HW236598  10.908   0.921   9.760
11531SOL     OW36599   2.638  -0.027   7.307
11531SOL    HW136600   2.601  10.943   7.361
11531SOL    HW236601  -8.450   0.051   7.332
11532SOL     OW36602   4.446  10.795   8.252
11532SOL    HW136603  15.399  10.761  -2.765
11532SOL    HW236604   4.506  10.724   8.274
11533SOL     OW36605   3.570   3.210   3.012
11533SOL    HW136606   3.570  -7.735  14.040
11533SOL    HW236607   3.658  -7.857   2.987
11534SOL     OW36608   8.502   2.397   1.868
11534SOL    HW136609 -24.695   2.389   1.813
11534SOL    HW236610   8.490  57.677   1.915
11535SOL     OW36611   4.522  10.848   6.322
11535SOL    HW136612   4.552  10.830   6.411
11535SOL    HW236613  -6.461 -11.286   6.267
11536SOL     OW36614   1.943   7.949   9.261
11536SOL    HW136615   1.905  -3.005   9.279
11536SOL    HW236616   1.963   7.913   9.347
11537SOL     OW36617   4.558   8.869   7.547
11537SOL    HW136618  -6.479 -13.205   7.643
11537SOL    HW236619  -6.426   8.942   7.518
11538SOL     OW36620   6.389   3.329   2.213
11538SOL    HW136621   6.295   3.328  35.347
11538SOL    HW236622   6.402  14.432  24.221
11539SOL     OW36623   1.308   3.983   6.646
11539SOL    HW136624   1.229   3.975   6.701
11539SOL    HW236625   1.369   3.920   6.683
11540SOL     OW36626   1.766   9.082   5.800
11540SOL    HW136627   1.812   9.154   5.757
11540SOL    HW236628   1.678  -1.956   5.763
11541SOL     OW36629  10.760   7.080   9.840
11541SOL    HW136630 -11.304  18.101   9.933
11541SOL    HW236631  10.848   7.088  20.843
11542SOL     OW36632   1.151   4.836   9.806
11542SOL    HW136633   1.068  -6.202   9.853
11542SOL    HW236634   1.186   4.749 -12.258
11543SOL     OW36635   1.442   4.217   9.768
11543SOL    HW136636   1.408   4.186   9.684
11543SOL    HW236637  12.563   4.263   9.745
11544SOL     OW36638   4.668   7.496   3.673
11544SOL    HW136639 -28.414   7.433   3.612
11544SOL    HW236640  -6.302  -3.478  -7.355
11545SOL     OW36641   4.286   1.132   6.982
11545SOL    HW136642   4.205   1.183 -15.099
11545SOL    HW236643   4.274   1.072  -3.984
11546SOL     OW36644   6.928   0.542   4.202
11546SOL    HW136645  17.930   0.471   4.254
11546SOL    HW236646  -4.027   0.560   4.244
11547SOL     OW36647   5.858   7.461  10.426
11547SOL    HW136648   5.920  51.622  10.499
11547SOL    HW236649   5.802   7.386  10.445
11548SOL     OW36650   3.430   2.619   8.228
11548SOL    HW136651 -29.596  13.671  19.288
11548SOL    HW236652   3.412   2.684   8.160
11549SOL     OW36653   5.728   1.854   1.205
11549SOL    HW136654 -16.295  12.888   1.128
11549SOL    HW236655  16.692   1.905   1.177
11550SOL     OW36656   6.345   4.888   2.402
11550SOL    HW136657 -15.712   4.826   2.332
11550SOL    HW236658   6.343   4.973   2.359
11551SOL     OW36659   7.653   6.550  -0.292
11551SOL    HW136660   7.651   6.526  21.879
11551SOL    HW236661   7.562   6.564  -0.316
11552SOL     OW36662   0.616   9.227   6.096
11552SOL    HW136663 -10.467  31.319  17.220
11552SOL    HW236664   0.704   9.264   6.108
11553SOL     OW36665   7.504   7.978   0.147
11553SOL    HW136666   7.590   7.988   0.106
11553SOL    HW236667   7.516  -3.030   0.237
11554SOL     OW36668   6.600  -0.157   2.756
11554SOL    HW136669   6.511  10.914  13.814
11554SOL    HW236670   6.616  -0.223  24.903
11555SOL     OW36671   4.371   0.092   9.824
11555SOL    HW136672   4.321   0.157  -1.167
11555SOL    HW236673   4.392   0.025   9.889
11556SOL     OW36674   1.447  11.219   5.310
11556SOL    HW136675   1.421  11.132  -5.700
11556SOL    HW236676   1.376   0.207   5.252
11557SOL     OW36677   9.634   4.177   8.780
11557SOL    HW136678   9.696   4.215  19.882
11557SOL    HW236679  -1.427   4.249   8.720
11558SOL     OW36680   3.389   9.038  10.602
11558SOL    HW136681   3.473  -2.038  10.629
11558SOL    HW236682   3.339  -1.993  10.683
11559SOL     OW36683   1.403   6.443   0.806
11559SOL    HW136684   1.344 -15.651   0.879
11559SOL    HW236685   1.491  39.551   0.844
11560SOL     OW36686  10.439  10.044  10.616
11560SOL    HW136687  10.367 -23.054  10.556
11560SOL    HW236688  10.406   9.970  -0.372
11561SOL     OW36689  -0.362   0.421   5.409
11561SOL    HW136690  10.600  33.582   5.446
11561SOL    HW236691  10.644  22.423   5.365
11562SOL     OW36692   7.928  10.883   3.816
11562SOL    HW136693  19.002  10.899  14.768
11562SOL    HW236694   7.987  10.932   3.874
11563SOL     OW36695   0.849  10.811  10.484
11563SOL    HW136696   0.761  10.802  10.449
11563SOL    HW236697   0.893  -0.311  10.460
11564SOL     OW36698   3.644   9.652  13.239
11564SOL    HW136699  -7.456 -12.411 -19.808
11564SOL    HW236700   3.697  -1.462   2.229
11565SOL     OW36701   1.289   8.681   9.212
11565SOL    HW136702 -20.772   8.770   9.181
11565SOL    HW236703   1.198   8.665 -12.894
11566SOL     OW36704   8.030   7.284  10.396
11566SOL    HW136705   8.037   7.364  21.488
11566SOL    HW236706  -3.019   7.214  10.460
11567SOL     OW36707   9.101   8.227   7.801
11567SOL    HW136708   9.070   8.282   7.873
11567SOL    HW236709   9.029   8.166  29.864
11568SOL     OW36710   5.295   8.043   4.498
11568SOL    HW136711   5.333  19.145   4.437
11568SOL    HW236712   5.330   7.958   4.471
11569SOL     OW36713   4.497  10.409   9.341
11569SOL    HW136714   4.428  10.436   9.401
11569SOL    HW236715   4.454  10.346  -1.757
11570SOL     OW36716   3.253   2.266   4.597
11570SOL    HW136717   3.158   2.274   4.592
11570SOL    HW236718  36.396   2.318  59.871
11571SOL     OW36719   7.727   9.126   0.305
11571SOL    HW136720   7.818   9.098   0.290
11571SOL    HW236721   7.678   9.044   0.310
11572SOL     OW36722   0.766  10.102  -0.442
11572SOL    HW136723  11.775  -0.982  10.519
11572SOL    HW236724   0.697  -0.952  32.741
11573SOL     OW36725  11.043   8.288  10.552
11573SOL    HW136726  -0.041   8.369  10.530
11573SOL    HW236727  -0.063   8.220  10.543
11574SOL     OW36728   8.603   6.490  10.884
11574SOL    HW136729   8.529   6.550  10.900
11574SOL    HW236730  -2.367   6.547  10.852
11575SOL     OW36731   1.649   0.295   7.200
11575SOL    HW136732   1.711   0.240   7.151
11575SOL    HW236733   1.563   0.262  -3.865
11576SOL     OW36734   4.455   8.624   6.567
11576SOL    HW136735   4.505   8.603   6.646
11576SOL    HW236736  26.572   8.707 -15.543
11577SOL     OW36737   0.639   3.282   1.916
11577SOL    HW136738   0.671   3.215   1.856
11577SOL    HW236739  11.721 -18.716   1.887
11578SOL     OW36740   0.313   8.312   7.202
11578SOL    HW136741   0.342   8.397   7.235
11578SOL    HW236742   0.261 -24.786   7.124
11579SOL     OW36743   1.172  10.987   2.737
11579SOL    HW136744   1.089  10.951  35.824
11579SOL    HW236745  -9.803  10.956  13.713
11580SOL     OW36746   4.650   5.319   6.087
11580SOL    HW136747   4.580  38.491   6.124
11580SOL    HW236748   4.664   5.354  -5.041
11581SOL     OW36749   4.438   8.288   7.061
11581SOL    HW136750   4.354   8.304  18.057
11581SOL    HW236751 -28.673   8.193   7.064
11582SOL     OW36752   4.948   9.964   1.314
11582SOL    HW136753   4.945   9.917   1.397
11582SOL    HW236754   4.859  -1.042   1.302
11583SOL     OW36755  10.449   2.834   2.356
11583SOL    HW136756  10.434   2.929 -19.724
11583SOL    HW236757  10.371  13.838  -8.641
11584SOL     OW36758  10.153  -2.277   3.435
11584SOL    HW136759  10.193  30.783   3.371
11584SOL    HW236760  10.178   8.726   3.520
11585SOL     OW36761   9.264   1.310   5.540
11585SOL    HW136762 -12.884   1.259  16.622
11585SOL    HW236763  20.256   1.377  38.609
11586SOL     OW36764   5.352   9.112  10.669
11586SOL    HW136765  -5.732   9.111 -11.495
11586SOL    HW236766   5.314  -2.000  10.717
11587SOL     OW36767   5.487   4.004  11.650
11587SOL    HW136768   5.394   4.027  11.645
11587SOL    HW236769  -5.513  -6.991   0.534
11588SOL     OW36770  -1.108   7.383   4.953
11588SOL    HW136771  20.887  18.458   4.983
11588SOL    HW236772  20.959   7.368   4.860
11589SOL     OW36773   3.496   6.435  10.527
11589SOL    HW136774   3.493   6.424 -11.647
11589SOL    HW236775   3.513   6.347  10.561
11590SOL     OW36776   3.355   1.800   3.516
11590SOL    HW136777   3.439  12.879   3.541
11590SOL    HW236778   3.318   1.768   3.598
11591SOL     OW36779   8.864   7.137   1.836
11591SOL    HW136780   8.934   7.198   1.861
11591SOL    HW236781 -13.278   7.191   1.788
11592SOL     OW36782   0.562  11.156   2.172
11592SOL    HW136783   0.595   0.031  -8.895
11592SOL    HW236784   0.472  11.158   2.139
11593SOL     OW36785   3.794   7.149   7.064
11593SOL    HW136786  -7.267   7.215   7.131
11593SOL    HW236787   3.755   7.068  18.136
11594SOL     OW36788   6.286  10.116   2.613
11594SOL    HW136789   6.371  10.081   2.587
11594SOL    HW236790  17.292  10.160   2.535
11595SOL     OW36791   7.013   6.860   5.602
11595SOL    HW136792 -26.047   6.935   5.609
11595SOL    HW236793   6.994   6.853   5.509
11596SOL     OW36794   3.002  10.055  -0.224
11596SOL    HW136795   3.083 -11.985  -0.257
11596SOL    HW236796   3.008  10.063  21.950
11597SOL     OW36797   9.136   9.389   8.900
11597SOL    HW136798  20.124   9.345  42.086
11597SOL    HW236799   9.071   9.434   8.845
11598SOL     OW36800   2.019   5.271   0.013
11598SOL    HW136801   2.090   5.210  11.034
11598SOL    HW236802  12.979   5.221 -11.044
11599SOL     OW36803   3.739   1.053   6.399
11599SOL    HW136804   3.832   1.033   6.413
11599SOL    HW236805  25.795   1.003   6.321
11600SOL     OW36806   3.683   5.614   1.070
11600SOL    HW136807 -18.432   5.703   1.073
11600SOL    HW236808  -7.279   5.622   1.014
11601SOL     OW36809  10.478   3.620   9.718
11601SOL    HW136810  10.424   3.555   9.674
11601SOL    HW236811  10.421  -7.381   9.785
11602SOL     OW36812   6.761   3.109   4.606
11602SOL    HW136813   6.740  -7.910  37.816
11602SOL    HW236814 -15.400   3.127   4.559
11603SOL     OW36815   7.849   6.941   1.036
11603SOL    HW136816   7.855   6.856   0.994
11603SOL    HW236817   7.777 -15.094   0.990
11604SOL     OW36818   4.803   4.873  10.249
11604SOL    HW136819   4.737   4.833  10.306
11604SOL    HW236820  37.914   4.824  10.167
11605SOL     OW36821   1.676   6.100   9.926
11605SOL    HW136822  12.793   6.049   9.949
11605SOL    HW236823  45.863  17.231  -1.108
11606SOL     OW36824   1.533   5.033   9.567
11606SOL    HW136825   1.480   5.107   9.538
11606SOL    HW236826   1.511   4.962   9.505
11607SOL     OW36827   6.507   9.990   4.880
11607SOL    HW136828  28.578  -0.962   4.844
11607SOL    HW236829  17.625 -12.086  15.974
11608SOL     OW36830   0.840   2.864   9.991
11608SOL    HW136831   0.923  13.928  10.033
11608SOL    HW236832  11.853   2.942  20.983
11609SOL     OW36833  -1.266   3.175   9.282
11609SOL    HW136834  20.894   3.138   9.247
11609SOL    HW236835   9.724   3.099 -23.804
11610SOL     OW36836   9.015   4.439   5.674
11610SOL    HW136837   9.055   4.352   5.675
11610SOL    HW236838   8.951   4.437   5.745
11611SOL     OW36839   7.310   3.661  11.463
11611SOL    HW136840   7.223   3.677  11.501
11611SOL    HW236841   7.294   3.644   0.331
11612SOL     OW36842   9.799   5.015   3.880
11612SOL    HW136843   9.737   5.087   3.891
11612SOL    HW236844 -12.304   4.976   3.796
11613SOL     OW36845   7.959   8.351   6.410
11613SOL    HW136846 -14.088  19.481   6.404
11613SOL    HW236847   7.892 -13.733   6.342
11614SOL     OW36848   2.196   0.532   2.998
11614SOL    HW136849   2.209  11.617  25.161
11614SOL    HW236850   2.273   0.557  25.025
11615SOL     OW36851   7.421   4.908   9.592
11615SOL    HW136852   7.443  15.880  -1.512
11615SOL    HW236853   7.424   4.990   9.542
11616SOL     OW36854   9.005   1.344   3.569
11616SOL    HW136855  20.065  -9.754   3.495
11616SOL    HW236856   8.938   1.402  -7.504
11617SOL     OW36857   0.441   2.669   4.160
11617SOL    HW136858   0.518   2.625  -6.843
11617SOL    HW236859   0.367   2.623   4.198
11618SOL     OW36860   8.361   8.954   0.532
11618SOL    HW136861   8.375   8.874   0.582
11618SOL    HW236862   8.406  -2.017   0.582
11619SOL     OW36863   2.827   2.396   8.173
11619SOL    HW136864   2.785   2.345   8.104
11619SOL    HW236865   2.762   2.399   8.244
11620SOL     OW36866   7.404   6.561   5.281
11620SOL    HW136867  -3.555   6.513   5.301
11620SOL    HW236868   7.406   6.635   5.341
11621SOL     OW36869  10.019   1.251   6.590
11621SOL    HW136870   9.988  23.250  -4.408
11621SOL    HW236871  10.058   1.302 -15.418
11622SOL     OW36872  14.176   4.149   2.018
11622SOL    HW136873 -29.973   4.243   2.029
11622SOL    HW236874 -30.051   4.139   1.952
11623SOL     OW36875   6.050   3.463   5.831
11623SOL    HW136876 -16.016 -29.577   5.778
11623SOL    HW236877   6.133   3.415   5.824
11624SOL     OW36878   8.393   2.138   7.670
11624SOL    HW136879   8.389  46.237   7.595
11624SOL    HW236880   8.485   2.136   7.696
11625SOL     OW36881   6.598   9.736  10.960
11625SOL    HW136882  17.677   9.821  10.978
11625SOL    HW236883  17.669  -1.360  11.030
11626SOL     OW36884   9.402   5.409   2.976
11626SOL    HW136885   9.373   5.323   3.006
11626SOL    HW236886   9.443   5.449   3.054
11627SOL     OW36887   1.699  10.794   3.750
11627SOL    HW136888   1.709  10.843  14.708
11627SOL    HW236889   1.617 -11.333  14.779
11628SOL     OW36890   1.797   1.436   9.286
11628SOL    HW136891   1.774   1.526   9.265
11628SOL    HW236892  12.758   1.400   9.329
11629SOL     OW36893   1.453  -1.620   3.937
11629SOL    HW136894   1.537  -1.601  37.097
11629SOL    HW236895  23.467  31.539  -7.045
11630SOL     OW36896   1.430   3.177   9.612
11630SOL    HW136897   1.447   3.102   9.669
11630SOL    HW236898   1.441   3.142   9.523
11631SOL     OW36899  -0.166   6.800  -1.306
11631SOL    HW136900  -0.146   6.894  -1.309
11631SOL    HW236901  33.002   6.768  31.888
11632SOL     OW36902   9.685   4.469   4.070
11632SOL    HW136903   9.734   4.540  -7.011
11632SOL    HW236904   9.597   4.477  -7.006
11633SOL     OW36905   1.404   6.284   1.654
11633SOL    HW136906  -9.565   6.335  12.734
11633SOL    HW236907   1.324   6.316  -9.344
11634SOL     OW36908   2.491   8.398   2.337
11634SOL    HW136909 -19.660   8.360   2.287
11634SOL    HW236910   2.550   8.325  13.395
11635SOL     OW36911   4.207   9.815   7.550
11635SOL    HW136912  15.269   9.840   7.640
11635SOL    HW236913   4.277   9.853   7.497
11636SOL     OW36914   7.620   4.261  11.109
11636SOL    HW136915 -14.490   4.268  11.199
11636SOL    HW236916  -3.481  48.359   0.027
11637SOL     OW36917   9.105   2.832   2.402
11637SOL    HW136918   9.153  -8.289   2.391
11637SOL    HW236919   9.020   2.816  -8.677
11638SOL     OW36920   0.844   9.784   3.234
11638SOL    HW136921 -10.181   9.821   3.146
11638SOL    HW236922   0.867   9.692   3.225
11639SOL     OW36923   5.563   9.095   2.077
11639SOL    HW136924   5.555   9.137  13.203
11639SOL    HW236925   5.476   9.058   2.061
11640SOL     OW36926   5.174  10.407   8.226
11640SOL    HW136927  16.127  10.449   8.230
11640SOL    HW236928   5.166  10.332   8.284
11641SOL     OW36929   6.152   5.598   5.402
11641SOL    HW136930 -15.889 -38.646  -5.619
11641SOL    HW236931   6.070 -27.540   5.358
11642SOL     OW36932  -0.312   3.137   0.578
11642SOL    HW136933  21.824   3.175  22.590
11642SOL    HW236934  -0.264   3.151  11.700
11643SOL     OW36935   3.212   4.049   6.598
11643SOL    HW136936   3.181   4.136   6.572
11643SOL    HW236937   3.138   4.010  17.684
11644SOL     OW36938   9.583   5.334   5.247
11644SOL    HW136939   9.522 -16.816   5.266
11644SOL    HW236940   9.620   5.312 -16.918
11645SOL     OW36941   5.361   6.451   0.971
11645SOL    HW136942  -5.727  -4.514  12.046
11645SOL    HW236943   5.452  -4.557 -10.074
11646SOL     OW36944   3.350   2.792   5.328
11646SOL    HW136945  14.429   2.876   5.350
11646SOL    HW236946   3.256   2.805   5.342
11647SOL     OW36947   0.475   8.167  10.187
11647SOL    HW136948   0.481   8.072  21.220
11647SOL    HW236949   0.395  -2.851  10.138
11648SOL     OW36950   2.129   7.121   0.213
11648SOL    HW136951   2.225   7.115   0.211
11648SOL    HW236952   2.101   7.080  11.171
11649SOL     OW36953   0.467   0.690   0.502
11649SOL    HW136954   0.394 -10.291   0.522
11649SOL    HW236955   0.487  11.748   0.410
11650SOL     OW36956  12.288   8.568   7.293
11650SOL    HW136957 -31.949   8.571   7.347
11650SOL    HW236958  -9.727   8.521   7.346
11651SOL     OW36959   4.643   1.143   0.755
11651SOL    HW136960  15.647   1.171   0.671
11651SOL    HW236961   4.738   1.147   0.744
11652SOL     OW36962   5.076   3.949  10.425
11652SOL    HW136963  -5.978  -7.000  -0.589
11652SOL    HW236964  -5.981   3.947  21.370
11653SOL     OW36965   4.619   0.788   7.191
11653SOL    HW136966   4.555   0.725   7.159
11653SOL    HW236967  15.644   0.792  18.325
11654SOL     OW36968   5.485   3.568   0.326
11654SOL    HW136969  -5.620   3.542   0.391
11654SOL    HW236970   5.450  -7.505   0.243
11655SOL     OW36971   1.394   8.550   4.080
11655SOL    HW136972   1.479  -2.520   4.110
11655SOL    HW236973   1.371   8.492  37.126
11656SOL     OW36974   5.805   2.133   5.815
11656SOL    HW136975   5.779   2.175  16.773
11656SOL    HW236976  39.003   2.179   5.842
11657SOL     OW36977   3.138  -0.314   0.481
11657SOL    HW136978   3.081  -0.318   0.557
11657SOL    HW236979   3.177  10.813   0.484
11658SOL     OW36980   1.013   2.022   6.295
11658SOL    HW136981   0.988 -31.080  -4.653
11658SOL    HW236982   0.959   1.947   6.269
11659SOL     OW36983   2.975   3.024   5.907
11659SOL    HW136984   3.051   3.077  16.970
11659SOL    HW236985   2.965  14.002   5.980
11660SOL     OW36986   1.528   5.813   7.213
11660SOL    HW136987  -9.592  -5.207   7.164
11660SOL    HW236988   1.499   5.751   7.280
11661SOL     OW36989   5.343   8.152   8.560
11661SOL    HW136990  16.358   8.190   8.645
11661SOL    HW236991   5.421   8.100   8.579
11662SOL     OW36992   8.761   2.452   6.923
11662SOL    HW136993   8.701  24.529   6.998
11662SOL    HW236994   8.704   2.435  17.887
11663SOL     OW36995   8.608   3.718   7.884
11663SOL    HW136996   8.686   3.682   7.927
11663SOL    HW236997   8.578   3.787  -3.097
11664SOL     OW36998   3.767   7.801   9.966
11664SOL    HW136999   3.685   7.752   9.957
11664SOL    HW237000  -7.282   7.847  10.050
11665SOL     OW37001   2.752   2.517   3.661
11665SOL    HW137002  13.830   2.429   3.661
11665SOL    HW237003   2.815   2.570  14.750
11666SOL     OW37004   5.509   7.428  10.747
11666SOL    HW137005   5.584   7.463 -33.460
11666SOL    HW237006   5.548  18.405  10.808
11667SOL     OW37007   5.363   9.167   9.009
11667SOL    HW137008  -5.747 -12.974  -2.010
11667SOL    HW237009  38.519 -12.944 -13.152
11668SOL     OW37010   8.909   2.062  10.119
11668SOL    HW137011   8.916  13.181  10.067
11668SOL    HW237012   8.936  13.128  10.207
11669SOL     OW37013   7.799   1.721   2.485
11669SOL    HW137014   7.732  -9.253   2.502
11669SOL    HW237015 -14.329   1.639   2.476
11670SOL     OW37016   7.056   5.286   2.622
11670SOL    HW137017   7.044 -27.742  24.674
11670SOL    HW237018  -4.012   5.234   2.546
11671SOL     OW37019   7.834   5.928   6.434
11671SOL    HW137020   7.745   5.962  -4.600
11671SOL    HW237021  18.909   5.966  17.394
11672SOL     OW37022   8.248   7.098   1.739
11672SOL    HW137023   8.186   7.145 -20.284
11672SOL    HW237024   8.202  18.127   1.655
11673SOL     OW37025   4.611   6.026   2.464
11673SOL    HW137026   4.634   6.098  13.562
11673SOL    HW237027   4.531  17.029   2.501
11674SOL     OW37028   5.965   7.891  11.039
11674SOL    HW137029   5.999   7.928  10.958
11674SOL    HW237030   6.008   7.941   0.069
11675SOL     OW37031   6.980   9.173   8.984
11675SOL    HW137032   6.949  -1.919   8.910
11675SOL    HW237033   6.949   9.262   8.966
11676SOL     OW37034   5.800   8.284   5.079
11676SOL    HW137035   5.870   8.301   5.143
11676SOL    HW237036   5.720   8.311   5.124
11677SOL     OW37037   6.474   9.225  10.973
11677SOL    HW137038  28.487   9.265  11.030
11677SOL    HW237039 -15.649 -12.866  10.889
11678SOL     OW37040   4.169   5.860   3.634
11678SOL    HW137041 -17.917   5.793  -7.473
11678SOL    HW237042   4.263   5.870  -7.391
11679SOL     OW37043   1.441   0.873   6.215
11679SOL    HW137044   1.377 -10.238  -4.820
11679SOL    HW237045   1.402  11.976   6.155
11680SOL     OW37046  10.726   2.566   3.818
11680SOL    HW137047  10.810   2.526   3.797
11680SOL    HW237048  10.734   2.657   3.789
11681SOL     OW37049   1.986   3.081   5.039
11681SOL    HW137050   2.067   3.130  -6.012
11681SOL    HW237051   1.938   3.129 -16.973
11682SOL     OW37052   4.115   1.635   7.167
11682SOL    HW137053   4.037   1.608  29.198
11682SOL    HW237054   4.091   1.717   7.209
11683SOL     OW37055   6.033   3.835   3.773
11683SOL    HW137056   5.939   3.826   3.788
11683SOL    HW237057  28.137 -18.326   3.731
11684SOL     OW37058   5.783   7.140   5.864
11684SOL    HW137059   5.848  -3.831  -5.195
11684SOL    HW237060  -5.264   7.091   5.783
11685SOL     OW37061   7.907   6.282   7.300
11685SOL    HW137062  18.902   6.213   7.251
11685SOL    HW237063  30.062   6.239   7.340
11686SOL     OW37064   4.060   3.812   6.466
11686SOL    HW137065   4.101  -7.191   6.544
11686SOL    HW237066   4.088   3.720  -4.574
11687SOL     OW37067   8.705   1.986   5.852
11687SOL    HW137068   8.697   1.910   5.909
11687SOL    HW237069  19.656  -9.016   5.850
11688SOL     OW37070   9.150   7.850   0.096
11688SOL    HW137071 -12.849  41.021  33.205
11688SOL    HW237072   9.080  18.947   0.064
11689SOL     OW37073  11.102   8.513   1.266
11689SOL    HW137074  11.017   8.548  23.370
11689SOL    HW237075 -10.997   8.428  23.304
11690SOL     OW37076  10.491   8.588   0.817
11690SOL    HW137077  10.560  -2.428   0.754
11690SOL    HW237078  -0.501   8.565   0.897
11691SOL     OW37079  10.610   6.510   0.544
11691SOL    HW137080  10.680   6.445   0.541
11691SOL    HW237081  10.629 -26.550   0.470
11692SOL     OW37082   5.706   2.852   4.319
11692SOL    HW137083   5.775   2.895  -6.771
11692SOL    HW237084  27.832   2.807   4.390
11693SOL     OW37085   1.836   5.169   6.613
11693SOL    HW137086   1.874  27.208  -4.349
11693SOL    HW237087   1.783  16.139   6.574
11694SOL     OW37088   5.143   5.471   4.232
11694SOL    HW137089  -5.978   5.423   4.222
11694SOL    HW237090   5.185   5.432  -6.731
11695SOL     OW37091  10.653   1.637   3.569
11695SOL    HW137092  10.717   1.581   3.612
11695SOL    HW237093  -0.368  -9.411 -18.603
11696SOL     OW37094   7.512   7.169   7.195
11696SOL    HW137095  18.594   7.216   7.124
11696SOL    HW237096   7.445   7.116  18.192
11697SOL     OW37097   2.142  10.579   3.528
11697SOL    HW137098   2.214  10.618 -18.502
11697SOL    HW237099  -8.971  10.639  25.621
11698SOL     OW37100  10.162   8.771   9.132
11698SOL    HW137101  32.294   8.757   9.210
11698SOL    HW237102  -0.880   8.685   9.089
11699SOL     OW37103  10.994   6.049   5.349
11699SOL    HW137104  11.082   6.061   5.386
11699SOL    HW237105  -0.034   5.986   5.278
11700SOL     OW37106   5.946   5.128   8.113
11700SOL    HW137107   6.015  -5.977   8.100
11700SOL    HW237108  -5.173   5.084  19.123
11701SOL     OW37109  10.766   3.670   3.983
11701SOL    HW137110  10.698  14.778   3.984
11701SOL    HW237111  10.828   3.699  14.956
11702SOL     OW37112   4.719   6.438   0.995
11702SOL    HW137113  -6.390   6.473  23.129
11702SOL    HW237114   4.776  -4.650   1.055
11703SOL     OW37115   8.654   4.185   9.078
11703SOL    HW137116   8.719   4.193  31.227
11703SOL    HW237117 -24.533 -17.949   9.115
11704SOL     OW37118   2.126   7.404  11.646
11704SOL    HW137119   2.093   7.464  11.713
11704SOL    HW237120   2.138   7.459   0.529
11705SOL     OW37121   7.726   1.008   0.130
11705SOL    HW137122  18.765   1.023   0.225
11705SOL    HW237123 -14.260   0.999   0.108
11706SOL     OW37124   4.169  10.183   0.682
11706SOL    HW137125   4.248  10.236  22.745
11706SOL    HW237126   4.102  10.225   0.628
11707SOL     OW37127   8.281   7.687   7.944
11707SOL    HW137128   8.367   7.660   7.977
11707SOL    HW237129  -2.800  -3.307   8.017
11708SOL     OW37130   6.233   2.951   5.171
11708SOL    HW137131   6.236   2.871   5.119
11708SOL    HW237132   6.232   2.921   5.261
11709SOL     OW37133  10.064  10.737   5.535
11709SOL    HW137134  10.082  10.701 -16.458
11709SOL    HW237135  10.141  10.791  16.555
11710SOL     OW37136   1.199   4.181   5.712
11710SOL    HW137137   1.208  -6.811  16.834
11710SOL    HW237138  23.365   4.147   5.693
11711SOL     OW37139   3.070   3.283   9.830
11711SOL    HW137140   3.161   3.277   9.859
11711SOL    HW237141   3.035   3.195  -1.197
11712SOL     OW37142   7.833   6.701   4.497
11712SOL    HW137143   7.782   6.671   4.572
11712SOL    HW237144   7.768   6.714  -6.612
11713SOL     OW37145   3.587   8.925   6.777
11713SOL    HW137146  14.641  -2.181 -15.370
11713SOL    HW237147  14.712 -13.144   6.818
11714SOL     OW37148  -0.702   5.393   9.161
11714SOL    HW137149  -0.637   5.346   9.108
11714SOL    HW237150  21.335   5.325   9.213
11715SOL     OW37151   4.184   9.094   8.118
11715SOL    HW137152  26.338   9.042 -13.988
11715SOL    HW237153   4.121  20.125  -2.994
11716SOL     OW37154   4.393   3.825   6.229
11716SOL    HW137155   4.342   3.797   6.154
11716SOL    HW237156   4.382   3.920   6.233
11717SOL     OW37157   7.348   6.403   9.887
11717SOL    HW137158 -14.703   6.332   9.944
11717SOL    HW237159   7.295  17.401   9.819
11718SOL     OW37160   3.584   5.935   4.250
11718SOL    HW137161   3.588  -5.104   4.154
11718SOL    HW237162  14.612 -16.236   4.273
11719SOL     OW37163   7.103  -0.150   7.080
11719SOL    HW137164   7.193  10.860  -3.945
11719SOL    HW237165   7.078  -0.188   6.997
11720SOL     OW37166   7.269   6.473   6.621
11720SOL    HW137167   7.179   6.441   6.625
11720SOL    HW237168  18.362  17.435   6.637
11721SOL     OW37169   9.883   4.948   1.775
11721SOL    HW137170   9.858   4.862   1.741
11721SOL    HW237171   9.829   4.960  12.892
11722SOL     OW37172   2.628   3.643   5.281
11722SOL    HW137173   2.711   3.621   5.323
11722SOL    HW237174 -19.448   3.738  16.310
11723SOL     OW37175   6.910  11.712   0.653
11723SOL    HW137176   6.836  11.735  22.676
11723SOL    HW237177 -15.208 -10.422  44.880
11724SOL     OW37178   3.745   5.757   8.631
11724SOL    HW137179  -7.379   5.789   8.600
11724SOL    HW237180   3.755   5.671   8.590
11725SOL     OW37181   4.516   8.540   4.981
11725SOL    HW137182 -17.581   8.632   5.000
11725SOL    HW237183  -6.460   8.513   5.048
11726SOL     OW37184   6.297   3.416  12.626
11726SOL    HW137185   6.274  14.417 -20.577
11726SOL    HW237186   6.214 -29.695  12.673
11727SOL     OW37187   3.654   3.380   1.544
11727SOL    HW137188  14.623   3.397   1.606
11727SOL    HW237189   3.694  -7.574   1.528
11728SOL     OW37190  -0.887   7.426   3.748
11728SOL    HW137191  10.237   7.432   3.703
11728SOL    HW237192  10.140   7.332   3.763
11729SOL     OW37193  10.632   0.924   8.677
11729SOL    HW137194  10.541   0.899   8.694
11729SOL    HW237195  10.635 -10.098   8.583
11730SOL     OW37196   7.255  10.195   9.389
11730SOL    HW137197   7.318  21.172 -12.655
11730SOL    HW237198 -14.853  10.245   9.465
11731SOL     OW37199   1.437   7.359   5.289
11731SOL    HW137200   1.414  -3.743   5.220
11731SOL    HW237201   1.529 -14.699   5.272
11732SOL     OW37202   7.621   9.856   2.081
11732SOL    HW137203   7.693  -1.120   2.081
11732SOL    HW237204 -25.538   9.866   1.995
11733SOL     OW37205   9.670   6.181   8.830
11733SOL    HW137206   9.594   6.216   8.877
11733SOL    HW237207   9.646  17.228   8.738
11734SOL     OW37208   7.824   9.170   9.624
11734SOL    HW137209   7.870   9.204  31.780
11734SOL    HW237210   7.872   9.208   9.550
11735SOL     OW37211   4.934   8.230   7.413
11735SOL    HW137212   4.906 -13.856   7.322
11735SOL    HW237213   5.028 -13.833   7.408
11736SOL     OW37214   3.991   6.177   7.414
11736SOL    HW137215   3.974  28.201   7.338
11736SOL    HW237216   3.905   6.201   7.446
11737SOL     OW37217  -0.467   4.155   0.807
11737SOL    HW137218  43.730  -6.842   0.731
11737SOL    HW237219  -0.492   4.228   0.865
11738SOL     OW37220   5.357   4.510   6.043
11738SOL    HW137221  16.480   4.503  -5.042
11738SOL    HW237222   5.314 -28.693  -5.013
11739SOL     OW37223   7.297  10.107   7.647
11739SOL    HW137224   7.390  10.131  18.679
11739SOL    HW237225   7.283  21.087   7.573
11740SOL     OW37226   6.860   8.456   0.153
11740SOL    HW137227  -4.204  -2.505   0.105
11740SOL    HW237228   6.833   8.384   0.095
11741SOL     OW37229   1.921   4.602   8.086
11741SOL    HW137230   1.998   4.643   8.127
11741SOL    HW237231  -9.185 -17.408  -2.954
11742SOL     OW37232   5.541   7.369   7.012
11742SOL    HW137233  -5.430   7.417  -3.982
11742SOL    HW237234  49.687  18.329  -3.976
11743SOL     OW37235   7.123   9.618   8.591
11743SOL    HW137236   7.189  -1.392  -2.511
11743SOL    HW237237  -4.000   9.637  19.588
11744SOL     OW37238   7.064   7.070   7.949
11744SOL    HW137239   7.112  40.237   8.015
11744SOL    HW237240  40.126  18.050   7.999
11745SOL     OW37241   8.871   8.288   5.996
11745SOL    HW137242  19.905   8.330   6.081
11745SOL    HW237243   8.943   8.226   6.005
11746SOL     OW37244  -0.422   0.382  10.904
11746SOL    HW137245  10.672   0.343  10.836
11746SOL    HW237246  10.530   0.385  10.866
11747SOL     OW37247   3.750   6.921   9.952
11747SOL    HW137248   3.790  -4.082  10.031
11747SOL    HW237249  -7.271   6.985   9.883
11748SOL     OW37250   2.508   6.994   2.104
11748SOL    HW137251   2.497   6.930   2.174
11748SOL    HW237252  24.513   6.980   2.045
11749SOL     OW37253   3.950   3.908   3.559
11749SOL    HW137254  -7.026   3.974  14.628
11749SOL    HW237255   3.977   3.887  -7.570
11750SOL     OW37256   9.730   1.639   9.866
11750SOL    HW137257  -1.308  12.603   9.925
11750SOL    HW237258  -1.392   1.683  20.925
11751SOL     OW37259  10.425   0.848   4.173
11751SOL    HW137260  10.409   0.797   4.093
11751SOL    HW237261  10.517 -10.207   4.193
11752SOL     OW37262   2.715  11.646  10.618
11752SOL    HW137263   2.724  11.667  10.711
11752SOL    HW237264   2.757   0.679  -0.467
11753SOL     OW37265   5.798   1.317   8.324
11753SOL    HW137266   5.776   1.374   8.397
11753SOL    HW237267   5.812   1.231  -2.676
11754SOL     OW37268   8.112   1.693   9.034
11754SOL    HW137269   8.169  -9.284   9.079
11754SOL    HW237270  -3.013   1.736   9.030
11755SOL     OW37271   0.657   5.637   5.042
11755SOL    HW137272   0.744 -38.538   5.078
11755SOL    HW237273  22.675   5.605 -16.970
11756SOL     OW37274   2.303  10.312   1.007
11756SOL    HW137275   2.289  -0.659   1.072
11756SOL    HW237276   2.391  10.328   0.973
11757SOL     OW37277   8.491   8.209   7.767
11757SOL    HW137278 -13.568  30.368   7.718
11757SOL    HW237279   8.494   8.139  18.741
11758SOL     OW37280   1.999   9.175   5.307
11758SOL    HW137281 -31.199   9.161  -5.681
11758SOL    HW237282   2.050   9.096  27.399
11759SOL     OW37283   9.883  -0.594   2.165
11759SOL    HW137284   9.881  10.489  13.290
11759SOL    HW237285  -1.100  32.449   2.178
11760SOL     OW37286   4.606   9.292   5.009
11760SOL    HW137287 -17.497   9.384   5.022
11760SOL    HW237288  -6.507 -12.837  27.122
11761SOL     OW37289   7.161   4.493   1.736
11761SOL    HW137290  -3.805   4.441   1.768
11761SOL    HW237291 -14.883   4.541   1.661
11762SOL     OW37292   5.720   8.993   7.508
11762SOL    HW137293  -5.341   8.910   7.464
11762SOL    HW237294 -16.423   9.000  -3.461
11763SOL     OW37295   8.987   9.984   2.242
11763SOL    HW137296   8.920  10.038   2.283
11763SOL    HW237297  20.087   9.962  -8.726
11764SOL     OW37298   2.371   0.828   5.033
11764SOL    HW137299   2.353   0.900  -5.946
11764SOL    HW237300   2.292   0.823   4.979
11765SOL     OW37301   4.145   0.672   8.528
11765SOL    HW137302   4.229  33.815   8.488
11765SOL    HW237303   4.136  11.771   8.602
11766SOL     OW37304   4.582   3.406  10.195
11766SOL    HW137305  26.623   3.318  -0.850
11766SOL    HW237306   4.508  14.504  10.177
11767SOL     OW37307   4.735  -0.194   5.833
11767SOL    HW137308   4.713  -0.287  -5.209
11767SOL    HW237309   4.739  10.867  16.966
11768SOL     OW37310   9.667   7.474   4.943
11768SOL    HW137311   9.673   7.385   4.909
11768SOL    HW237312   9.672   7.529   4.865
11769SOL     OW37313  -1.500   2.164   7.519
11769SOL    HW137314  20.609   2.212   7.596
11769SOL    HW237315   9.598   2.089  29.592
11770SOL     OW37316   1.528   6.940   3.399
11770SOL    HW137317  34.665  17.915   3.330
11770SOL    HW237318  12.537  18.057   3.351
11771SOL     OW37319   5.072   0.969   1.354
11771SOL    HW137320   5.054   0.890   1.405
11771SOL    HW237321   5.087   1.037   1.420
11772SOL     OW37322   3.038   3.815   1.149
11772SOL    HW137323   3.024  25.979   1.108
11772SOL    HW237324   3.125   3.788   1.120
11773SOL     OW37325   8.142   7.478   5.722
11773SOL    HW137326  30.263   7.479  16.675
11773SOL    HW237327  30.159   7.405   5.718
11774SOL     OW37328   8.202   6.913   7.774
11774SOL    HW137329   8.129   6.967   7.744
11774SOL    HW237330  30.259  17.864   7.745
11775SOL     OW37331  11.144   9.359   8.654
11775SOL    HW137332   0.023   9.349  -2.435
11775SOL    HW237333   0.138   9.444   8.627
11776SOL     OW37334   3.424   6.559   8.329
11776SOL    HW137335   3.391   6.520   8.248
11776SOL    HW237336   3.506   6.602   8.303
11777SOL     OW37337   3.952   5.918   6.217
11777SOL    HW137338   3.969   5.966  17.338
11777SOL    HW237339  15.077  27.961   6.193
11778SOL     OW37340   8.439   7.914  10.635
11778SOL    HW137341   8.441   7.896  -0.498
11778SOL    HW237342   8.480   8.001  -0.395
11779SOL     OW37343   2.502   1.670   3.890
11779SOL    HW137344 -19.570   1.602   3.823
11779SOL    HW237345   2.409   1.673   3.911
11780SOL     OW37346  10.924   6.788   4.684
11780SOL    HW137347  10.907   6.730   4.759
11780SOL    HW237348  11.007   6.830   4.704
11781SOL     OW37349   0.194  10.106   3.627
11781SOL    HW137350   0.116 -11.989   3.574
11781SOL    HW237351  11.298  10.043   3.593
11782SOL     OW37352   3.733   2.771   9.859
11782SOL    HW137353   3.705 -19.218   9.845
11782SOL    HW237354  -7.288   2.737  -1.268
11783SOL     OW37355   6.377   2.435  10.942
11783SOL    HW137356   6.401   2.453  -0.188
11783SOL    HW237357  17.336   2.486  10.956
11784SOL     OW37358   1.557   9.980   8.529
11784SOL    HW137359   1.596   9.962   8.444
11784SOL    HW237360 -20.575  10.059   8.515
11785SOL     OW37361   4.645   7.459   2.555
11785SOL    HW137362   4.553   7.437   2.568
11785SOL    HW237363  15.720   7.469  13.682
11786SOL     OW37364   4.064   2.470   3.995
11786SOL    HW137365   4.127  13.554 -18.027
11786SOL    HW237366   4.036   2.537  -7.106
11787SOL     OW37367   0.684   7.890   3.772
11787SOL    HW137368  33.792   7.795  14.815
11787SOL    HW237369   0.753   7.909  14.875
11788SOL     OW37370   4.818   3.387   5.422
11788SOL    HW137371   4.880  -7.680  -5.550
11788SOL    HW237372  15.870   3.481  16.453
11789SOL     OW37373   0.411   6.277   7.292
11789SOL    HW137374   0.349  -4.815  18.281
11789SOL    HW237375   0.497  -4.785   7.255
11790SOL     OW37376  10.280   2.619   2.490
11790SOL    HW137377  10.187  13.637  -8.550
11790SOL    HW237378  10.323  35.662   2.449
11791SOL     OW37379   3.235  10.193   2.110
11791SOL    HW137380   3.246  10.228   2.198
11791SOL    HW237381   3.315  10.218  13.103
11792SOL     OW37382  -0.044   8.311   3.641
11792SOL    HW137383  11.019   8.376   3.574
11792SOL    HW237384   0.036   8.301   3.693
11793SOL     OW37385   9.794   2.131   8.058
11793SOL    HW137386   9.800  13.143   7.966
11793SOL    HW237387   9.748  13.098 -13.978
11794SOL     OW37388   9.814   4.803   1.430
11794SOL    HW137389 -12.210   4.879  -9.626
11794SOL    HW237390  -1.236  15.801   1.345
11795SOL     OW37391   9.798   5.609   3.512
11795SOL    HW137392   9.801  16.553   3.505
11795SOL    HW237393   9.810  27.706  25.684
11796SOL     OW37394   9.269   0.683   8.520
11796SOL    HW137395   9.208   0.670   8.593
11796SOL    HW237396   9.346   0.724  41.679
11797SOL     OW37397   1.743   6.624  10.011
11797SOL    HW137398   1.697   6.622  43.213
11797SOL    HW237399  12.837   6.544 -12.068
11798SOL     OW37400   6.229   1.754   9.440
11798SOL    HW137401   6.138  23.806  20.470
11798SOL    HW237402   6.237   1.833   9.387
11799SOL     OW37403  10.537   6.990   4.496
11799SOL    HW137404  -0.457   6.927   4.552
11799SOL    HW237405  -0.573   6.940   4.456
11800SOL     OW37406   8.115   3.202   6.721
11800SOL    HW137407  -2.940   3.282  17.711
11800SOL    HW237408  30.114  -7.889   6.708
11801SOL     OW37409   7.298  -1.485   2.478
11801SOL    HW137410   7.389  20.567   2.465
11801SOL    HW237411   7.303   9.650   2.485
11802SOL     OW37412   1.281   7.589  10.026
11802SOL    HW137413   1.200   7.603   9.976
11802SOL    HW237414  45.425 -25.613  10.070
11803SOL     OW37415  10.023   1.781   2.292
11803SOL    HW137416 -11.979  34.893   2.236
11803SOL    HW237417   9.949   1.765   2.232
11804SOL     OW37418   0.587   9.384   1.768
11804SOL    HW137419   0.496  31.470  12.837
11804SOL    HW237420   0.618   9.301   1.803
11805SOL     OW37421   2.819  10.834   6.605
11805SOL    HW137422  -8.211  10.886   6.685
11805SOL    HW237423   2.728  10.805   6.606
11806SOL     OW37424   2.547   7.067   3.829
11806SOL    HW137425   2.520   6.981   3.795
11806SOL    HW237426   2.505   7.130   3.771
11807SOL     OW37427   8.550   1.349   9.664
11807SOL    HW137428  -2.444   1.315   9.588
11807SOL    HW237429   8.599  23.506   9.690
11808SOL     OW37430   9.999   6.734   6.154
11808SOL    HW137431  -1.117   6.730   6.097
11808SOL    HW237432  21.061  17.866   6.158
11809SOL     OW37433   5.318   1.276   8.800
11809SOL    HW137434   5.405  -9.788   8.831
11809SOL    HW237435   5.258   1.230 -24.260
11810SOL     OW37436  11.325   9.571   6.512
11810SOL    HW137437  11.251   9.513   6.530
11810SOL    HW237438   0.308   9.553  17.460
11811SOL     OW37439   2.684   3.873   7.819
11811SOL    HW137440   2.678 -18.278  18.921
11811SOL    HW237441   2.617  -7.186   7.753
11812SOL     OW37442   3.346   0.100   1.123
11812SOL    HW137443  14.433   0.107   1.040
11812SOL    HW237444   3.279   0.168   1.118
11813SOL     OW37445   8.614   0.563   2.242
11813SOL    HW137446  19.694   0.563   2.155
11813SOL    HW237447   8.560  44.642  -8.796
11814SOL     OW37448   7.370   9.594   3.733
11814SOL    HW137449   7.330   9.604   3.647
11814SOL    HW237450  -3.689   9.677   3.777
11815SOL     OW37451  10.287   5.759   0.078
11815SOL    HW137452  10.208 -16.333   0.129
11815SOL    HW237453  10.316   5.848   0.099
11816SOL     OW37454   5.018   8.147   0.752
11816SOL    HW137455   5.075  19.124   0.707
11816SOL    HW237456  16.067   8.228   0.702
11817SOL     OW37457   2.749   2.746  11.654
11817SOL    HW137458  13.746  -8.378  11.666
11817SOL    HW237459   2.781  -8.295 -10.516
11818SOL     OW37460   7.562   1.364   7.547
11818SOL    HW137461  29.699   1.404   7.482
11818SOL    HW237462   7.619   1.307   7.598
11819SOL     OW37463   1.272  10.723   9.721
11819SOL    HW137464   1.271  10.627  20.759
11819SOL    HW237465   1.283  10.745   9.814
11820SOL     OW37466   8.817   1.480  11.554
11820SOL    HW137467  19.884  67.626  11.559
11820SOL    HW237468 -24.342  12.529 -10.612
11821SOL     OW37469   8.107   2.560   6.707
11821SOL    HW137470   8.064   2.543   6.790
11821SOL    HW237471  19.239   2.540   6.723
11822SOL     OW37472   0.075  -0.295   6.609
11822SOL    HW137473   0.112  -0.317   6.695
11822SOL    HW237474   0.024  10.824  -4.415
11823SOL     OW37475   3.042   1.552   1.240
11823SOL    HW137476  14.005   1.589   1.196
11823SOL    HW237477   3.050  -9.437   1.321
11824SOL     OW37478   4.013   1.958   8.186
11824SOL    HW137479   3.970   1.970   8.101
11824SOL    HW237480   3.949   1.911  -2.801
11825SOL     OW37481   3.401   9.918   7.161
11825SOL    HW137482   3.452   9.843   7.131
11825SOL    HW237483   3.465   9.974  18.244
11826SOL     OW37484  10.694   2.658   2.393
11826SOL    HW137485 -11.472   2.696   2.409
11826SOL    HW237486  10.755   2.722   2.430
11827SOL     OW37487   8.865   3.004   6.289
11827SOL    HW137488  19.894   3.093   6.255
11827SOL    HW237489   8.821  25.028   6.224
11828SOL     OW37490   3.029   1.001   3.508
11828SOL    HW137491  14.064   1.065  25.658
11828SOL    HW237492   3.011 -10.123  14.591
11829SOL     OW37493   7.071  10.155   5.364
11829SOL    HW137494   7.018  10.093   5.415
11829SOL    HW237495 -14.921  10.149   5.403
11830SOL     OW37496   8.098   2.840   8.829
11830SOL    HW137497   8.116   2.748   8.809
11830SOL    HW237498   8.183   2.878   8.850
11831SOL     OW37499   6.724   2.158   0.709
11831SOL    HW137500   6.685   2.245 -10.335
11831SOL    HW237501  28.733   2.099   0.680
11832SOL     OW37502   1.650  10.612   9.230
11832SOL    HW137503  12.703  10.612   9.135
11832SOL    HW237504   1.640  10.519  20.292
11833SOL     OW37505   4.002   9.214   3.222
11833SOL    HW137506  15.032   9.121   3.243
11833SOL    HW237507   4.025  20.295   3.305
11834SOL     OW37508   4.480   5.696   0.289
11834SOL    HW137509   4.571   5.697   0.260
11834SOL    HW237510  -6.568 -16.306   0.345
11835SOL     OW37511  -1.581   6.209   6.136
11835SOL    HW137512  20.420  -4.788   6.171
11835SOL    HW237513  20.500  -4.916   6.180
11836SOL     OW37514   1.474   5.826   3.645
11836SOL    HW137515   1.404 -27.346   3.609
11836SOL    HW237516   1.463   5.911   3.604
11837SOL     OW37517  12.352   5.980  10.571
11837SOL    HW137518 -20.834 -16.048  21.655
11837SOL    HW237519  12.432   5.994  -0.417
11838SOL     OW37520   6.077   7.723   3.319
11838SOL    HW137521   6.108  18.825   3.385
11838SOL    HW237522   6.007  18.714 -18.716
11839SOL     OW37523   1.677   2.986   6.275
11839SOL    HW137524  -9.434  14.008  17.376
11839SOL    HW237525   1.708   2.900 -15.831
11840SOL     OW37526   2.061  10.256   2.752
11840SOL    HW137527   1.966  10.265  24.833
11840SOL    HW237528   2.080  -0.848   2.821
11841SOL     OW37529   5.674   3.886   4.875
11841SOL    HW137530   5.629   3.955 -17.157
11841SOL    HW237531   5.687   3.921  -6.253
11842SOL     OW37532   0.586   9.755   6.340
11842SOL    HW137533  11.557   9.692   6.317
11842SOL    HW237534   0.606   9.800   6.258
11843SOL     OW37535   4.577   6.209   0.123
11843SOL    HW137536  -6.419   6.286   0.159
11843SOL    HW237537   4.594   6.140   0.187
11844SOL     OW37538   9.825  11.135   7.892
11844SOL    HW137539   9.755 -10.986   7.942
11844SOL    HW237540   9.905  22.134   7.926
11845SOL     OW37541   1.012   2.753   0.235
11845SOL    HW137542 -10.104  13.739   0.258
11845SOL    HW237543   0.978   2.842   0.234
11846SOL     OW37544   2.890   5.581   4.353
11846SOL    HW137545   2.924   5.528   4.424
11846SOL    HW237546 -19.197   5.519  15.319
11847SOL     OW37547   6.039  10.157   9.488
11847SOL    HW137548  17.105  10.189   9.574
11847SOL    HW237549  16.992  10.119   9.503
11848SOL     OW37550   6.615   1.635   3.615
11848SOL    HW137551   6.710   1.626  14.656
11848SOL    HW237552   6.598   1.701   3.548
11849SOL     OW37553   4.107   0.863   9.108
11849SOL    HW137554   4.133   0.839  -1.842
11849SOL    HW237555   4.059   0.787   9.076
11850SOL     OW37556   6.441   2.779   1.790
11850SOL    HW137557   6.533   2.788 -20.264
11850SOL    HW237558  -4.623   2.691   1.818
11851SOL     OW37559   4.840   0.886  10.329
11851SOL    HW137560   4.867   0.798  10.303
11851SOL    HW237561   4.922   0.933 -11.737
11852SOL     OW37562   1.741   2.689  10.695
11852SOL    HW137563  -9.287   2.756  10.762
11852SOL    HW237564   1.672   2.722  10.638
11853SOL     OW37565  10.963   2.204   8.593
11853SOL    HW137566  11.006   2.281   8.630
11853SOL    HW237567  10.965  -8.901  -2.377
11854SOL     OW37568   3.135   9.600   9.393
11854SOL    HW137569  14.118   9.524   9.387
11854SOL    HW237570   3.116   9.638   9.479
11855SOL     OW37571   9.101   7.633   3.526
11855SOL    HW137572   9.059   7.588   3.598
11855SOL    HW237573   9.034  -3.403  25.537
11856SOL     OW37574  10.768   9.384   4.624
11856SOL    HW137575  10.686   9.371   4.671
11856SOL    HW237576  10.745   9.378   4.531
11857SOL     OW37577   1.755   6.458   3.465
11857SOL    HW137578  -9.306   6.503   3.383
11857SOL    HW237579  -9.331  17.546   3.533
11858SOL     OW37580   2.209   8.705   3.643
11858SOL    HW137581   2.190   8.768   3.712
11858SOL    HW237582  35.402  19.781  25.675
11859SOL     OW37583   2.469   6.410   6.495
11859SOL    HW137584   2.439   6.472  17.468
11859SOL    HW237585  24.624   6.454   6.535
11860SOL     OW37586   9.352   6.953   7.482
11860SOL    HW137587  -1.777  40.040   7.496
11860SOL    HW237588   9.385  -4.067  -3.469
11861SOL     OW37589  -0.256   4.662   8.444
11861SOL    HW137590  32.861  26.801   8.519
11861SOL    HW237591  -0.168   4.625   8.445
11862SOL     OW37592   8.146   1.548   9.748
11862SOL    HW137593   8.119   1.542 -12.240
11862SOL    HW237594   8.085 -20.468   9.709
11863SOL     OW37595   5.713   0.420   4.596
11863SOL    HW137596   5.807   0.427   4.579
11863SOL    HW237597   5.697   0.326  -6.438
11864SOL     OW37598   2.869   6.111   4.840
11864SOL    HW137599   2.847   6.032   4.888
11864SOL    HW237600   2.860   6.086   4.748
11865SOL     OW37601   2.467   4.124   5.920
11865SOL    HW137602   2.500   4.041   5.886
11865SOL    HW237603   2.439   4.105  -5.030
11866SOL     OW37604   9.632   6.979   1.929
11866SOL    HW137605   9.550   6.934   1.911
11866SOL    HW237606  20.707   6.936   2.006
11867SOL     OW37607   3.507   9.040   8.483
11867SOL    HW137608   3.462   9.123   8.469
11867SOL    HW237609  25.661   9.042   8.423
11868SOL     OW37610   4.270   6.775   3.167
11868SOL    HW137611   4.353  39.902   3.214
11868SOL    HW237612 -17.875   6.768   3.236
11869SOL     OW37613   1.309   7.516   7.738
11869SOL    HW137614   1.329  -3.606   7.783
11869SOL    HW237615  23.312   7.550   7.783
11870SOL     OW37616   6.223   6.845  -0.285
11870SOL    HW137617 -15.813   6.883  10.831
11870SOL    HW237618   6.287   6.785  21.757
11871SOL     OW37619   9.836  11.533   7.491
11871SOL    HW137620   9.898 -10.613   7.518
11871SOL    HW237621  20.792  11.507  -3.510
11872SOL     OW37622  10.417   7.159   2.523
11872SOL    HW137623  10.491  18.149   2.488
11872SOL    HW237624  10.430   7.248   2.492
11873SOL     OW37625   6.937   0.583  -0.418
11873SOL    HW137626   6.874   0.510  10.619
11873SOL    HW237627   6.892   0.652  10.671
11874SOL     OW37628   7.258   6.503   7.119
11874SOL    HW137629   7.326   6.522   7.054
11874SOL    HW237630   7.297   6.438 -25.941
11875SOL     OW37631  10.092   8.174   5.769
11875SOL    HW137632  21.221   8.149  -5.249
11875SOL    HW237633  10.041   8.095   5.785
11876SOL     OW37634  10.320   1.779   2.607
11876SOL    HW137635  10.315  -9.281  24.593
11876SOL    HW237636  10.355   1.701   2.648
11877SOL     OW37637   5.773   5.825  13.692
11877SOL    HW137638  16.849  16.863  13.781
11877SOL    HW237639  16.718  27.896 -41.492
11878SOL     OW37640  11.118   4.817   3.502
11878SOL    HW137641   0.131  15.915   3.557
11878SOL    HW237642   0.003   4.794   3.557
11879SOL     OW37643   8.374   6.301   2.799
11879SOL    HW137644   8.419  -4.821   2.818
11879SOL    HW237645   8.410   6.362   2.864
11880SOL     OW37646   9.723   1.824   7.046
11880SOL    HW137647   9.725  12.958   7.065
11880SOL    HW237648   9.759   1.783   7.124
11881SOL     OW37649   2.037  13.040   9.501
11881SOL    HW137650  -9.024 -20.014   9.568
11881SOL    HW237651   2.124   1.969   9.524
11882SOL     OW37652   7.198   8.904   3.346
11882SOL    HW137653  -3.932  19.914   3.341
11882SOL    HW237654  -3.828   8.925   3.438
11883SOL     OW37655  10.982  10.444   6.473
11883SOL    HW137656  11.052  10.401   6.522
11883SOL    HW237657  10.934  10.495   6.538
11884SOL     OW37658   8.836   5.646   0.139
11884SOL    HW137659   8.821   5.583   0.069
11884SOL    HW237660 -13.289   5.610   0.215
11885SOL     OW37661   4.734  10.457   9.559
11885SOL    HW137662   4.758  -0.600 -12.611
11885SOL    HW237663   4.666  10.524   9.553
11886SOL     OW37664   9.345   2.307   2.708
11886SOL    HW137665   9.431   2.265  13.741
11886SOL    HW237666   9.291   2.260   2.643
11887SOL     OW37667   9.795   6.175   0.996
11887SOL    HW137668  20.830   6.145   0.905
11887SOL    HW237669   9.707  17.198 -10.009
11888SOL     OW37670   0.135   0.855   3.212
11888SOL    HW137671   0.078  11.920   3.285
11888SOL    HW237672   0.198   0.926   3.206
11889SOL     OW37673   5.500   5.013  10.093
11889SOL    HW137674   5.480  -6.120  10.087
11889SOL    HW237675  16.634   5.017  -0.937
11890SOL     OW37676   4.452   1.043   2.638
11890SOL    HW137677  -6.550   1.054   2.551
11890SOL    HW237678   4.509   0.980   2.681
11891SOL     OW37679   5.338   9.821   7.019
11891SOL    HW137680   5.418  -1.168  29.084
11891SOL    HW237681   5.285   9.839  29.021
11892SOL     OW37682   6.876   9.699   7.436
11892SOL    HW137683  -4.104   9.740   7.499
11892SOL    HW237684  -4.194   9.771   7.381
11893SOL     OW37685  10.536   3.052   1.984
11893SOL    HW137686  10.618  14.139   1.997
11893SOL    HW237687  10.557  25.041  -9.030
11894SOL     OW37688  10.984   9.367  10.115
11894SOL    HW137689  11.035  20.423  10.035
11894SOL    HW237690  11.050   9.357  10.183
11895SOL     OW37691   1.013   9.842   5.670
11895SOL    HW137692   1.103   9.874   5.672
11895SOL    HW237693   1.017   9.754  16.746
11896SOL     OW37694   8.595   5.411   9.256
11896SOL    HW137695   8.601  16.371   9.203
11896SOL    HW237696   8.511  16.490  20.270
11897SOL     OW37697   1.007  -0.924   6.977
11897SOL    HW137698   1.045  -0.921   7.065
11897SOL    HW237699   0.924  21.110   6.988
11898SOL     OW37700   1.516   9.506   2.484
11898SOL    HW137701   1.576   9.449 -19.547
11898SOL    HW237702   1.542   9.496  -8.647
11899SOL     OW37703   4.943   2.111   2.775
11899SOL    HW137704  15.949   2.158   2.851
11899SOL    HW237705   4.866  -8.945   2.720
11900SOL     OW37706   5.931  10.397  -1.083
11900SOL    HW137707  38.954  10.404  32.038
11900SOL    HW237708   5.948  10.306  -1.111
11901SOL     OW37709  11.019  11.064   4.080
11901SOL    HW137710 -11.096  11.048   3.993
11901SOL    HW237711  11.037 -22.142  -6.925
11902SOL     OW37712   2.370   7.628  -0.933
11902SOL    HW137713   2.321 -25.477  32.105
11902SOL    HW237714   2.370   7.713  10.150
11903SOL     OW37715   1.145   0.606   8.247
11903SOL    HW137716  -9.851   0.622  -2.708
11903SOL    HW237717   1.076   0.543  19.307
11904SOL     OW37718  -3.152   1.786  11.026
11904SOL    HW137719  29.970   1.699  11.066
11904SOL    HW237720  40.935   1.831  11.072
11905SOL     OW37721   4.414   7.757   9.467
11905SOL    HW137722   4.335   7.711 -23.677
11905SOL    HW237723   4.391   7.850   9.462
11906SOL     OW37724  10.057  -0.112   7.657
11906SOL    HW137725 -34.042  10.876   7.602
11906SOL    HW237726  21.154  -0.049  -3.338
11907SOL     OW37727   4.102   7.304   4.533
11907SOL    HW137728  -6.998  18.374   4.601
11907SOL    HW237729  -6.876   7.248  -6.460
11908SOL     OW37730   4.697  10.014   1.037
11908SOL    HW137731  -6.288   9.991   0.962
11908SOL    HW237732   4.704   9.940  12.136
11909SOL     OW37733   7.132   1.503   5.233
11909SOL    HW137734   7.222  -9.544   5.264
11909SOL    HW237735   7.138  -9.540  -5.902
11910SOL     OW37736   9.263   2.187   4.758
11910SOL    HW137737   9.300   2.153   4.840
11910SOL    HW237738  -1.868  13.243   4.779
11911SOL     OW37739  10.479   3.024  11.000
11911SOL    HW137740  -0.534   3.104  11.046
11911SOL    HW237741  10.546  14.051  10.933
11912SOL     OW37742   3.589   7.911   4.053
11912SOL    HW137743 -18.555   7.855  -7.031
11912SOL    HW237744  -7.414   7.964  -7.057
11913SOL     OW37745   1.507  11.036  10.172
11913SOL    HW137746   1.503  -0.003 -23.042
11913SOL    HW237747   1.580  10.977  -0.847
11914SOL     OW37748   4.549   7.617   3.435
11914SOL    HW137749 -28.525   7.561   3.498
11914SOL    HW237750   4.516  -3.349   3.487
11915SOL     OW37751   3.148   8.512   5.517
11915SOL    HW137752   3.237   8.525   5.549
11915SOL    HW237753   3.106   8.598   5.528
11916SOL     OW37754   4.445   5.612   9.308
11916SOL    HW137755   4.374   5.558   9.343
11916SOL    HW237756   4.513  27.629   9.286
11917SOL     OW37757   4.613   5.279   9.021
11917SOL    HW137758   4.575 -27.826  31.187
11917SOL    HW237759  26.719 -27.752  20.032
11918SOL     OW37760   0.775   4.054   9.826
11918SOL    HW137761   0.702  -6.938   9.788
11918SOL    HW237762  11.793   3.962   9.814
11919SOL     OW37763   2.523   2.576   2.219
11919SOL    HW137764  13.635  -8.481   2.279
11919SOL    HW237765   2.529   2.670   2.201
11920SOL     OW37766   6.976   9.349   0.147
11920SOL    HW137767   6.938   9.413   0.087
11920SOL    HW237768  -4.106   9.366  33.350
11921SOL     OW37769   9.421   3.071   6.072
11921SOL    HW137770  31.456  -8.054   6.080
11921SOL    HW237771   9.496   3.065  -4.908
11922SOL     OW37772   3.074   8.826   1.999
11922SOL    HW137773   3.099   8.844   2.090
11922SOL    HW237774   3.046   8.735  13.039
11923SOL     OW37775   3.341   9.236  10.439
11923SOL    HW137776   3.332 -12.906  -0.529
11923SOL    HW237777   3.308   9.318  10.475
11924SOL     OW37778  10.664   9.840   3.323
11924SOL    HW137779  10.721  20.949   3.354
11924SOL    HW237780  10.671   9.771 -18.690
11925SOL     OW37781   8.006   7.575   2.772
11925SOL    HW137782  19.068   7.587 -19.214
11925SOL    HW237783  19.086   7.492   2.749
11926SOL     OW37784   6.662   6.725   7.655
11926SOL    HW137785   6.651   6.652   7.716
11926SOL    HW237786  -4.284 -26.372   7.660
11927SOL     OW37787  10.770  10.252   4.841
11927SOL    HW137788 -11.327  10.343  15.905
11927SOL    HW237789  10.835  10.258   4.771
11928SOL     OW37790   2.689   0.048   7.781
11928SOL    HW137791   2.757  11.072  -3.324
11928SOL    HW237792 -41.500  -0.039   7.805
11929SOL     OW37793  10.147   1.150  11.822
11929SOL    HW137794  -0.894  23.197   0.873
11929SOL    HW237795  10.057   1.136   0.751
11930SOL     OW37796   8.467   1.537   7.788
11930SOL    HW137797   8.458   1.442   7.795
11930SOL    HW237798   8.462   1.554   7.694
11931SOL     OW37799  10.926   7.296   8.758
11931SOL    HW137800  -0.196   7.345   8.758
11931SOL    HW237801  21.956   7.232   8.687
11932SOL     OW37802   7.850   5.223  -2.045
11932SOL    HW137803  29.986  -5.839   9.068
11932SOL    HW237804   7.797  -5.744  31.106
11933SOL     OW37805   2.190   7.521   2.578
11933SOL    HW137806   2.218   7.504   2.668
11933SOL    HW237807   2.134   7.447 -19.524
11934SOL     OW37808   0.112   9.001   2.382
11934SOL    HW137809  11.146  20.050   2.477
11934SOL    HW237810   0.024   8.973   2.356
11935SOL     OW37811   3.828   8.798   8.615
11935SOL    HW137812   3.840   8.813  19.561
11935SOL    HW237813  -7.294   8.751   8.622
11936SOL     OW37814   4.107   5.737   4.506
11936SOL    HW137815  -6.889   5.813  -6.495
11936SOL    HW237816   4.135   5.739  26.493
11937SOL     OW37817  10.576   6.043   7.096
11937SOL    HW137818  10.519 -16.095   7.046
11937SOL    HW237819  10.646   6.065  29.113
11938SOL     OW37820   1.107   5.083   8.832
11938SOL    HW137821   1.106   5.012   8.768
11938SOL    HW237822   1.020  16.121   8.871
11939SOL     OW37823   1.286   9.889   0.398
11939SOL    HW137824  -9.805   9.947   0.454
11939SOL    HW237825   1.309  20.983   0.323
11940SOL     OW37826  10.536   6.015   4.327
11940SOL    HW137827  10.627   5.993   4.349
11940SOL    HW237828  10.527   6.107   4.354
11941SOL     OW37829   8.189   9.268   2.875
11941SOL    HW137830   8.251   9.319  13.863
11941SOL    HW237831   8.192   9.306   2.962
11942SOL     OW37832  -0.612  10.461   5.547
11942SOL    HW137833  -0.691  10.408   5.533
11942SOL    HW237834  10.408  -0.494  16.547
11943SOL     OW37835   1.354  -0.176   3.758
11943SOL    HW137836   1.352  21.888  14.892
11943SOL    HW237837  45.566  -0.098  25.826
11944SOL     OW37838   4.740   0.206   6.393
11944SOL    HW137839   4.759   0.130  28.528
11944SOL    HW237840   4.819  11.255   6.340
11945SOL     OW37841   9.811   4.678   5.125
11945SOL    HW137842  31.864   4.758   5.078
11945SOL    HW237843 -12.344   4.657  16.218
11946SOL     OW37844   2.812  10.451   7.407
11946SOL    HW137845   2.837  10.531   7.360
11946SOL    HW237846   2.730  10.424  -3.674
11947SOL     OW37847   0.241   4.799  12.351
11947SOL    HW137848   0.257   4.821  12.259
11947SOL    HW237849  22.398   4.750 -20.741
11948SOL     OW37850   4.312   7.709  10.260
11948SOL    HW137851   4.336 -25.450  10.343
11948SOL    HW237852   4.362  -3.249  10.258
11949SOL     OW37853  -0.950   5.362  -0.228
11949SOL    HW137854  32.117  16.321  32.885
11949SOL    HW237855  -0.881   5.350  -0.293
11950SOL     OW37856   4.007   8.068   7.039
11950SOL    HW137857  -7.121   8.079   7.002
11950SOL    HW237858   4.062  41.167  18.002
11951SOL     OW37859   9.863   2.025   3.949
11951SOL    HW137860  20.839  -8.944  -7.083
11951SOL    HW237861   9.871   2.010   3.855
11952SOL     OW37862   0.269   4.274  10.634
11952SOL    HW137863   0.292   4.213  10.564
11952SOL    HW237864   0.179   4.250  10.658
11953SOL     OW37865   4.643   4.159   8.707
11953SOL    HW137866 -17.368   4.188  19.808
11953SOL    HW237867   4.567   4.214  -2.312
11954SOL     OW37868   3.241   5.892   2.431
11954SOL    HW137869   3.211   5.893   2.522
11954SOL    HW237870   3.220  27.884   2.400
11955SOL     OW37871   2.454  11.992   2.913
11955SOL    HW137872   2.366  11.955   2.906
11955SOL    HW237873  13.479  -9.997   2.942
11956SOL     OW37874   4.483   3.227   9.636
11956SOL    HW137875   4.560  -7.868  20.687
11956SOL    HW237876   4.411   3.176   9.675
11957SOL     OW37877  10.790   3.000   4.719
11957SOL    HW137878  10.842   2.924  15.784
11957SOL    HW237879  10.849   3.074   4.731
11958SOL     OW37880   6.556  11.245   6.366
11958SOL    HW137881   6.569   0.129   6.421
11958SOL    HW237882   6.514  11.211   6.287
11959SOL     OW37883   4.433   0.790   5.110
11959SOL    HW137884  26.592  11.862   5.152
11959SOL    HW237885   4.464  11.763   5.048
11960SOL     OW37886   1.244   3.820   1.285
11960SOL    HW137887   1.255   3.730   1.254
11960SOL    HW237888   1.246   3.873   1.205
11961SOL     OW37889   8.553   4.119   2.276
11961SOL    HW137890  41.690  15.127   2.187
11961SOL    HW237891  19.629  15.247   2.277
11962SOL     OW37892   1.252   0.455   0.606
11962SOL    HW137893   1.261   0.449   0.701
11962SOL    HW237894  -9.809  11.587   0.590
11963SOL     OW37895  10.723   4.595   5.411
11963SOL    HW137896  -0.342 -17.524   5.494
11963SOL    HW237897  10.655  -6.380   5.394
11964SOL     OW37898  -0.701   3.358   7.783
11964SOL    HW137899  -0.654   3.437  18.851
11964SOL    HW237900  21.434   3.286   7.811
11965SOL     OW37901   9.364  10.945   6.323
11965SOL    HW137902   9.333  10.996   6.399
11965SOL    HW237903  -1.746  10.883   6.305
11966SOL     OW37904   5.330   0.640   5.111
11966SOL    HW137905   5.303 -10.481  16.193
11966SOL    HW237906   5.277   0.644  16.071
11967SOL     OW37907  -0.119   7.111   4.783
11967SOL    HW137908  22.044   7.156  15.817
11967SOL    HW237909  -0.182   7.174   4.747
11968SOL     OW37910   9.619   9.967   6.356
11968SOL    HW137911  20.613   9.907   6.298
11968SOL    HW237912   9.651  10.037   6.299
11969SOL     OW37913   5.740   9.345   4.868
11969SOL    HW137914   5.757   9.424   4.919
11969SOL    HW237915   5.705   9.282   4.931
11970SOL     OW37916  10.135  10.457  10.322
11970SOL    HW137917  21.253  10.512  -0.715
11970SOL    HW237918  10.096  10.467  10.409
11971SOL     OW37919   2.124   8.973   3.188
11971SOL    HW137920   2.135  20.107   3.194
11971SOL    HW237921   2.082   8.958   3.103
11972SOL     OW37922   9.215  10.374   2.622
11972SOL    HW137923   9.194  10.463  35.766
11972SOL    HW237924   9.273  10.384  13.585
11973SOL     OW37925   5.438   2.490   2.606
11973SOL    HW137926   5.403   2.576   2.627
11973SOL    HW237927   5.402  13.472   2.673
11974SOL     OW37928  11.511   6.164   6.460
11974SOL    HW137929  11.438  -4.865 -15.680
11974SOL    HW237930   0.521   6.245 -15.627
11975SOL     OW37931  -0.496  -3.054   0.081
11975SOL    HW137932  10.557  19.119   0.069
11975SOL    HW237933  -0.539  30.057   0.166
11976SOL     OW37934   3.702   5.598   3.598
11976SOL    HW137935   3.615  16.659   3.564
11976SOL    HW237936   3.696  16.546   3.624
11977SOL     OW37937   1.386   1.776   2.025
11977SOL    HW137938  12.394  34.933   2.106
11977SOL    HW237939  12.494  -9.203   1.995
11978SOL     OW37940   5.389   5.043   2.514
11978SOL    HW137941   5.318 -16.986   2.474
11978SOL    HW237942   5.429   5.103  -8.463
11979SOL     OW37943   6.558   8.830   7.015
11979SOL    HW137944   6.479   8.781   7.035
11979SOL    HW237945   6.628   8.781   7.057
11980SOL     OW37946   1.573   4.620  10.254
11980SOL    HW137947   1.649   4.593  10.306
11980SOL    HW237948  12.644   4.616  10.163
11981SOL     OW37949   8.069   6.823   4.585
11981SOL    HW137950  41.110   6.822   4.530
11981SOL    HW237951   8.037   6.798   4.672
11982SOL     OW37952   7.871   4.397   7.890
11982SOL    HW137953   7.890   4.385  29.876
11982SOL    HW237954   7.796   4.457   7.893
11983SOL     OW37955   4.828   1.590   3.725
11983SOL    HW137956   4.805  23.619   3.803
11983SOL    HW237957   4.793   1.539   3.652
11984SOL     OW37958   5.205   0.396   6.140
11984SOL    HW137959  -5.795   0.451  17.247
11984SOL    HW237960   5.276   0.381  28.156
11985SOL     OW37961   8.265   4.965   4.091
11985SOL    HW137962   8.195  27.100  15.097
11985SOL    HW237963   8.244  -6.162   4.060
11986SOL     OW37964   7.059   2.925   9.161
11986SOL    HW137965   6.966   2.911  -1.862
11986SOL    HW237966   7.104  -8.168   9.227
11987SOL     OW37967   4.632  -0.251   7.383
11987SOL    HW137968   4.694  10.853   7.348
11987SOL    HW237969   4.570  -0.264   7.312
11988SOL     OW37970   4.321  10.530   6.024
11988SOL    HW137971   4.298  10.622   6.012
11988SOL    HW237972   4.284 -22.633   5.948
11989SOL     OW37973  10.685   8.550   1.012
11989SOL    HW137974  10.729   8.634 -10.021
11989SOL    HW237975  10.753   8.489   0.985
11990SOL     OW37976   5.815   3.209   3.989
11990SOL    HW137977  16.775   3.225   3.939
11990SOL    HW237978   5.869  -7.753   3.973
11991SOL     OW37979   6.371   3.169   8.615
11991SOL    HW137980   6.397   3.210   8.698
11991SOL    HW237981  -4.594   3.115   8.590
11992SOL     OW37982   6.594   7.961   8.900
11992SOL    HW137983  17.630   7.943  -2.233
11992SOL    HW237984   6.670   8.018   8.910
11993SOL     OW37985   4.850   7.766   0.796
11993SOL    HW137986   4.887   7.843   0.841
11993SOL    HW237987   4.845   7.793   0.705
11994SOL     OW37988  11.238   7.522   6.377
11994SOL    HW137989 -10.844   7.428   6.396
11994SOL    HW237990  11.188   7.533   6.296
11995SOL     OW37991   7.193   4.814  10.448
11995SOL    HW137992   7.128  26.955  10.414
11995SOL    HW237993   7.142 -17.343  10.471
11996SOL     OW37994   5.436   2.951   0.909
11996SOL    HW137995   5.390   2.867   0.897
11996SOL    HW237996  16.521   2.966   0.826
11997SOL     OW37997   1.233   5.833   3.193
11997SOL    HW137998  12.237  -5.204  -7.758
11997SOL    HW237999   1.259   5.742   3.180
11998SOL     OW38000   8.360   0.746   6.557
11998SOL    HW138001   8.434   0.700   6.518
11998SOL    HW238002  -2.677   0.834  -4.522
11999SOL     OW38003   5.106   9.423   3.484
11999SOL    HW138004   5.161   9.481  14.471
11999SOL    HW238005   5.027   9.475   3.501
12000SOL     OW38006   8.155   4.032   9.764
12000SOL    HW138007   8.084   3.979   9.801
12000SOL    HW238008  -2.846   3.976  31.776
12001SOL     OW38009   3.185   5.457   8.306
12001SOL    HW138010   3.115  27.533   8.371
12001SOL    HW238011   3.174   5.377   8.255
12002SOL     OW38012   9.664   3.806   8.757
12002SOL    HW138013   9.745  -7.285   8.757
12002SOL    HW238014   9.652   3.831   8.666
12003SOL     OW38015   0.931   1.673   0.195
12003SOL    HW138016  11.982  12.796  11.188
12003SOL    HW238017   0.914  34.818  44.444
12004SOL     OW38018  11.247   5.117   2.821
12004SOL    HW138019 -10.754   5.075   2.787
12004SOL    HW238020   0.239   5.192   2.871
12005SOL     OW38021   8.337   0.997   5.667
12005SOL    HW138022   8.394  12.075   5.734
12005SOL    HW238023   8.249   1.000   5.706
12006SOL     OW38024   1.445  10.911   6.040
12006SOL    HW138025   1.540  -0.140   6.049
12006SOL    HW238026  12.472  10.934 -16.131
12007SOL     OW38027   7.959   3.383   7.459
12007SOL    HW138028   7.911  14.488  -3.631
12007SOL    HW238029  19.071   3.357   7.403
12008SOL     OW38030   3.423   7.408  -0.965
12008SOL    HW138031  36.628  18.416  21.088
12008SOL    HW238032   3.419  -3.650  -0.871
12009SOL     OW38033  -0.309  12.175   7.014
12009SOL    HW138034  10.684 -20.860  -4.037
12009SOL    HW238035  -0.217  -9.879   7.022
12010SOL     OW38036   7.920   1.570   8.767
12010SOL    HW138037   7.996   1.534  -2.229
12010SOL    HW238038  -3.182   1.587  30.917
12011SOL     OW38039   3.444   0.724  10.292
12011SOL    HW138040   3.536   0.697  -0.741
12011SOL    HW238041   3.419   0.745  10.382
12012SOL     OW38042   7.963  11.318   6.018
12012SOL    HW138043   7.984  11.225   6.025
12012SOL    HW238044   7.921 -10.752   5.933
12013SOL     OW38045   4.862   2.999   4.104
12013SOL    HW138046  -6.164   2.904   4.114
12013SOL    HW238047  -6.102   3.039   4.146
12014SOL     OW38048   4.532   2.411   5.355
12014SOL    HW138049   4.614   2.460   5.343
12014SOL    HW238050   4.471   2.450   5.293
12015SOL     OW38051   4.993  10.837   7.283
12015SOL    HW138052  -6.107  10.802  18.258
12015SOL    HW238053   4.987  10.932  18.313
12016SOL     OW38054   4.441   3.900  10.702
12016SOL    HW138055   4.503  25.972  10.774
12016SOL    HW238056   4.495   3.917 -11.454
12017SOL     OW38057   2.422   3.175   2.417
12017SOL    HW138058   2.431   3.115   2.492
12017SOL    HW238059   2.512   3.201   2.397
12018SOL     OW38060   4.322   4.730   1.673
12018SOL    HW138061   4.352   4.750   1.762
12018SOL    HW238062   4.228   4.712   1.684
12019SOL     OW38063   3.927   9.816   7.596
12019SOL    HW138064  -7.127   9.908 -14.506
12019SOL    HW238065   4.021   9.803  40.703
12020SOL     OW38066   1.309   6.070   2.505
12020SOL    HW138067  12.311  17.090   2.591
12020SOL    HW238068   1.403   6.071   2.519
12021SOL     OW38069   1.687   2.321  11.137
12021SOL    HW138070   1.624   2.287   0.162
12021SOL    HW238071   1.730   2.243   0.063
12022SOL     OW38072   2.557   6.962   8.075
12022SOL    HW138073   2.604  17.996   8.157
12022SOL    HW238074  13.649  18.060   8.021
12023SOL     OW38075   5.521   9.491   8.670
12023SOL    HW138076   5.483  20.604   8.623
12023SOL    HW238077   5.612   9.487   8.640
12024SOL     OW38078   0.913   5.431  -0.536
12024SOL    HW138079   0.949   5.418  10.591
12024SOL    HW238080   0.848   5.500  -0.525
12025SOL     OW38081   3.925  -0.614   5.960
12025SOL    HW138082  -7.059  -0.571   6.025
12025SOL    HW238083  26.038  10.336   5.954
12026SOL     OW38084   0.209  10.367   2.186
12026SOL    HW138085   0.238  10.343   2.274
12026SOL    HW238086   0.199  21.501   2.188
12027SOL     OW38087   2.490   8.165   1.850
12027SOL    HW138088   2.529  19.151   1.920
12027SOL    HW238089   2.539   8.142  -9.268
12028SOL     OW38090   3.902   3.779   0.976
12028SOL    HW138091   3.965   3.843  23.023
12028SOL    HW238092   3.933   3.695   0.942
12029SOL     OW38093   9.181   5.389   7.419
12029SOL    HW138094   9.145   5.437   7.493
12029SOL    HW238095  -1.768   5.371   7.444
12030SOL     OW38096   6.709   2.298   8.762
12030SOL    HW138097   6.693 -19.827   8.844
12030SOL    HW238098  39.785   2.383   8.773
12031SOL     OW38099   9.241   7.597   1.094
12031SOL    HW138100  -1.771 -14.528   1.015
12031SOL    HW238101 -12.909  -3.385   1.065
12032SOL     OW38102   0.628   8.412   6.428
12032SOL    HW138103   0.536   8.429  17.450
12032SOL    HW238104   0.632   8.321  17.496
12033SOL     OW38105   1.882   5.846   5.481
12033SOL    HW138106   1.858  16.893   5.389
12033SOL    HW238107  -9.184   5.757 -16.573
12034SOL     OW38108   2.878   5.390  10.353
12034SOL    HW138109  24.916   5.450  10.291
12034SOL    HW238110   2.816   5.316  10.358
12035SOL     OW38111   4.421   1.216   0.032
12035SOL    HW138112   4.327   1.230   0.028
12035SOL    HW238113   4.450   1.218  -0.059
12036SOL     OW38114   0.904  11.842   1.469
12036SOL    HW138115 -10.196 -10.302   1.434
12036SOL    HW238116   0.912  11.820   1.562
12037SOL     OW38117   6.642  10.076   3.541
12037SOL    HW138118   6.571  10.017   3.518
12037SOL    HW238119   6.673  10.045   3.626
12038SOL     OW38120   9.130   6.268   6.034
12038SOL    HW138121  20.119   6.304   5.962
12038SOL    HW238122   9.160  -4.857   6.002
12039SOL     OW38123   5.774   9.111   6.616
12039SOL    HW138124   5.744   9.045  28.758
12039SOL    HW238125   5.808   9.059   6.543
12040SOL     OW38126  10.058   9.005   3.982
12040SOL    HW138127 -12.001   8.941  15.090
12040SOL    HW238128  -0.949 -24.031   4.017
12041SOL     OW38129   9.095   9.679   2.521
12041SOL    HW138130  -2.024  20.707  -8.467
12041SOL    HW238131  20.173   9.592   2.515
12042SOL     OW38132  10.267   5.174   9.294
12042SOL    HW138133  10.288   5.185   9.387
12042SOL    HW238134  10.259  16.119   9.282
12043SOL     OW38135   7.078   5.036   7.435
12043SOL    HW138136   7.086   4.941  18.483
12043SOL    HW238137   6.995 -17.023  40.597
12044SOL     OW38138   9.863  10.882   5.380
12044SOL    HW138139  -1.247  10.930  16.464
12044SOL    HW238140   9.931  10.873   5.446
12045SOL     OW38141   0.852   4.991   0.669
12045SOL    HW138142   0.864  -6.105   0.745
12045SOL    HW238143   0.926   4.970   0.612
12046SOL     OW38144   0.537  10.780   3.418
12046SOL    HW138145   0.569  10.857  36.583
12046SOL    HW238146   0.615  10.735   3.387
12047SOL     OW38147   4.893   7.597   8.622
12047SOL    HW138148  15.952   7.688   8.597
12047SOL    HW238149   4.978   7.553   8.617
12048SOL     OW38150   5.372   0.919  10.277
12048SOL    HW138151   5.422   0.915  10.359
12048SOL    HW238152  38.544   0.871  10.214
12049SOL     OW38153   4.202   7.737   8.779
12049SOL    HW138154  -6.925   7.724   8.743
12049SOL    HW238155   4.261   7.718 -13.374
12050SOL     OW38156  10.816   1.133   5.224
12050SOL    HW138157  10.846   1.210   5.174
12050SOL    HW238158  10.774  12.210  16.341
12051SOL     OW38159   0.048   5.543   4.789
12051SOL    HW138160  -0.037   5.584   4.809
12051SOL    HW238161   0.065   5.487   4.864
12052SOL     OW38162   9.034   2.939   4.260
12052SOL    HW138163   8.979 -19.196   4.205
12052SOL    HW238164   9.100   2.974   4.200
12053SOL     OW38165   5.208   8.005   3.796
12053SOL    HW138166  16.203   8.089  47.959
12053SOL    HW238167   5.206  -3.069  -7.154
12054SOL     OW38168   1.959   6.740   7.394
12054SOL    HW138169   1.878  17.782   7.445
12054SOL    HW238170   1.934  17.743   7.309
12055SOL     OW38171   2.262   2.194   3.178
12055SOL    HW138172   2.286  35.401 -40.956
12055SOL    HW238173  24.380  24.217   3.245
12056SOL     OW38174   5.693   1.299   1.313
12056SOL    HW138175 -16.452   1.367   1.300
12056SOL    HW238176   5.776   1.345   1.301
12057SOL     OW38177   0.520   8.161  10.445
12057SOL    HW138178   0.442   8.130  -0.549
12057SOL    HW238179   0.489  -2.852  10.359
12058SOL     OW38180   7.192   4.012   0.866
12058SOL    HW138181   7.275   3.981  11.942
12058SOL    HW238182   7.201  15.146  22.942
12059SOL     OW38183  10.753   0.530   6.618
12059SOL    HW138184  10.764   0.610   6.566
12059SOL    HW238185  10.776   0.555   6.707
12060SOL     OW38186   5.922  -0.943   4.450
12060SOL    HW138187   6.015  -0.935   4.468
12060SOL    HW238188   5.884  21.102   4.531
12061SOL     OW38189  11.824   1.837   6.206
12061SOL    HW138190 -43.353   1.752   6.168
12061SOL    HW238191  11.767   1.816  17.320
12062SOL     OW38192   5.967   4.522   2.782
12062SOL    HW138193  28.012  15.573   2.870
12062SOL    HW238194   6.033  15.630  13.812
12063SOL     OW38195   1.773   5.075   1.927
12063SOL    HW138196   1.796  16.141   1.838
12063SOL    HW238197   1.820   4.992   1.940
12064SOL     OW38198   9.472   8.114   2.792
12064SOL    HW138199  -1.579   8.053   2.865
12064SOL    HW238200   9.557  19.196   2.809
12065SOL     OW38201   5.609   6.922   2.960
12065SOL    HW138202   5.536   6.880   3.006
12065SOL    HW238203  16.712   6.940   3.029
12066SOL     OW38204   2.542   5.581   8.013
12066SOL    HW138205   2.598   5.510   8.045
12066SOL    HW238206   2.602   5.639  19.007
12067SOL     OW38207   4.449   2.441   2.127
12067SOL    HW138208   4.454   2.439   2.223
12067SOL    HW238209   4.504   2.515   2.101
12068SOL     OW38210  10.537   5.931   3.203
12068SOL    HW138211  10.476   5.858   3.192
12068SOL    HW238212  10.601  16.939  14.306
12069SOL     OW38213   5.862   5.638   9.177
12069SOL    HW138214  27.950  -5.436  20.305
12069SOL    HW238215   5.798   5.580   9.135
12070SOL     OW38216   5.679   3.062   8.252
12070SOL    HW138217   5.603   3.120   8.257
12070SOL    HW238218  -5.303  -7.935 -13.890
12071SOL     OW38219   4.965   4.858   3.850
12071SOL    HW138220   4.933  15.931   3.933
12071SOL    HW238221  27.120   4.912   3.829
12072SOL     OW38222   3.438   6.230   3.450
12072SOL    HW138223  14.553   6.254  14.436
12072SOL    HW238224   3.384   6.309   3.452
12073SOL     OW38225   2.271   4.679   7.806
12073SOL    HW138226  -8.724  -6.344   7.889
12073SOL    HW238227  -8.736  -6.446   7.778
12074SOL     OW38228   2.502   9.608   6.382
12074SOL    HW138229   2.513  -1.411  28.554
12074SOL    HW238230 -19.598  20.732   6.341
12075SOL     OW38231   7.907   7.123   2.296
12075SOL    HW138232   7.847   7.049 -19.788
12075SOL    HW238233  -3.180   7.195   2.254
12076SOL     OW38234   2.337   6.023  10.359
12076SOL    HW138235 -19.706   6.003  -0.594
12076SOL    HW238236   2.299   6.110  10.368
12077SOL     OW38237   4.829   1.233   7.879
12077SOL    HW138238 -17.290   1.242   7.793
12077SOL    HW238239   4.923   1.245   7.864
12078SOL     OW38240   0.638   9.078   9.483
12078SOL    HW138241   0.644   8.988   9.451
12078SOL    HW238242   0.632   9.132   9.404
12079SOL     OW38243   4.556   0.294   4.470
12079SOL    HW138244  -6.579   0.286   4.468
12079SOL    HW238245   4.572   0.388   4.461
12080SOL     OW38246   7.516   2.608   5.115
12080SOL    HW138247   7.543  -8.341   5.094
12080SOL    HW238248  18.636   2.566   5.145
12081SOL     OW38249  11.362   8.997   0.265
12081SOL    HW138250 -21.736   9.066   0.327
12081SOL    HW238251  22.420   9.036   0.179
12082SOL     OW38252   2.564   4.299   8.589
12082SOL    HW138253   2.632   4.293  -2.518
12082SOL    HW238254   2.483   4.280  -2.496
12083SOL     OW38255   6.981   0.920  -3.328
12083SOL    HW138256   7.012   0.831  51.850
12083SOL    HW238257  18.064   0.943   7.794
12084SOL     OW38258   6.074   6.474   7.824
12084SOL    HW138259   6.046   6.561   7.795
12084SOL    HW238260   6.032   6.414   7.763
12085SOL     OW38261   4.783   9.308  11.155
12085SOL    HW138262   4.762 -12.806   0.029
12085SOL    HW238263   4.819 -12.684  11.138
12086SOL     OW38264   3.603   0.919   0.639
12086SOL    HW138265   3.592   0.848   0.702
12086SOL    HW238266   3.686   0.901 -10.443
12087SOL     OW38267   9.591   8.650   3.656
12087SOL    HW138268   9.558  19.777   3.636
12087SOL    HW238269   9.652   8.662   3.728
12088SOL     OW38270   8.003   5.830   8.514
12088SOL    HW138271  -3.094 -16.175   8.531
12088SOL    HW238272  19.128  -5.170   8.495
12089SOL     OW38273   1.101   5.107   8.383
12089SOL    HW138274  12.204  27.249 -24.772
12089SOL    HW238275   1.139   5.021   8.365
12090SOL     OW38276   5.576   6.659   2.509
12090SOL    HW138277  -5.380   6.663   2.556
12090SOL    HW238278  16.638   6.627   2.422
12091SOL     OW38279  10.198   7.933   2.667
12091SOL    HW138280  10.258   7.860   2.680
12091SOL    HW238281  10.242  -3.050   2.604
12092SOL     OW38282   0.618   2.825   6.800
12092SOL    HW138283   0.649   2.837   6.890
12092SOL    HW238284  11.673   2.909   6.757
12093SOL     OW38285  -0.407   2.609   0.355
12093SOL    HW138286  -0.362  13.715   0.303
12093SOL    HW238287  10.624   2.534   0.297
12094SOL     OW38288   4.277   3.746   3.936
12094SOL    HW138289   4.201   3.687  14.971
12094SOL    HW238290   4.241  14.872   3.918
12095SOL     OW38291   1.202   2.897   8.402
12095SOL    HW138292   1.202   2.971   8.341
12095SOL    HW238293  23.188   2.877   8.415
12096SOL     OW38294   6.963   6.933   8.913
12096SOL    HW138295  40.025   6.944  -2.050
12096SOL    HW238296   6.993   7.022  19.932
12097SOL     OW38297   1.239   4.662   0.627
12097SOL    HW138298   1.300   4.694   0.561
12097SOL    HW238299   1.291  15.695   0.707
12098SOL     OW38300   0.588   3.158   8.529
12098SOL    HW138301   0.679   3.130  19.584
12098SOL    HW238302   0.595  -7.790   8.502
12099SOL     OW38303   6.596   1.944   4.921
12099SOL    HW138304  -4.379  13.041  16.003
12099SOL    HW238305  -4.397   1.862   4.906
12100SOL     OW38306   7.858   8.731   3.885
12100SOL    HW138307  -3.233   8.811   3.870
12100SOL    HW238308   7.794   8.660   3.878
12101SOL     OW38309   4.481   9.415   5.397
12101SOL    HW138310   4.553   9.359   5.426
12101SOL    HW238311  -6.522   9.504   5.399
12102SOL     OW38312   9.996   1.080   2.415
12102SOL    HW138313   9.918   1.125   2.448
12102SOL    HW238314   9.977   0.987   2.426
12103SOL     OW38315   9.769   3.287   6.728
12103SOL    HW138316   9.854   3.330   6.727
12103SOL    HW238317   9.789  -7.846   6.725
12104SOL     OW38318   4.619   4.842   6.584
12104SOL    HW138319 -17.556   4.842   6.588
12104SOL    HW238320  -6.393   4.784   6.654
12105SOL     OW38321   8.547   7.054   4.972
12105SOL    HW138322   8.574   7.115   4.903
12105SOL    HW238323   8.532   6.971   4.926
12106SOL     OW38324   1.637  11.812  10.197
12106SOL    HW138325   1.592 -32.380  -0.765
12106SOL    HW238326  12.607   0.779  10.131
12107SOL     OW38327   6.942   8.368   5.819
12107SOL    HW138328   6.952   8.283   5.776
12107SOL    HW238329   6.915   8.347   5.909
12108SOL     OW38330  10.898   3.331   7.983
12108SOL    HW138331  -0.176  -7.746   8.064
12108SOL    HW238332  10.937  -7.783   7.937
12109SOL     OW38333  10.298   3.010   2.590
12109SOL    HW138334  10.388  25.063   2.611
12109SOL    HW238335  10.302   3.037   2.498
12110SOL     OW38336   5.492   5.491   2.292
12110SOL    HW138337  16.443 -27.598   2.309
12110SOL    HW238338  16.562   5.457  -8.663
12111SOL     OW38339   9.829   0.611   6.404
12111SOL    HW138340   9.771   0.622   6.479
12111SOL    HW238341  -1.260   0.645   6.330
12112SOL     OW38342   1.219  -1.076   9.936
12112SOL    HW138343   1.304  -1.056  20.936
12112SOL    HW238344  12.203  21.077   9.912
12113SOL     OW38345   5.568   9.746   1.067
12113SOL    HW138346   5.564 -12.251   1.117
12113SOL    HW238347  38.727  -1.356  12.166
12114SOL     OW38348   8.894  -0.515   4.793
12114SOL    HW138349   8.933  -0.447   4.847
12114SOL    HW238350   8.912  32.631  26.782
12115SOL     OW38351   5.840   2.172   6.283
12115SOL    HW138352   5.917  -8.918  17.299
12115SOL    HW238353  -5.190   2.255   6.236
12116SOL     OW38354   7.456   2.360  11.601
12116SOL    HW138355   7.439   2.439  11.549
12116SOL    HW238356 -14.673   2.374 -10.397
12117SOL     OW38357   7.255   9.919   9.223
12117SOL    HW138358  18.342   9.850   9.268
12117SOL    HW238359   7.184   9.943   9.283
12118SOL     OW38360   9.578   7.166   7.133
12118SOL    HW138361   9.655  18.236   7.181
12118SOL    HW238362  20.548   7.162  18.239
12119SOL     OW38363   2.319   7.018   1.923
12119SOL    HW138364  13.405  -4.020   1.840
12119SOL    HW238365   2.240  -3.971   1.908
12120SOL     OW38366   3.112   7.204   8.603
12120SOL    HW138367   3.170   7.251  19.702
12120SOL    HW238368   3.169   7.176 -24.587
12121SOL     OW38369  10.092   1.946   7.528
12121SOL    HW138370 -12.053   1.877   7.521
12121SOL    HW238371  21.183  12.978   7.448
12122SOL     OW38372   3.575   9.613  10.622
12122SOL    HW138373   3.541  20.659  10.712
12122SOL    HW238374   3.667  20.676  10.630
12123SOL     OW38375   2.127   6.311   0.360
12123SOL    HW138376   2.114  -4.658   0.297
12123SOL    HW238377   2.039   6.276   0.375
12124SOL     OW38378   9.462   3.943   1.613
12124SOL    HW138379   9.475 -18.227  12.678
12124SOL    HW238380   9.373   3.963  12.682
12125SOL     OW38381   3.622   5.524   1.907
12125SOL    HW138382  36.707   5.572   1.983
12125SOL    HW238383  36.723  38.551 -20.151
12126SOL     OW38384   0.966   2.340   0.450
12126SOL    HW138385   1.010   2.421   0.425
12126SOL    HW238386   1.036   2.276   0.458
12127SOL     OW38387   8.487   8.570  -1.124
12127SOL    HW138388   8.473  19.597  -1.218
12127SOL    HW238389  19.452   8.623  20.984
12128SOL     OW38390   2.063  10.902   9.735
12128SOL    HW138391  24.145  10.970   9.668
12128SOL    HW238392   2.131  -0.199   9.711
12129SOL     OW38393   3.381   0.237   2.008
12129SOL    HW138394   3.346   0.322   2.036
12129SOL    HW238395  14.400   0.232   1.915
12130SOL     OW38396   4.037   9.605   4.044
12130SOL    HW138397 -29.115   9.693  37.143
12130SOL    HW238398   4.074   9.612  26.211
12131SOL     OW38399  -0.999   9.713   1.909
12131SOL    HW138400  32.095  20.759  -9.039
12131SOL    HW238401  -0.904   9.712   1.909
12132SOL     OW38402   4.448   7.310   3.581
12132SOL    HW138403   4.438   7.328   3.487
12132SOL    HW238404   4.505   7.381   3.612
12133SOL     OW38405   8.744   0.717   9.987
12133SOL    HW138406  -2.248   0.638  10.013
12133SOL    HW238407   8.802   0.789  10.013
12134SOL     OW38408   4.678   4.235   9.464
12134SOL    HW138409   4.738  15.334   9.509
12134SOL    HW238410 -28.517   4.290   9.444
12135SOL     OW38411  10.214   8.313   7.317
12135SOL    HW138412  10.300  19.380  29.364
12135SOL    HW238413  10.229   8.224  18.390
12136SOL     OW38414   3.485   7.121   4.977
12136SOL    HW138415 -18.499   7.109   4.979
12136SOL    HW238416   3.471  -3.853   4.908
12137SOL     OW38417  -0.629   5.601   1.839
12137SOL    HW138418  10.371   5.588  -9.114
12137SOL    HW238419  32.537  -5.356  -9.194
12138SOL     OW38420   2.924   6.783   1.904
12138SOL    HW138421  13.873   6.811   1.917
12138SOL    HW238422  24.996  17.745 -20.230
12139SOL     OW38423   5.076   9.264   5.758
12139SOL    HW138424   5.134  -1.762  16.873
12139SOL    HW238425  16.080 -12.903  -5.269
12140SOL     OW38426   8.352   0.166   1.381
12140SOL    HW138427  -2.693  11.192  23.554
12140SOL    HW238428   8.396   0.251  45.529
12141SOL     OW38429   2.351   9.947  11.313
12141SOL    HW138430   2.285  10.007   0.306
12141SOL    HW238431   2.347   9.955  11.218
12142SOL     OW38432   5.099   3.628   4.286
12142SOL    HW138433   5.094  14.668   4.381
12142SOL    HW238434  -5.964  14.579   4.261
12143SOL     OW38435   2.498   8.367   1.183
12143SOL    HW138436  -8.509   8.393  12.136
12143SOL    HW238437   2.545  30.366   1.203
12144SOL     OW38438   1.927  10.170   8.417
12144SOL    HW138439  -9.173  10.152  41.464
12144SOL    HW238440   1.960  10.084  -2.597
12145SOL     OW38441   9.011   0.649   2.508
12145SOL    HW138442   8.951 -10.348   2.569
12145SOL    HW238443   9.003  11.596   2.528
12146SOL     OW38444   8.703   4.555   1.832
12146SOL    HW138445  -2.399   4.620  12.841
12146SOL    HW238446   8.775   4.558  12.809
12147SOL     OW38447   9.139  10.843  10.030
12147SOL    HW138448   9.083  10.896  10.087
12147SOL    HW238449  -1.831  10.811  -0.952
12148SOL     OW38450   8.553   6.399   3.199
12148SOL    HW138451   8.477   6.341  -7.838
12148SOL    HW238452   8.524   6.479 -29.876
12149SOL     OW38453   2.979   0.915  11.627
12149SOL    HW138454   2.976   0.862 -21.412
12149SOL    HW238455   3.073   0.922 -10.472
12150SOL     OW38456   5.929   7.958   8.515
12150SOL    HW138457  39.119   7.923   8.463
12150SOL    HW238458   5.958   7.947   8.606
12151SOL     OW38459   3.187   4.897   3.513
12151SOL    HW138460   3.137   4.844  14.616
12151SOL    HW238461   3.277   4.896   3.546
12152SOL     OW38462  10.488   7.574   1.369
12152SOL    HW138463 -22.632 -14.447   1.445
12152SOL    HW238464  21.567   7.493   1.401
12153SOL     OW38465   9.747   7.157   5.828
12153SOL    HW138466   9.709   7.070   5.819
12153SOL    HW238467  31.820   7.195   5.740
12154SOL     OW38468  10.874   8.788   0.453
12154SOL    HW138469 -11.208  -2.176   0.395
12154SOL    HW238470  22.004   8.786   0.485
12155SOL     OW38471   2.033   5.338   6.520
12155SOL    HW138472   1.977   5.262   6.535
12155SOL    HW238473   2.059   5.366   6.608
12156SOL     OW38474   7.953   6.762   6.730
12156SOL    HW138475  -3.173 -15.301   6.691
12156SOL    HW238476   7.988  -4.350   6.679
12157SOL     OW38477   4.045   5.874   7.500
12157SOL    HW138478   4.085   5.824   7.429
12157SOL    HW238479   3.969   5.916   7.459
12158SOL     OW38480   2.641   8.994   5.108
12158SOL    HW138481 -19.522  20.003  27.224
12158SOL    HW238482   2.707   8.959  -5.873
12159SOL     OW38483   2.063   2.875   3.965
12159SOL    HW138484   2.149   2.848   3.997
12159SOL    HW238485   2.064   2.854  -7.168
12160SOL     OW38486  10.681   6.389   3.422
12160SOL    HW138487  10.595   6.348   3.426
12160SOL    HW238488  10.697   6.421   3.511
12161SOL     OW38489  10.737   5.811   6.688
12161SOL    HW138490  10.831  -5.243  -4.368
12161SOL    HW238491  10.698   5.810   6.601
12162SOL     OW38492   6.662   0.734   7.269
12162SOL    HW138493   6.665  11.771   7.365
12162SOL    HW238494   6.711   0.812   7.245
12163SOL     OW38495   6.866  11.014   6.970
12163SOL    HW138496   6.935  10.964   7.013
12163SOL    HW238497   6.804  10.949  17.979
12164SOL     OW38498  10.644   3.243  -0.431
12164SOL    HW138499  10.700   3.177  10.569
12164SOL    HW238500  10.586   3.271  -0.502
12165SOL     OW38501   7.612   6.816   2.553
12165SOL    HW138502   7.607   6.877   2.627
12165SOL    HW238503   7.522   6.807   2.523
12166SOL     OW38504  10.435   6.828  10.067
12166SOL    HW138505  10.493 -15.297  -1.033
12166SOL    HW238506  10.420 -15.313  10.139
12167SOL     OW38507   8.252   8.922   7.141
12167SOL    HW138508   8.345   8.942   7.132
12167SOL    HW238509   8.221   8.911  18.091
12168SOL     OW38510   9.258   8.190   9.299
12168SOL    HW138511  20.287   8.129   9.372
12168SOL    HW238512   9.330   8.154   9.247
12169SOL     OW38513  -0.436   3.240   9.465
12169SOL    HW138514  -0.515   3.201  31.506
12169SOL    HW238515  10.646   3.167  -1.529
12170SOL     OW38516  11.135   4.157   6.854
12170SOL    HW138517 -11.036   4.130   6.843
12170SOL    HW238518  22.218   4.079   6.890
12171SOL     OW38519   0.073   8.054   0.089
12171SOL    HW138520   0.098  19.185   0.100
12171SOL    HW238521  -0.009   8.045   0.139
12172SOL     OW38522   0.934   7.505  10.419
12172SOL    HW138523   0.889   7.471  -0.698
12172SOL    HW238524   0.916   7.599  -0.622
12173SOL     OW38525   9.924   6.757  -0.617
12173SOL    HW138526   9.886   6.836  -0.579
12173SOL    HW238527  10.018   6.776  10.417
12174SOL     OW38528   3.339   2.806   6.216
12174SOL    HW138529   3.418   2.861 -15.872
12174SOL    HW238530   3.372  13.756   6.218
12175SOL     OW38531   6.439   0.656   4.665
12175SOL    HW138532  -4.538   0.685   4.599
12175SOL    HW238533  -4.553   0.661   4.748
12176SOL     OW38534   9.627   7.662   6.143
12176SOL    HW138535   9.602  18.741   6.060
12176SOL    HW238536  20.698   7.735   6.196
12177SOL     OW38537   9.192   5.618   1.166
12177SOL    HW138538   9.230   5.704   1.154
12177SOL    HW238539   9.171   5.613   1.259
12178SOL     OW38540  11.432  10.479  10.269
12178SOL    HW138541 -21.753  10.540  10.235
12178SOL    HW238542  11.513  10.505  10.225
12179SOL     OW38543   0.756   9.312   8.014
12179SOL    HW138544   0.811 -12.791  -3.100
12179SOL    HW238545   0.756  -1.805   8.070
12180SOL     OW38546   2.181   2.461   9.671
12180SOL    HW138547   2.250   2.521  -1.398
12180SOL    HW238548   2.223  -8.631   9.739
12181SOL     OW38549   0.191   6.823   0.995
12181SOL    HW138550   0.271  -4.166  23.091
12181SOL    HW238551   0.203   6.743   1.046
12182SOL     OW38552   9.189   5.354   4.497
12182SOL    HW138553  -1.843  -5.780   4.510
12182SOL    HW238554   9.096  -5.667   4.511
12183SOL     OW38555   9.947   5.653  10.375
12183SOL    HW138556   9.913   5.590  21.351
12183SOL    HW238557   9.887   5.646  10.450
12184SOL     OW38558  -0.076   1.149   6.092
12184SOL    HW138559  -0.059   1.055   6.098
12184SOL    HW238560  11.043   1.186   6.053
12185SOL     OW38561   7.498   0.798   6.357
12185SOL    HW138562   7.537  22.901   6.273
12185SOL    HW238563   7.568   0.751  -4.636
12186SOL     OW38564   6.186   1.419   9.535
12186SOL    HW138565   6.111  -9.565   9.512
12186SOL    HW238566   6.233  -9.571  -1.437
12187SOL     OW38567   3.335   7.363   5.215
12187SOL    HW138568   3.241   7.376   5.197
12187SOL    HW238569  36.457   7.341   5.308
12188SOL     OW38570   2.065  10.366   0.590
12188SOL    HW138571  -9.028  21.456   0.528
12188SOL    HW238572   2.002 -11.756   0.647
12189SOL     OW38573   0.468   9.101   4.053
12189SOL    HW138574   0.560  20.145  -7.015
12189SOL    HW238575   0.473  -1.952   4.147
12190SOL     OW38576  10.916   7.101   7.711
12190SOL    HW138577  10.969  -3.949   7.632
12190SOL    HW238578  10.958   7.044  29.855
12191SOL     OW38579  10.661  12.478   6.697
12191SOL    HW138580  10.751 -20.675   6.694
12191SOL    HW238581  -0.380  12.546  -4.411
12192SOL     OW38582   2.415  11.184   8.674
12192SOL    HW138583   2.366  11.233   8.741
12192SOL    HW238584   2.414 -10.838  30.676
12193SOL     OW38585   2.518   5.653   4.794
12193SOL    HW138586 -30.601  -5.294  15.857
12193SOL    HW238587   2.488  -5.431   4.874
12194SOL     OW38588   1.192   2.186  11.493
12194SOL    HW138589   1.222  13.171  11.565
12194SOL    HW238590   1.271  13.258 -10.628
12195SOL     OW38591   9.408   7.912   9.571
12195SOL    HW138592   9.344   7.886   9.505
12195SOL    HW238593   9.373  29.956   9.653
12196SOL     OW38594   5.516  -0.504   3.963
12196SOL    HW138595  -5.452  10.580   3.918
12196SOL    HW238596   5.548  10.523   4.053
12197SOL     OW38597   6.713  -1.348   1.980
12197SOL    HW138598 -15.426  20.701   2.048
12197SOL    HW238599   6.716   9.787 -20.086
12198SOL     OW38600   1.096   3.083  10.648
12198SOL    HW138601   1.179   3.098  10.694
12198SOL    HW238602   1.029  -7.947  10.716
12199SOL     OW38603   6.140   5.497   0.037
12199SOL    HW138604   6.077  16.514   0.106
12199SOL    HW238605   6.178  27.659   0.065
12200SOL     OW38606   2.123  11.162   7.554
12200SOL    HW138607  -8.938  11.255  18.584
12200SOL    HW238608   2.072 -10.960 -14.594
12201SOL     OW38609   5.454   3.485   5.630
12201SOL    HW138610   5.498   3.539   5.565
12201SOL    HW238611   5.382   3.444   5.582
12202SOL     OW38612   6.889   7.304   1.997
12202SOL    HW138613  -4.161 -14.783   1.903
12202SOL    HW238614  17.943   7.398   2.012
12203SOL     OW38615   8.742   0.208   8.521
12203SOL    HW138616   8.768   0.138   8.461
12203SOL    HW238617   8.745   0.168   8.608
12204SOL     OW38618   1.526   7.078  10.411
12204SOL    HW138619   1.617  18.090  10.424
12204SOL    HW238620 -20.595   7.062  10.496
12205SOL     OW38621   6.837   7.244   2.259
12205SOL    HW138622  -4.146  18.335  13.356
12205SOL    HW238623  17.878  29.370  35.294
12206SOL     OW38624   2.722   4.689   1.046
12206SOL    HW138625   2.638  -6.307   1.054
12206SOL    HW238626   2.705  37.735  12.026
12207SOL     OW38627  -0.202   0.104  10.917
12207SOL    HW138628  -0.135   0.036  10.907
12207SOL    HW238629  21.870   0.143  10.830
12208SOL     OW38630   6.015   2.339   1.962
12208SOL    HW138631   6.042   2.384   1.882
12208SOL    HW238632  -4.977   2.256  -9.080
12209SOL     OW38633   7.720   6.052  11.018
12209SOL    HW138634   7.685   6.094  10.939
12209SOL    HW238635   7.661  17.019  11.034
12210SOL     OW38636   7.213   0.889   6.396
12210SOL    HW138637   7.174   0.814   6.352
12210SOL    HW238638  -3.733  22.947   6.402
12211SOL     OW38639   5.512   9.660  12.826
12211SOL    HW138640  16.566   9.568  12.801
12211SOL    HW238641   5.492 -23.463 -42.278
12212SOL     OW38642   1.833   0.278   6.973
12212SOL    HW138643  -9.280   0.293 -15.166
12212SOL    HW238644   1.840   0.359 -15.056
12213SOL     OW38645   6.062   3.463   4.241
12213SOL    HW138646   6.066   3.536   4.179
12213SOL    HW238647   6.009   3.497   4.314
12214SOL     OW38648  -0.062   8.191   7.863
12214SOL    HW138649  11.018   8.190   7.777
12214SOL    HW238650  -0.061  -2.941   7.891
12215SOL     OW38651   5.886   4.171   4.667
12215SOL    HW138652  -5.085  48.340  -6.306
12215SOL    HW238653   5.928  15.237   4.585
12216SOL     OW38654   8.839   3.394   3.603
12216SOL    HW138655   8.871   3.403   3.692
12216SOL    HW238656   8.774   3.463  25.672
12217SOL     OW38657   8.185   3.475   5.547
12217SOL    HW138658  -2.855   3.549   5.607
12217SOL    HW238659   8.236  -7.534   5.472
12218SOL     OW38660   0.662   5.334   2.371
12218SOL    HW138661   0.752   5.330   2.339
12218SOL    HW238662   0.608  16.387   2.293
12219SOL     OW38663   7.396   3.238   3.349
12219SOL    HW138664   7.423   3.162   3.399
12219SOL    HW238665   7.309   3.259   3.382
12220SOL     OW38666   7.079   4.051   2.307
12220SOL    HW138667  18.064   4.090  -8.665
12220SOL    HW238668   7.019   4.036   2.234
12221SOL     OW38669   3.774   5.479   8.598
12221SOL    HW138670   3.840   5.488   8.529
12221SOL    HW238671   3.693  -5.581   8.552
12222SOL     OW38672   5.669   1.135   8.518
12222SOL    HW138673   5.590   1.186  30.580
12222SOL    HW238674   5.645  -9.964   8.589
12223SOL     OW38675   8.204   3.178   8.176
12223SOL    HW138676   8.137   3.240   8.203
12223SOL    HW238677  -2.766   3.188   8.241
12224SOL     OW38678   4.520   6.618   1.388
12224SOL    HW138679   4.562  17.686   1.307
12224SOL    HW238680   4.522  17.735   1.445
12225SOL     OW38681   1.818   8.729   6.034
12225SOL    HW138682   1.868   8.677  -4.943
12225SOL    HW238683   1.726   8.707  -4.986
12226SOL     OW38684   6.060   2.475   9.271
12226SOL    HW138685   6.033   2.568   9.274
12226SOL    HW238686   6.077  24.532  20.402
12227SOL     OW38687   8.138   3.538   3.378
12227SOL    HW138688   8.102   3.454   3.406
12227SOL    HW238689   8.170   3.522   3.290
12228SOL     OW38690   2.527   9.234   2.040
12228SOL    HW138691  -8.422   9.203   2.044
12228SOL    HW238692 -19.549  20.349   1.980
12229SOL     OW38693   0.657  -0.167   9.810
12229SOL    HW138694   0.654  10.830   9.724
12229SOL    HW238695   0.574  10.850   9.851
12230SOL     OW38696  11.581   8.080   8.428
12230SOL    HW138697  11.490  -2.960   8.397
12230SOL    HW238698 -10.473 -14.091  19.468
12231SOL     OW38699   2.717   7.917  11.298
12231SOL    HW138700  13.702   7.962   0.323
12231SOL    HW238701  35.804   7.827  11.298
12232SOL     OW38702   5.663  10.616   3.049
12232SOL    HW138703   5.717  10.581   3.120
12232SOL    HW238704   5.706  10.586   2.969
12233SOL     OW38705   4.076   5.936   0.600
12233SOL    HW138706   3.995   5.940  11.690
12233SOL    HW238707 -29.072   5.916   0.511
12234SOL     OW38708   8.423   7.641   0.213
12234SOL    HW138709   8.427   7.667   0.121
12234SOL    HW238710 -24.629  40.691  11.261
12235SOL     OW38711   5.864   7.016  11.035
12235SOL    HW138712   5.869   7.025  10.940
12235SOL    HW238713  16.861  18.136  11.065
12236SOL     OW38714   6.205   1.545   7.651
12236SOL    HW138715   6.245   1.483   7.712
12236SOL    HW238716  -4.919   1.505  18.669
12237SOL     OW38717   0.060   5.396   3.893
12237SOL    HW138718   0.086   5.488   3.891
12237SOL    HW238719   0.139  27.427   3.871
12238SOL     OW38720   2.527   0.817  11.908
12238SOL    HW138721   2.467   0.747   0.894
12238SOL    HW238722   2.575   0.782 -21.286
12239SOL     OW38723   3.590   9.249   2.739
12239SOL    HW138724  -7.388   9.193  -8.253
12239SOL    HW238725  -7.514   9.187   2.704
12240SOL     OW38726   3.454   7.569   2.509
12240SOL    HW138727  14.586   7.562 -19.594
12240SOL    HW238728   3.417  18.667   2.443
12241SOL     OW38729   5.757   7.377   2.629
12241SOL    HW138730   5.770   7.462  -8.454
12241SOL    HW238731  16.748   7.324   2.566
12242SOL     OW38732   2.627   4.060   6.678
12242SOL    HW138733   2.605   4.121   6.749
12242SOL    HW238734   2.686   4.110   6.622
12243SOL     OW38735   2.294   0.890   5.796
12243SOL    HW138736   2.288   0.795   5.802
12243SOL    HW238737  13.360   0.907  -5.334
12244SOL     OW38738   8.035   1.787   6.882
12244SOL    HW138739   8.013   1.716   6.822
12244SOL    HW238740  18.992  23.888   6.926
12245SOL     OW38741   0.215   1.779  10.577
12245SOL    HW138742   0.261  23.939  10.554
12245SOL    HW238743   0.215   1.728  10.496
12246SOL     OW38744   4.729   9.194   5.295
12246SOL    HW138745   4.721   9.280  38.373
12246SOL    HW238746  -6.224   9.194   5.336
12247SOL     OW38747  10.584  11.090   3.645
12247SOL    HW138748  10.633   0.089   3.717
12247SOL    HW238749  -0.389  11.070 -18.500
12248SOL     OW38750   0.051   5.951   1.362
12248SOL    HW138751   0.040   6.002   1.442
12248SOL    HW238752   0.122   5.890   1.383
12249SOL     OW38753   6.929   7.909   7.012
12249SOL    HW138754   6.835   7.921   7.021
12249SOL    HW238755   6.968   7.989   7.046
12250SOL     OW38756   7.556   2.443   9.257
12250SOL    HW138757   7.467   2.413   9.240
12250SOL    HW238758   7.594  13.414   9.312
12251SOL     OW38759  -0.103   1.051   3.939
12251SOL    HW138760  33.030  34.222   3.859
12251SOL    HW238761  10.862  12.035   3.917
12252SOL     OW38762   5.957   5.203   2.869
12252SOL    HW138763   5.990   5.168   2.952
12252SOL    HW238764   5.864  27.299   2.885
12253SOL     OW38765   2.461   8.128   5.599
12253SOL    HW138766   2.555  19.160   5.618
12253SOL    HW238767   2.434   8.209   5.642
12254SOL     OW38768   7.801   9.284   7.341
12254SOL    HW138769   7.828   9.281   7.249
12254SOL    HW238770   7.709   9.257   7.340
12255SOL     OW38771   7.934   1.076   8.951
12255SOL    HW138772  18.945   1.118   9.033
12255SOL    HW238773  18.928   1.125  -2.157
12256SOL     OW38774   0.395   9.934   3.562
12256SOL    HW138775   0.416   9.845  25.672
12256SOL    HW238776   0.465  21.028  14.639
12257SOL     OW38777   8.775   6.350   0.667
12257SOL    HW138778   8.750   6.324   0.755
12257SOL    HW238779   8.826   6.276   0.634
12258SOL     OW38780   1.926  -0.070   4.128
12258SOL    HW138781  35.028  -0.079   4.222
12258SOL    HW238782  23.921  21.992  15.126
12259SOL     OW38783   3.533   1.580   4.576
12259SOL    HW138784   3.553  34.722  15.706
12259SOL    HW238785   3.453   1.629  37.674
12260SOL     OW38786  10.271   6.511   7.577
12260SOL    HW138787  10.313   6.426  -3.474
12260SOL    HW238788  10.199   6.512   7.514
12261SOL     OW38789   4.758   6.061  11.329
12261SOL    HW138790  15.765   6.063  11.419
12261SOL    HW238791  15.860   6.132   0.285
12262SOL     OW38792   6.372   4.557   5.394
12262SOL    HW138793  28.546   4.544   5.392
12262SOL    HW238794  39.477   4.639   5.347
12263SOL     OW38795   3.433   9.487   0.955
12263SOL    HW138796   3.359   9.515 -10.030
12263SOL    HW238797   3.401   9.495   0.865
12264SOL     OW38798   6.482   4.131   5.303
12264SOL    HW138799   6.539   4.206   5.318
12264SOL    HW238800   6.408  15.184   5.362
12265SOL     OW38801   5.970   2.163   9.904
12265SOL    HW138802   5.892  24.188  -1.121
12265SOL    HW238803   6.021  24.193  31.918
12266SOL     OW38804   4.590   2.434   5.057
12266SOL    HW138805   4.621   2.344   5.065
12266SOL    HW238806   4.501   2.432  27.171
12267SOL     OW38807   5.106   7.391   2.239
12267SOL    HW138808   5.027   7.390   2.292
12267SOL    HW238809  27.244   7.329   2.281
12268SOL     OW38810   2.591   2.502   8.962
12268SOL    HW138811   2.676  46.624  -2.102
12268SOL    HW238812  -8.444  13.549   9.058
12269SOL     OW38813   8.947   4.007   5.522
12269SOL    HW138814   8.952  26.009   5.465
12269SOL    HW238815   8.889   3.980 -16.486
12270SOL     OW38816   7.969   0.411   6.889
12270SOL    HW138817   7.958   0.492  17.979
12270SOL    HW238818  18.949   0.421   6.815
12271SOL     OW38819  11.252   6.212   6.361
12271SOL    HW138820  11.245  17.261   6.266
12271SOL    HW238821   0.148   6.145   6.383
12272SOL     OW38822   8.640   3.090   4.266
12272SOL    HW138823  19.663   3.118   4.356
12272SOL    HW238824  19.772  -7.929  15.291
12273SOL     OW38825   3.184   4.565   6.927
12273SOL    HW138826   3.121   4.604  18.027
12273SOL    HW238827   3.173  15.654   6.845
12274SOL     OW38828   9.313   2.696  10.676
12274SOL    HW138829   9.368   2.756  10.625
12274SOL    HW238830  31.454   2.634  10.714
12275SOL     OW38831   3.756   5.881  11.055
12275SOL    HW138832   3.792  16.964   0.093
12275SOL    HW238833  25.900   5.814  11.033
12276SOL     OW38834   6.754  10.685   9.329
12276SOL    HW138835  17.860 -11.337  -1.672
12276SOL    HW238836  28.819  10.618   9.395
12277SOL     OW38837   7.230   9.496  10.156
12277SOL    HW138838   7.154   9.554  10.156
12277SOL    HW238839  29.383 -12.527  10.133
12278SOL     OW38840   9.290   1.552   4.241
12278SOL    HW138841   9.261   1.643  26.326
12278SOL    HW238842  31.293  23.584   4.204
12279SOL     OW38843   0.241   8.579   4.643
12279SOL    HW138844   0.258  -2.372   4.676
12279SOL    HW238845   0.150   8.582   4.614
12280SOL     OW38846   5.084   3.948   0.969
12280SOL    HW138847   5.055   3.977   1.056
12280SOL    HW238848   5.109   3.857   0.982
12281SOL     OW38849   1.409   4.607   9.869
12281SOL    HW138850  12.432   4.620   9.776
12281SOL    HW238851  12.482   4.692   9.900
12282SOL     OW38852  10.812   9.816   1.825
12282SOL    HW138853  10.872  -1.219   1.899
12282SOL    HW238854  10.867   9.830   1.748
12283SOL     OW38855   4.020   4.284   8.813
12283SOL    HW138856   4.113   4.298   8.831
12283SOL    HW238857   3.993   4.362   8.765
12284SOL     OW38858   5.924  12.256   8.647
12284SOL    HW138859 -16.214  -9.799   8.575
12284SOL    HW238860   5.911 -20.795  -2.326
12285SOL     OW38861   4.867   5.933   4.289
12285SOL    HW138862   4.777  -5.135  26.389
12285SOL    HW238863   4.857   6.024  15.302
12286SOL     OW38864   3.822   4.539   8.444
12286SOL    HW138865   3.917   4.549  -2.602
12286SOL    HW238866   3.793   4.527   8.354
12287SOL     OW38867  10.334  -0.030   6.454
12287SOL    HW138868  10.245  -0.005   6.431
12287SOL    HW238869  10.386  22.128   6.440
12288SOL     OW38870   3.456   3.575   5.929
12288SOL    HW138871   3.422  14.526 -16.155
12288SOL    HW238872   3.454   3.597   6.022
12289SOL     OW38873   3.498   4.860   8.731
12289SOL    HW138874  14.601  -6.108   8.724
12289SOL    HW238875   3.416   4.897   8.699
12290SOL     OW38876   1.237  10.436   9.642
12290SOL    HW138877   1.177  10.448  20.608
12290SOL    HW238878   1.323  10.421   9.601
12291SOL     OW38879   0.649   2.912   0.504
12291SOL    HW138880 -10.297   2.908   0.524
12291SOL    HW238881   0.620  13.861   0.501
12292SOL     OW38882   5.566   5.955   1.870
12292SOL    HW138883   5.630  17.018 -31.181
12292SOL    HW238884   5.551  27.941   1.883
12293SOL     OW38885   0.386  10.225  12.075
12293SOL    HW138886   0.446  -0.878  -9.965
12293SOL    HW238887  11.447  10.308   1.079
12294SOL     OW38888   3.588   2.636   6.706
12294SOL    HW138889  -7.389 -30.411   6.712
12294SOL    HW238890   3.555   2.641  28.695
12295SOL     OW38891   1.022   1.445   2.314
12295SOL    HW138892   0.985   1.447  46.384
12295SOL    HW238893   0.947   1.460  13.412
12296SOL     OW38894   0.573   7.127   9.208
12296SOL    HW138895   0.559   7.215   9.242
12296SOL    HW238896   0.498   7.112   9.151
12297SOL     OW38897   8.961   5.094   4.273
12297SOL    HW138898   8.907   5.031  -6.815
12297SOL    HW238899   9.035   5.042  -6.736
12298SOL     OW38900   1.754   1.585   3.970
12298SOL    HW138901   1.762   1.629 -18.194
12298SOL    HW238902 -20.279   1.502  -7.082
12299SOL     OW38903  10.663  10.079   9.402
12299SOL    HW138904  10.673   9.993   9.443
12299SOL    HW238905  10.729  -0.906  -1.595
12300SOL     OW38906  10.848  10.474   0.780
12300SOL    HW138907  10.897  10.393 -10.247
12300SOL    HW238908  -0.129  -0.496  33.918
12301SOL     OW38909   3.557  10.883   2.383
12301SOL    HW138910  25.677  -0.238   2.353
12301SOL    HW238911   3.464  10.870   2.365
12302SOL     OW38912   6.071   4.271   5.611
12302SOL    HW138913  17.025 -17.769  16.633
12302SOL    HW238914   6.132   4.344   5.607
12303SOL     OW38915   0.701   9.247  10.857
12303SOL    HW138916   0.696  20.380  -0.200
12303SOL    HW238917   0.674   9.205  10.775
12304SOL     OW38918  10.795   3.310   9.655
12304SOL    HW138919  10.733   3.347   9.592
12304SOL    HW238920 -11.326   3.323   9.740
12305SOL     OW38921  10.372   2.851   9.650
12305SOL    HW138922  10.280   2.832 -12.410
12305SOL    HW238923  10.415   2.850   9.736
12306SOL     OW38924   3.347  10.039   6.344
12306SOL    HW138925  14.299  10.015   6.376
12306SOL    HW238926   3.340  10.035   6.249
12307SOL     OW38927   0.736   8.367   5.836
12307SOL    HW138928 -10.334   8.425   5.766
12307SOL    HW238929   0.821   8.402   5.861
12308SOL     OW38930   7.939  10.339   0.334
12308SOL    HW138931  -3.018 -11.691   0.326
12308SOL    HW238932   7.939  10.307  22.503
12309SOL     OW38933  10.626   8.421   1.272
12309SOL    HW138934  10.620  19.520   1.197
12309SOL    HW238935  10.535   8.409  12.340
12310SOL     OW38936   3.723   2.024   9.640
12310SOL    HW138937  14.698   2.021   9.569
12310SOL    HW238938  -7.307  -9.107  20.707
12311SOL     OW38939   6.950  10.847   2.712
12311SOL    HW138940   7.041  10.871   2.696
12311SOL    HW238941  -4.084  10.764   2.759
12312SOL     OW38942   0.710   6.768   4.371
12312SOL    HW138943 -10.308   6.819  26.528
12312SOL    HW238944   0.790  17.805   4.320
12313SOL     OW38945   1.765   6.637  11.128
12313SOL    HW138946   1.838   6.612   0.031
12313SOL    HW238947   1.724  -4.329   0.043
12314SOL     OW38948   6.788   5.857   2.448
12314SOL    HW138949   6.747   5.885 -19.549
12314SOL    HW238950   6.727   5.791  -8.627
12315SOL     OW38951   2.826   4.114   3.251
12315SOL    HW138952  24.911   4.195   3.302
12315SOL    HW238953  13.895   4.046  -7.728
12316SOL     OW38954   2.128   0.549   6.007
12316SOL    HW138955   2.099   0.635   6.038
12316SOL    HW238956   2.173   0.567   5.925
12317SOL     OW38957   4.049   5.530   6.386
12317SOL    HW138958  26.153  -5.563   6.462
12317SOL    HW238959   4.099   5.492   6.314
12318SOL     OW38960   5.858   2.358   1.301
12318SOL    HW138961   5.864   2.452  23.395
12318SOL    HW238962   5.813   2.349   1.217
12319SOL     OW38963   4.681   9.294   0.620
12319SOL    HW138964   4.692 -12.804  11.566
12319SOL    HW238965   4.661   9.210  11.699
12320SOL     OW38966   4.409   7.690   2.430
12320SOL    HW138967  15.446   7.751   2.503
12320SOL    HW238968   4.362  18.652   2.461
12321SOL     OW38969   2.916   9.177   0.126
12321SOL    HW138970   2.934   9.162   0.218
12321SOL    HW238971  36.105  -1.803   0.097
12322SOL     OW38972   0.992   6.980   0.550
12322SOL    HW138973 -10.091   7.031  11.521
12322SOL    HW238974   1.028  -4.135  44.661
12323SOL     OW38975   9.081   9.990   8.773
12323SOL    HW138976   9.090  10.035   8.689
12323SOL    HW238977   8.987 -45.219   8.784
12324SOL     OW38978   1.058   8.985   6.204
12324SOL    HW138979   1.125   9.053   6.195
12324SOL    HW238980  -9.940  19.958  -4.780
12325SOL     OW38981   1.766   9.923   8.710
12325SOL    HW138982   1.678   9.928   8.673
12325SOL    HW238983   1.792   9.832   8.699
12326SOL     OW38984  -0.529   7.812   2.977
12326SOL    HW138985  -0.551  -3.312   3.015
12326SOL    HW238986  21.470   7.864  25.066
12327SOL     OW38987   4.045  -0.247   5.439
12327SOL    HW138988   3.982  32.826   5.495
12327SOL    HW238989   4.029  -0.282   5.352
12328SOL     OW38990   4.578   8.130   4.795
12328SOL    HW138991 -17.436  -2.893  26.807
12328SOL    HW238992   4.629   8.126   4.877
12329SOL     OW38993  -1.326  13.888   8.890
12329SOL    HW138994  20.767  -8.231  31.054
12329SOL    HW238995   9.787 -19.260  19.876
12330SOL     OW38996   3.492   7.633   0.107
12330SOL    HW138997   3.466   7.545   0.135
12330SOL    HW238998   3.581   7.643   0.142
12331SOL     OW38999   4.295  10.688   2.587
12331SOL    HW139000   4.224  10.715  -8.393
12331SOL    HW239001  -6.776  10.713   2.500
12332SOL     OW39002   7.012   0.962   5.322
12332SOL    HW139003  -4.025   1.047   5.364
12332SOL    HW239004   7.104  11.983   5.299
12333SOL     OW39005   4.353   9.058  10.101
12333SOL    HW139006  -6.642   9.054  -0.853
12333SOL    HW239007   4.260   9.052  10.122
12334SOL     OW39008  -1.519   6.683   0.547
12334SOL    HW139009   9.499   6.604   0.595
12334SOL    HW239010  42.586   6.678   0.467
12335SOL     OW39011   8.442   3.495   5.767
12335SOL    HW139012  -2.693  14.532  38.896
12335SOL    HW239013  19.509   3.405   5.782
12336SOL     OW39014   3.911   1.880   7.007
12336SOL    HW139015   3.884  12.838  -3.990
12336SOL    HW239016   3.852  -9.093   7.043
12337SOL     OW39017   6.206   1.822  10.857
12337SOL    HW139018   6.294   1.837  10.824
12337SOL    HW239019   6.165  12.805  10.792
12338SOL     OW39020   4.163   1.032  10.866
12338SOL    HW139021   4.247  23.073  10.842
12338SOL    HW239022   4.101   0.958 -11.217
12339SOL     OW39023   9.517   7.238   4.741
12339SOL    HW139024 -23.635   7.324   4.768
12339SOL    HW239025   9.478   7.177   4.802
12340SOL     OW39026   8.477  11.348   8.535
12340SOL    HW139027   8.496  11.428   8.585
12340SOL    HW239028   8.559 -10.781 -13.541
12341SOL     OW39029   3.530   4.841   3.096
12341SOL    HW139030   3.506   4.875   3.010
12341SOL    HW239031   3.493   4.903   3.158
12342SOL     OW39032   1.603   6.298   4.847
12342SOL    HW139033   1.596   6.202  15.880
12342SOL    HW239034   1.696   6.316  26.911
12343SOL     OW39035   6.130   9.272  10.928
12343SOL    HW139036  -4.958   9.354  10.925
12343SOL    HW239037  -4.890  20.291  10.837
12344SOL     OW39038   7.198   7.186   8.137
12344SOL    HW139039   7.232   7.242  19.247
12344SOL    HW239040   7.276  18.182   8.101
12345SOL     OW39041   2.464   7.392  11.884
12345SOL    HW139042 -30.741  18.460  11.913
12345SOL    HW239043   2.525   7.449 -32.226
12346SOL     OW39044  10.289   6.981   7.896
12346SOL    HW139045  10.252   6.917   7.836
12346SOL    HW239046 -11.712   7.015  -3.188
12347SOL     OW39047   8.364   4.923   0.613
12347SOL    HW139048   8.439  -6.172  33.709
12347SOL    HW239049   8.288   4.866   0.603
12348SOL     OW39050   2.997  10.660   3.216
12348SOL    HW139051   2.933  10.615   3.272
12348SOL    HW239052   3.022  10.738 -18.814
12349SOL     OW39053   9.719   4.986   9.982
12349SOL    HW139054  -1.313  -6.124  31.996
12349SOL    HW239055 -12.371  -6.100  -0.974
12350SOL     OW39056   2.281   2.684  10.780
12350SOL    HW139057  -8.732  -8.288  -0.322
12350SOL    HW239058   2.187   2.696  10.791
12351SOL     OW39059   3.935   8.612   1.459
12351SOL    HW139060   4.003  -2.494   1.459
12351SOL    HW239061  -7.122   8.629   1.366
12352SOL     OW39062   1.384   8.315   1.746
12352SOL    HW139063 -20.616  19.377 -20.383
12352SOL    HW239064   1.333   8.260   1.686
12353SOL     OW39065   9.839   8.520  -0.370
12353SOL    HW139066   9.910   8.545  32.808
12353SOL    HW239067   9.760   8.555  -0.328
12354SOL     OW39068   0.619   5.965   9.237
12354SOL    HW139069   0.572  16.971   9.313
12354SOL    HW239070   0.684   6.025  20.313
12355SOL     OW39071   8.951   5.759   4.396
12355SOL    HW139072   8.939  27.769   4.461
12355SOL    HW239073  -2.154   5.742   4.329
12356SOL     OW39074   4.268   3.776   6.001
12356SOL    HW139075   4.174 -40.371   5.983
12356SOL    HW239076  26.366  -7.353   5.974
12357SOL     OW39077   2.309   6.901   5.762
12357SOL    HW139078  -8.648  17.937   5.713
12357SOL    HW239079  24.367   6.809  27.857
12358SOL     OW39080   2.201   6.871   0.980
12358SOL    HW139081   2.194   6.961  12.050
12358SOL    HW239082  -8.750   6.865   0.943
12359SOL     OW39083   0.338   0.859   2.798
12359SOL    HW139084   0.299 -10.181  -8.328
12359SOL    HW239085   0.268   0.828   2.856
12360SOL     OW39086  11.382   5.603  10.071
12360SOL    HW139087  11.447   5.673  10.075
12360SOL    HW239088 -10.648   5.526  10.043
12361SOL     OW39089   5.493   4.750   8.609
12361SOL    HW139090   5.468  -6.340  -2.353
12361SOL    HW239091  -5.451   4.739   8.603
12362SOL     OW39092   3.661   7.112   2.463
12362SOL    HW139093   3.595 -37.095   2.514
12362SOL    HW239094   3.737   7.117   2.521
12363SOL     OW39095   8.119  12.850   3.644
12363SOL    HW139096   8.136  -9.321   3.625
12363SOL    HW239097  -2.861   1.831  14.756
12364SOL     OW39098   1.616   9.925   5.887
12364SOL    HW139099   1.641 -12.232   5.938
12364SOL    HW239100   1.531  -1.089   5.922
12365SOL     OW39101   5.249  11.677   4.847
12365SOL    HW139102  16.247 -10.350   4.779
12365SOL    HW239103  -5.733  11.617   4.800
12366SOL     OW39104   5.361   3.984   2.017
12366SOL    HW139105   5.359   4.079   2.026
12366SOL    HW239106   5.453  15.000   2.028
12367SOL     OW39107   3.708   5.038  -1.096
12367SOL    HW139108   3.672   5.016  31.937
12367SOL    HW239109  25.715   5.024  -1.035
12368SOL     OW39110   5.834   6.926   9.096
12368SOL    HW139111   5.773   6.934  20.063
12368SOL    HW239112  16.922   6.845   9.077
12369SOL     OW39113   3.603   0.484   4.948
12369SOL    HW139114   3.658   0.436   5.009
12369SOL    HW239115   3.627   0.449   4.862
12370SOL     OW39116   1.233   5.177   2.632
12370SOL    HW139117   1.217   5.271  13.682
12370SOL    HW239118  23.407   5.169   2.626
12371SOL     OW39119   7.939   3.778   3.185
12371SOL    HW139120  -3.122  -7.318   3.110
12371SOL    HW239121   7.887  -7.297  -7.783
12372SOL     OW39122   9.040   9.934   0.403
12372SOL    HW139123 -13.059  -1.147   0.487
12372SOL    HW239124   9.134  -1.122   0.390
12373SOL     OW39125   0.155   7.685   6.669
12373SOL    HW139126   0.119   7.662   6.755
12373SOL    HW239127   0.114   7.622   6.609
12374SOL     OW39128   0.641   4.220   7.184
12374SOL    HW139129   0.674   4.288   7.126
12374SOL    HW239130   0.719   4.182   7.224
12375SOL     OW39131   1.532   6.026   7.543
12375SOL    HW139132  -9.560   6.100   7.573
12375SOL    HW239133   1.469   5.955   7.531
12376SOL     OW39134   5.998   2.557   8.796
12376SOL    HW139135   6.002   2.506  19.755
12376SOL    HW239136   6.009   2.493  -2.174
12377SOL     OW39137  10.544   6.964   7.168
12377SOL    HW139138  21.522   6.972  -3.945
12377SOL    HW239139 -11.563   7.031   7.230
12378SOL     OW39140   7.571   2.715   6.633
12378SOL    HW139141   7.633  13.723   6.567
12378SOL    HW239142   7.575   2.649   6.702
12379SOL     OW39143   4.632   4.240   2.047
12379SOL    HW139144 -17.421   4.297  13.159
12379SOL    HW239145   4.713   4.228   1.996
12380SOL     OW39146   7.747   0.888   9.672
12380SOL    HW139147  -3.222   0.934   9.626
12380SOL    HW239148  40.853   0.807   9.621
12381SOL     OW39149   3.048   8.273   0.889
12381SOL    HW139150 -41.028  19.310   0.938
12381SOL    HW239151   3.071   8.237   0.803
12382SOL     OW39152   0.557   2.415   9.433
12382SOL    HW139153   0.486   2.363   9.395
12382SOL    HW239154   0.634   2.390   9.382
12383SOL     OW39155   1.790   6.774   8.661
12383SOL    HW139156   1.831   6.823   8.589
12383SOL    HW239157   1.825   6.815   8.741
12384SOL     OW39158   5.852   1.454   6.668
12384SOL    HW139159  16.914  -9.493  -4.381
12384SOL    HW239160   5.845   1.440   6.762
12385SOL     OW39161  10.719   8.705   4.639
12385SOL    HW139162  10.727  19.650  15.679
12385SOL    HW239163  10.792   8.736   4.693
12386SOL     OW39164   1.988   1.700   7.723
12386SOL    HW139165   1.909   1.753  -3.327
12386SOL    HW239166   1.996   1.652   7.641
12387SOL     OW39167   6.751   4.516   6.514
12387SOL    HW139168   6.722   4.507  -4.435
12387SOL    HW239169  -4.300  -6.611   6.476
12388SOL     OW39170   0.336   1.377   9.164
12388SOL    HW139171   0.245   1.387  20.232
12388SOL    HW239172  11.415   1.319   9.230
12389SOL     OW39173   7.505   2.408   2.367
12389SOL    HW139174   7.424  13.478   2.326
12389SOL    HW239175 -14.506  13.469   2.304
12390SOL     OW39176   9.375   9.997   6.996
12390SOL    HW139177   9.355  -1.123   7.045
12390SOL    HW239178   9.465   9.984   6.967
12391SOL     OW39179   1.936   0.801   5.736
12391SOL    HW139180   1.861   0.853   5.763
12391SOL    HW239181  12.974 -10.315   5.795
12392SOL     OW39182   6.382   1.259   8.983
12392SOL    HW139183   6.380   1.188  20.087
12392SOL    HW239184 -15.651  12.261   8.908
12393SOL     OW39185  10.980   6.369   5.383
12393SOL    HW139186   0.031   6.391  16.400
12393SOL    HW239187  10.972  28.355   5.361
12394SOL     OW39188   7.957  11.006   0.897
12394SOL    HW139189   7.887  11.049   0.847
12394SOL    HW239190   7.996  -0.094   0.834
12395SOL     OW39191   4.360   5.091   2.093
12395SOL    HW139192  -6.701   5.120  24.261
12395SOL    HW239193   4.401   5.167   2.052
12396SOL     OW39194   3.569   7.794   6.747
12396SOL    HW139195   3.631   7.807 -26.300
12396SOL    HW239196   3.483   7.793  -4.251
12397SOL     OW39197   3.546   6.575   4.120
12397SOL    HW139198  14.628 -15.430  -6.964
12397SOL    HW239199  14.494   6.581   4.092
12398SOL     OW39200   5.277   3.328   1.992
12398SOL    HW139201   5.214  14.322   2.049
12398SOL    HW239202   5.258   3.294   1.904
12399SOL     OW39203   1.820   1.986   0.470
12399SOL    HW139204   1.792  -9.145   0.466
12399SOL    HW239205   1.864   2.000  11.426
12400SOL     OW39206   9.138   8.362   6.671
12400SOL    HW139207   9.211   8.412   6.708
12400SOL    HW239208  20.217   8.280  28.721
12401SOL     OW39209   0.131   0.208   6.987
12401SOL    HW139210  11.218   0.178   7.064
12401SOL    HW239211   0.040   0.181   7.002
12402SOL     OW39212   1.754  10.190   8.151
12402SOL    HW139213  -9.238  21.171   8.092
12402SOL    HW239214   1.679  10.138   8.181
12403SOL     OW39215  11.424   7.985   9.611
12403SOL    HW139216   0.434 -36.189   9.692
12403SOL    HW239217  11.338   7.946  -1.412
12404SOL     OW39218   8.986   6.649   6.004
12404SOL    HW139219   9.074   6.629   5.974
12404SOL    HW239220   8.985   6.618   6.095
12405SOL     OW39221   6.567   0.584  11.335
12405SOL    HW139222   6.613   0.501 -10.757
12405SOL    HW239223   6.514   0.571 -21.706
12406SOL     OW39224   3.034   1.868   2.866
12406SOL    HW139225   3.029   1.791   2.923
12406SOL    HW239226   3.128  -9.158   2.853
12407SOL     OW39227   8.238   3.834   3.047
12407SOL    HW139228   8.214   3.866  14.173
12407SOL    HW239229   8.238   3.739   3.056
12408SOL     OW39230   6.139   2.463   0.305
12408SOL    HW139231   6.133   2.387   0.246
12408SOL    HW239232   6.072   2.447  11.411
12409SOL     OW39233   5.118   8.450   3.735
12409SOL    HW139234   5.026  19.483   3.708
12409SOL    HW239235   5.166   8.398  14.709
12410SOL     OW39236   7.387   2.443   9.618
12410SOL    HW139237   7.438   2.374   9.578
12410SOL    HW239238   7.376  -8.624   9.709
12411SOL     OW39239   1.832   3.071   3.550
12411SOL    HW139240   1.833   3.116   3.634
12411SOL    HW239241  23.819  25.144   3.526
12412SOL     OW39242   5.200   8.359   7.390
12412SOL    HW139243  -5.897   8.436   7.390
12412SOL    HW239244   5.266   8.379   7.457
12413SOL     OW39245   6.194   2.084   6.067
12413SOL    HW139246   6.163   2.017  28.207
12413SOL    HW239247   6.283   2.103  28.175
12414SOL     OW39248   8.651   5.969   0.913
12414SOL    HW139249   8.686   5.942   0.998
12414SOL    HW239250  19.765 -16.116   0.853
12415SOL     OW39251   5.876  10.303   9.313
12415SOL    HW139252   5.836  21.385  -1.650
12415SOL    HW239253   5.941  -0.797 -45.848
12416SOL     OW39254   9.775   1.643   2.808
12416SOL    HW139255   9.711   1.688   2.862
12416SOL    HW239256   9.860   1.672 -19.237
12417SOL     OW39257   3.579   2.714   3.694
12417SOL    HW139258   3.505   2.714 -18.324
12417SOL    HW239259  14.650   2.804   3.694
12418SOL     OW39260   1.025   7.827   0.506
12418SOL    HW139261   0.961   7.894   0.531
12418SOL    HW239262   1.107   7.874  22.576
12419SOL     OW39263   1.860   1.994   1.876
12419SOL    HW139264  12.928   2.032   1.959
12419SOL    HW239265  23.939  13.108  12.854
12420SOL     OW39266   1.532   5.390   8.269
12420SOL    HW139267   1.539   5.304   8.311
12420SOL    HW239268   1.611   5.436   8.298
12421SOL     OW39269   2.957   7.617   2.022
12421SOL    HW139270   2.889  40.798   1.995
12421SOL    HW239271   2.908   7.540 -20.028
12422SOL     OW39272   3.609  -0.230   3.885
12422SOL    HW139273   3.559  10.888   3.904
12422SOL    HW239274 -18.475  -0.239   3.790
12423SOL     OW39275   7.924   8.526   2.074
12423SOL    HW139276  19.051   8.499  13.141
12423SOL    HW239277   7.913   8.490  -9.053
12424SOL     OW39278   3.315   4.661   0.053
12424SOL    HW139279   3.293   4.733  22.192
12424SOL    HW239280   3.342   4.589  44.268
12425SOL     OW39281   5.535   6.670  10.380
12425SOL    HW139282   5.567   6.599  -0.715
12425SOL    HW239283   5.449   6.641  10.410
12426SOL     OW39284   9.783   5.138   8.881
12426SOL    HW139285  -1.298   5.161   8.798
12426SOL    HW239286  20.886   5.208 -13.183
12427SOL     OW39287   8.382   6.536  -0.422
12427SOL    HW139288   8.404   6.445  10.637
12427SOL    HW239289  -2.732  28.635  -0.365
12428SOL     OW39290   7.833   1.424   5.186
12428SOL    HW139291  -3.248  34.562  16.141
12428SOL    HW239292   7.922  34.515   5.164
12429SOL     OW39293   6.109   8.562   9.717
12429SOL    HW139294   6.025   8.570   9.761
12429SOL    HW239295   6.088  52.724  20.663
12430SOL     OW39296   7.567   2.129   1.071
12430SOL    HW139297   7.571   2.144  12.205
12430SOL    HW239298   7.473   2.124   1.052
12431SOL     OW39299   8.886   0.780   4.087
12431SOL    HW139300 -13.221   0.763  26.076
12431SOL    HW239301   8.953   0.848   4.078
12432SOL     OW39302   1.662   7.616   5.466
12432SOL    HW139303  12.685   7.697   5.418
12432SOL    HW239304   1.692   7.555  -5.641
12433SOL     OW39305  11.349   2.940   4.613
12433SOL    HW139306  11.376 -19.134   4.522
12433SOL    HW239307 -10.675   3.005   4.658
12434SOL     OW39308   3.881   0.066   3.552
12434SOL    HW139309   3.873  22.098   3.469
12434SOL    HW239310  15.014   0.079  14.603
12435SOL     OW39311   7.670   8.103  10.887
12435SOL    HW139312  -3.451   8.073  10.847
12435SOL    HW239313   7.693   8.182  10.839
12436SOL     OW39314   7.480   0.620  -2.389
12436SOL    HW139315   7.506  11.750  19.707
12436SOL    HW239316   7.392  33.731  19.727
12437SOL     OW39317   0.602   8.641   4.075
12437SOL    HW139318   0.619   8.650  -7.058
12437SOL    HW239319  22.649   8.727 -17.977
12438SOL     OW39320   9.369   2.877   4.885
12438SOL    HW139321   9.427   2.898   4.958
12438SOL    HW239322   9.384   2.784   4.869
12439SOL     OW39323  10.404   5.120   7.405
12439SOL    HW139324 -11.760   5.075  -3.639
12439SOL    HW239325  10.467   5.050   7.425
12440SOL     OW39326   3.798   4.774   1.556
12440SOL    HW139327  14.773 -17.270   1.617
12440SOL    HW239328   3.839   4.701   1.603
12441SOL     OW39329   7.770  10.544  11.358
12441SOL    HW139330  18.792  10.552   0.225
12441SOL    HW239331   7.798  10.453  11.370
12442SOL     OW39332   2.665   4.763   4.581
12442SOL    HW139333   2.683  -6.366   4.611
12442SOL    HW239334   2.571   4.763   4.561
12443SOL     OW39335   3.571   1.510  10.953
12443SOL    HW139336   3.580  23.665  10.895
12443SOL    HW239337   3.495  -9.508  11.007
12444SOL     OW39338   0.941   0.728   0.538
12444SOL    HW139339   0.946 -10.373   0.611
12444SOL    HW239340   0.925   0.673   0.461
12445SOL     OW39341   3.205   8.566   6.976
12445SOL    HW139342   3.221   8.560   6.882
12445SOL    HW239343  14.268   8.480   7.011
12446SOL     OW39344   6.227   5.351   1.911
12446SOL    HW139345  17.210   5.305  12.888
12446SOL    HW239346  -4.725   5.319   1.893
12447SOL     OW39347   9.432   5.700   5.366
12447SOL    HW139348   9.373   5.642   5.318
12447SOL    HW239349 -12.699   5.779  -5.657
12448SOL     OW39350   9.269   6.951   3.342
12448SOL    HW139351   9.237 -15.168  -7.779
12448SOL    HW239352   9.207   7.021 -18.720
12449SOL     OW39353   2.214   3.281   6.890
12449SOL    HW139354  -8.772   3.342   6.840
12449SOL    HW239355   2.272   3.206  17.946
12450SOL     OW39356   5.027   8.304   9.378
12450SOL    HW139357  27.066   8.332   9.296
12450SOL    HW239358   4.955   8.268   9.429
12451SOL     OW39359   0.188   8.761   2.016
12451SOL    HW139360   0.275   8.723   2.025
12451SOL    HW239361   0.136   8.717   2.084
12452SOL     OW39362   0.921   1.653  10.707
12452SOL    HW139363   0.886  -9.363  10.621
12452SOL    HW239364  11.942  12.599  10.715
12453SOL     OW39365   2.335   9.927   8.176
12453SOL    HW139366   2.354   9.890   8.262
12453SOL    HW239367  13.405   9.862   8.114
12454SOL     OW39368   5.208   5.867   6.253
12454SOL    HW139369   5.159   5.856  17.374
12454SOL    HW239370   5.238  16.818   6.231
12455SOL     OW39371   8.413   8.676   9.638
12455SOL    HW139372 -13.606   8.670   9.563
12455SOL    HW239373   8.398   8.770   9.650
12456SOL     OW39374   3.988   3.072   8.482
12456SOL    HW139375  -7.067   3.096   8.390
12456SOL    HW239376   3.900   3.064  30.598
12457SOL     OW39377   7.810   3.109   0.939
12457SOL    HW139378   7.731   3.060   0.916
12457SOL    HW239379   7.782   3.201   0.939
12458SOL     OW39380   4.754   8.050   2.579
12458SOL    HW139381   4.688   8.028 -30.606
12458SOL    HW239382  37.952   8.005   2.549
12459SOL     OW39383   7.231   5.344   9.139
12459SOL    HW139384   7.227  -5.694   9.235
12459SOL    HW239385   7.314   5.301   9.120
12460SOL     OW39386   6.956   2.548   5.117
12460SOL    HW139387  17.900   2.552   5.114
12460SOL    HW239388   6.982   2.541   5.025
12461SOL     OW39389   8.505  10.257   9.203
12461SOL    HW139390   8.588  10.270   9.248
12461SOL    HW239391  19.568  -0.825   9.120
12462SOL     OW39392   3.224   3.311   7.907
12462SOL    HW139393   3.141   3.276   7.875
12462SOL    HW239394   3.271   3.338   7.828
12463SOL     OW39395  10.363   6.881   1.030
12463SOL    HW139396  10.324   6.797 -10.036
12463SOL    HW239397  10.456   6.872   1.009
12464SOL     OW39398   2.192   8.628   1.475
12464SOL    HW139399  13.198   8.710   1.438
12464SOL    HW239400  13.157   8.568   1.472
12465SOL     OW39401   9.553   6.808   9.857
12465SOL    HW139402   9.554   6.881   9.795
12465SOL    HW239403 -12.472   6.839  20.970
12466SOL     OW39404   5.758  11.453   6.770
12466SOL    HW139405   5.697 -10.698   6.787
12466SOL    HW239406  49.911  11.467   6.675
12467SOL     OW39407   7.563   4.607  10.853
12467SOL    HW139408   7.573   4.595  10.759
12467SOL    HW239409   7.624   4.678  10.876
12468SOL     OW39410  11.864   6.378  10.793
12468SOL    HW139411 -21.296  17.362  10.859
12468SOL    HW239412  11.922   6.319  10.745
12469SOL     OW39413   7.168   6.493   5.193
12469SOL    HW139414   7.115   6.479  16.312
12469SOL    HW239415   7.258   6.495   5.224
12470SOL     OW39416   8.698   0.703  11.308
12470SOL    HW139417   8.697   0.798  11.295
12470SOL    HW239418 -13.432  11.729   0.348
12471SOL     OW39419   9.646   3.128   8.569
12471SOL    HW139420  20.699  25.183   8.478
12471SOL    HW239421   9.588   3.203   8.566
12472SOL     OW39422   5.818   9.306   8.114
12472SOL    HW139423   5.883   9.376   8.111
12472SOL    HW239424  -5.305  20.390   8.126
12473SOL     OW39425   8.434   5.665   8.402
12473SOL    HW139426   8.520   5.662   8.443
12473SOL    HW239427  -2.668   5.648   8.473
12474SOL     OW39428   7.808   2.037   0.793
12474SOL    HW139429  18.799  13.011   0.844
12474SOL    HW239430   7.803   2.116  11.885
12475SOL     OW39431   2.112   2.630   6.946
12475SOL    HW139432  13.211  -8.336  17.970
12475SOL    HW239433   2.133  13.639  18.073
12476SOL     OW39434   0.954   3.969   3.861
12476SOL    HW139435 -10.114   3.961  14.992
12476SOL    HW239436   1.013   4.043   3.860
12477SOL     OW39437   4.810   3.945   2.422
12477SOL    HW139438   4.755   3.883   2.375
12477SOL    HW239439   4.815   3.910   2.511
12478SOL     OW39440   7.884   4.320   4.313
12478SOL    HW139441  30.034   4.381   4.292
12478SOL    HW239442   7.825  26.449   4.369
12479SOL     OW39443   6.517  -0.378   5.575
12479SOL    HW139444   6.504  -0.463   5.618
12479SOL    HW239445   6.484  10.647   5.486
12480SOL     OW39446   4.757  -0.304   7.989
12480SOL    HW139447   4.670  -0.344  19.019
12480SOL    HW239448  15.842  10.713   7.908
12481SOL     OW39449   9.906   4.742  -0.236
12481SOL    HW139450   9.874   4.652  -0.244
12481SOL    HW239451   9.942  15.788  32.971
12482SOL     OW39452   6.180   0.857   1.972
12482SOL    HW139453   6.085  11.898   1.985
12482SOL    HW239454   6.214   0.820   2.054
12483SOL     OW39455   3.594  10.146   1.059
12483SOL    HW139456   3.540  -0.971   1.075
12483SOL    HW239457   3.593  10.193   1.142
12484SOL     OW39458   6.222   6.004   0.600
12484SOL    HW139459  17.219  -4.950   0.606
12484SOL    HW239460   6.160   5.944  11.682
12485SOL     OW39461   3.923   5.820   9.294
12485SOL    HW139462 -18.215   5.819   9.370
12485SOL    HW239463   3.882   5.760  -1.808
12486SOL     OW39464   4.873   2.728   8.731
12486SOL    HW139465   4.888   2.694   8.819
12486SOL    HW239466   4.794   2.782   8.739
12487SOL     OW39467   8.256   8.792   2.956
12487SOL    HW139468   8.254   8.708  14.041
12487SOL    HW239469   8.294   8.771  24.950
12488SOL     OW39470   7.852   7.825   5.027
12488SOL    HW139471  -3.198  18.892  -6.104
12488SOL    HW239472   7.873  18.771   5.022
12489SOL     OW39473   1.967   6.929   1.165
12489SOL    HW139474   2.023   6.878   1.107
12489SOL    HW239475   1.894   6.956  -9.930
12490SOL     OW39476   4.483   9.090   6.949
12490SOL    HW139477   4.414   9.025   6.959
12490SOL    HW239478   4.476   9.144   7.028
12491SOL     OW39479  10.391   6.505   2.506
12491SOL    HW139480  10.447   6.465   2.573
12491SOL    HW239481  10.303   6.503   2.543
12492SOL     OW39482   3.293   3.045   1.897
12492SOL    HW139483   3.372   3.041  12.883
12492SOL    HW239484   3.238   3.112 -31.264
12493SOL     OW39485   8.837   2.472   9.852
12493SOL    HW139486 -13.328  24.536   9.892
12493SOL    HW239487   8.824   2.454   9.759
12494SOL     OW39488  10.055   4.924   9.573
12494SOL    HW139489  10.042  15.927 -23.633
12494SOL    HW239490   9.970   4.911   9.617
12495SOL     OW39491   6.655   8.162   7.386
12495SOL    HW139492  17.773  19.148   7.372
12495SOL    HW239493   6.604   8.113   7.451
12496SOL     OW39494   4.154  11.008   3.872
12496SOL    HW139495   4.215  10.940  14.882
12496SOL    HW239496   4.092  10.961   3.929
12497SOL     OW39497   5.594   6.139  -0.543
12497SOL    HW139498  27.686   6.154  21.630
12497SOL    HW239499   5.517   6.083  -0.548
12498SOL     OW39500   6.712   9.355   2.879
12498SOL    HW139501   6.712   9.445  36.031
12498SOL    HW239502   6.619  -1.705  13.905
12499SOL     OW39503   5.625   1.476   2.839
12499SOL    HW139504 -16.368  -9.600  13.900
12499SOL    HW239505  -5.405   1.571   2.854
12500SOL     OW39506   4.164   9.399   1.146
12500SOL    HW139507   4.168   9.425  45.212
12500SOL    HW239508   4.083   9.347  23.231
12501SOL     OW39509   2.451   1.404   3.150
12501SOL    HW139510   2.373 -20.656  14.138
12501SOL    HW239511   2.518   1.463  -7.924
12502SOL     OW39512  12.174   3.211   3.758
12502SOL    HW139513  12.185  -7.740   3.724
12502SOL    HW239514 -20.886   3.157   3.705
12503SOL     OW39515   1.349   3.243   9.922
12503SOL    HW139516   1.270   3.229   9.974
12503SOL    HW239517   1.372   3.156  20.929
12504SOL     OW39518   2.652   2.018   2.045
12504SOL    HW139519  -8.442   1.948   2.011
12504SOL    HW239520   2.640   2.090   1.983
12505SOL     OW39521   1.406   5.481  10.452
12505SOL    HW139522   1.370   5.550  10.507
12505SOL    HW239523  -9.610   5.525  10.370
12506SOL     OW39524   6.513   6.552   8.232
12506SOL    HW139525   6.441   6.555   8.169
12506SOL    HW239526  28.626   6.462   8.225
12507SOL     OW39527   0.761   6.364   5.532
12507SOL    HW139528   0.731  17.454   5.608
12507SOL    HW239529   0.695  28.375   5.521
12508SOL     OW39530   7.493   7.680   4.129
12508SOL    HW139531   7.495   7.693  15.074
12508SOL    HW239532   7.409  40.836  -6.883
12509SOL     OW39533   9.782   5.488   4.826
12509SOL    HW139534   9.756  27.533  -6.299
12509SOL    HW239535  -1.162   5.485  -6.215
12510SOL     OW39536   5.554  -0.157   1.590
12510SOL    HW139537  38.696  -0.104  -9.525
12510SOL    HW239538  27.629  43.912  -9.482
12511SOL     OW39539   3.009   6.977   0.159
12511SOL    HW139540   3.002   6.923  11.278
12511SOL    HW239541   2.964   7.059   0.182
12512SOL     OW39542  10.207   7.107   5.936
12512SOL    HW139543 -11.858   7.025  16.928
12512SOL    HW239544  10.237   7.175   5.876
12513SOL     OW39545   8.359   9.037   9.375
12513SOL    HW139546   8.422  -2.027   9.443
12513SOL    HW239547   8.295 -24.153  20.414
12514SOL     OW39548   5.100   4.106   2.046
12514SOL    HW139549   5.034   4.042   2.072
12514SOL    HW239550  -5.868   4.054  -9.029
12515SOL     OW39551   7.464   6.852   3.662
12515SOL    HW139552   7.369   6.846   3.677
12515SOL    HW239553   7.502  17.898  -7.290
12516SOL     OW39554   6.123   2.537   2.118
12516SOL    HW139555   6.197  13.518  -8.902
12516SOL    HW239556   6.052  24.557   2.094
12517SOL     OW39557   6.459   9.835   8.292
12517SOL    HW139558   6.422   9.897   8.355
12517SOL    HW239559   6.398   9.838   8.218
12518SOL     OW39560   7.621   5.250   9.405
12518SOL    HW139561   7.674   5.323   9.438
12518SOL    HW239562   7.670   5.172   9.430
12519SOL     OW39563  11.130   6.193   1.848
12519SOL    HW139564  11.084  -4.800   1.918
12519SOL    HW239565   0.091 -48.943  -9.265
12520SOL     OW39566   5.394   0.375   2.287
12520SOL    HW139567   5.388   0.344   2.196
12520SOL    HW239568   5.406   0.295  13.378
12521SOL     OW39569   8.595   7.418   0.203
12521SOL    HW139570   8.684   7.412   0.235
12521SOL    HW239571  30.631   7.339  11.275
12522SOL     OW39572   3.399   4.783   4.300
12522SOL    HW139573   3.355  15.740 -17.798
12522SOL    HW239574  25.572  37.882 -39.864
12523SOL     OW39575   3.486   1.619   6.546
12523SOL    HW139576   3.455  12.590  17.527
12523SOL    HW239577  14.601   1.657   6.502
12524SOL     OW39578   8.214   7.533   2.465
12524SOL    HW139579 -13.950  -3.506   2.420
12524SOL    HW239580  -2.801   7.440   2.467
12525SOL     OW39581  10.262   5.812   4.026
12525SOL    HW139582  10.260   5.828 -17.959
12525SOL    HW239583  10.351   5.783   4.008
12526SOL     OW39584   1.711   3.272   0.668
12526SOL    HW139585  -9.245   3.235   0.695
12526SOL    HW239586  -9.366   3.206   0.609
12527SOL     OW39587   5.471   8.033   2.750
12527SOL    HW139588  -5.600 -14.089   2.829
12527SOL    HW239589   5.492   8.122   2.777
12528SOL     OW39590   8.252   4.073   8.998
12528SOL    HW139591   8.157  26.143  -2.040
12528SOL    HW239592 -24.851   4.164 -13.106
12529SOL     OW39593   8.978   9.803   9.563
12529SOL    HW139594   8.943   9.724   9.605
12529SOL    HW239595   8.915   9.822   9.493
12530SOL     OW39596  12.488   8.817   5.405
12530SOL    HW139597 -20.616  19.942  -5.674
12530SOL    HW239598  12.556   8.810   5.472
12531SOL     OW39599   6.682   2.693   8.633
12531SOL    HW139600   6.601  13.777  19.697
12531SOL    HW239601   6.700   2.633  -2.335
12532SOL     OW39602   1.981   0.723   9.074
12532SOL    HW139603  12.930   0.718   9.106
12532SOL    HW239604   2.028   0.769  -1.896
12533SOL     OW39605   2.604   0.712   5.594
12533SOL    HW139606   2.553   0.788   5.622
12533SOL    HW239607   2.689  11.787   5.568
12534SOL     OW39608   8.147   4.144   9.351
12534SOL    HW139609   8.059   4.144   9.388
12534SOL    HW239610   8.164   4.236   9.330
12535SOL     OW39611   3.381   9.318   4.742
12535SOL    HW139612   3.431   9.386   4.697
12535SOL    HW239613  25.377   9.314   4.694
12536SOL     OW39614   1.419   1.577   9.421
12536SOL    HW139615   1.460   1.662   9.437
12536SOL    HW239616   1.337   1.580   9.470
12537SOL     OW39617  11.471   4.150   8.280
12537SOL    HW139618  11.407  26.160  -2.776
12537SOL    HW239619   0.382   4.231   8.265
12538SOL     OW39620   7.889  -1.108   7.308
12538SOL    HW139621   7.970  43.025   7.352
12538SOL    HW239622   7.820  -1.132  18.410
12539SOL     OW39623   6.303   4.504   9.053
12539SOL    HW139624  -4.784  -6.609   9.091
12539SOL    HW239625   6.361   4.534   9.124
12540SOL     OW39626   8.219   1.124  10.018
12540SOL    HW139627   8.298   1.085  10.056
12540SOL    HW239628   8.149  12.142  10.080
12541SOL     OW39629   2.993   4.806  10.469
12541SOL    HW139630 -19.119  -6.270  10.551
12541SOL    HW239631   3.060  15.908  10.495
12542SOL     OW39632   9.204   4.588   6.454
12542SOL    HW139633 -12.841   4.527   6.519
12542SOL    HW239634   9.227   4.674   6.488
12543SOL     OW39635  10.302  10.947   9.770
12543SOL    HW139636  -0.810  10.971 -12.367
12543SOL    HW239637  -0.671  10.911   9.711
12544SOL     OW39638   7.699   7.575   7.238
12544SOL    HW139639  -3.290   7.547  29.393
12544SOL    HW239640  -3.307   7.523   7.165
12545SOL     OW39641   5.495   2.044   9.362
12545SOL    HW139642  27.615   2.129   9.379
12545SOL    HW239643   5.568   1.983   9.353
12546SOL     OW39644   8.052  -0.697  -0.467
12546SOL    HW139645   8.023  -0.687  10.482
12546SOL    HW239646   8.014  21.457  -0.421
12547SOL     OW39647   3.901   2.493   3.628
12547SOL    HW139648  -7.121   2.575   3.673
12547SOL    HW239649   3.832   2.451   3.681
12548SOL     OW39650   1.855   8.744   9.910
12548SOL    HW139651  23.973  19.865   9.877
12548SOL    HW239652   1.766  30.822  20.912
12549SOL     OW39653  10.039   4.409   1.983
12549SOL    HW139654  10.009   4.488  13.068
12549SOL    HW239655 -12.068   4.423   1.892
12550SOL     OW39656   5.059   3.586   6.753
12550SOL    HW139657  -6.008   3.650   6.820
12550SOL    HW239658   5.149   3.563   6.777
12551SOL     OW39659  10.002   2.557   7.077
12551SOL    HW139660  -1.117   2.600   7.108
12551SOL    HW239661   9.976  -8.526  -4.044
12552SOL     OW39662   9.121   0.332   8.656
12552SOL    HW139663  -2.001   0.361   8.694
12552SOL    HW239664   9.099   0.309   8.566
12553SOL     OW39665   6.651   4.123   2.673
12553SOL    HW139666   6.620   4.038  -8.396
12553SOL    HW239667  17.631   4.186   2.633
12554SOL     OW39668   8.302   3.309   2.902
12554SOL    HW139669  19.348   3.327   2.808
12554SOL    HW239670  19.430   3.324   2.935
12555SOL     OW39671   3.848   2.499  10.030
12555SOL    HW139672   3.885  13.487  20.998
12555SOL    HW239673  14.867   2.434  10.097
12556SOL     OW39674   3.819   9.951   5.748
12556SOL    HW139675   3.828 -12.188   5.674
12556SOL    HW239676   3.899  -1.103   5.799
12557SOL     OW39677  -1.226   3.088  -0.952
12557SOL    HW139678  -1.310  25.138  10.052
12557SOL    HW239679  20.831  14.193  21.193
12558SOL     OW39680   8.371   5.196   6.737
12558SOL    HW139681  -2.741   5.222   6.794
12558SOL    HW239682   8.358  -5.793  17.697
12559SOL     OW39683   9.578   2.171   1.054
12559SOL    HW139684  -1.470   2.146   1.146
12559SOL    HW239685   9.516   2.113   1.008
12560SOL     OW39686   3.681   5.133   5.474
12560SOL    HW139687   3.624   5.197   5.518
12560SOL    HW239688   3.728  16.224  16.448
12561SOL     OW39689   8.354  10.317   0.480
12561SOL    HW139690   8.300  10.359   0.547
12561SOL    HW239691   8.395  -0.797   0.526
12562SOL     OW39692   2.110   5.222   3.247
12562SOL    HW139693  13.113   5.303   3.213
12562SOL    HW239694   2.063   5.207  -7.711
12563SOL     OW39695   3.582   2.789   1.427
12563SOL    HW139696   3.557  -8.342   1.442
12563SOL    HW239697   3.674   2.785   1.404
12564SOL     OW39698   4.166   1.332   0.048
12564SOL    HW139699   4.176   1.410  -0.008
12564SOL    HW239700   4.085   1.291   0.018
12565SOL     OW39701  10.998   0.023   8.877
12565SOL    HW139702  -0.016  -0.069   8.874
12565SOL    HW239703  11.032  22.140   8.796
12566SOL     OW39704   3.223   6.745   5.054
12566SOL    HW139705   3.237   6.840   5.051
12566SOL    HW239706   3.311   6.708   5.050
12567SOL     OW39707   2.049   4.480   7.606
12567SOL    HW139708  -9.061   4.441  -3.487
12567SOL    HW239709  -9.026  -6.476  -3.404
12568SOL     OW39710   6.713   5.636   3.960
12568SOL    HW139711   6.686  16.600 -18.066
12568SOL    HW239712   6.807  -5.396   3.976
12569SOL     OW39713   2.663  10.070   8.353
12569SOL    HW139714   2.728  10.014  19.349
12569SOL    HW239715   2.715  10.123   8.414
12570SOL     OW39716   2.592   2.287   0.662
12570SOL    HW139717 -30.447   2.236 -10.390
12570SOL    HW239718   2.524   2.221  11.720
12571SOL     OW39719   4.295   2.963   4.615
12571SOL    HW139720  15.270   2.954  -6.494
12571SOL    HW239721   4.374   2.995  -6.469
12572SOL     OW39722   7.933   1.045   1.936
12572SOL    HW139723   7.844  12.077   1.902
12572SOL    HW239724  19.001  12.172   1.911
12573SOL     OW39725   0.977   5.877   4.048
12573SOL    HW139726   0.900   5.909  15.134
12573SOL    HW239727   1.025  -5.084   4.023
12574SOL     OW39728   2.171   3.979   3.328
12574SOL    HW139729   2.165   4.070   3.298
12574SOL    HW239730   2.243  26.021  -7.763
12575SOL     OW39731   9.252   6.007   8.687
12575SOL    HW139732   9.330  17.001  -2.386
12575SOL    HW239733   9.287   6.075   8.744
12576SOL     OW39734   0.988   9.355   5.338
12576SOL    HW139735   0.991   9.333  38.364
12576SOL    HW239736   0.982  20.490   5.341
12577SOL     OW39737   1.686   2.826   7.756
12577SOL    HW139738  12.802   2.774 -25.337
12577SOL    HW239739   1.656   2.785   7.675
12578SOL     OW39740   3.140   5.438   2.536
12578SOL    HW139741 -41.009  -5.696   2.524
12578SOL    HW239742  -7.834  -5.579   2.601
12579SOL     OW39743   4.299   6.119   1.006
12579SOL    HW139744  26.420  17.119   1.083
12579SOL    HW239745   4.215   6.152   1.038
12580SOL     OW39746   0.823   0.954   0.834
12580SOL    HW139747   0.800  11.995  11.781
12580SOL    HW239748   0.756   1.007   0.877
12581SOL     OW39749   2.467   8.375   9.986
12581SOL    HW139750   2.489   8.309   9.920
12581SOL    HW239751  13.421   8.349  10.019
12582SOL     OW39752   2.743   3.122   5.173
12582SOL    HW139753  13.720   3.194   5.179
12582SOL    HW239754   2.827   3.161   5.194
12583SOL     OW39755   6.409   9.934   5.272
12583SOL    HW139756   6.503  -1.109   5.257
12583SOL    HW239757   6.390  20.896  27.403
12584SOL     OW39758   1.385   4.909   7.223
12584SOL    HW139759   1.382   4.875   7.312
12584SOL    HW239760   1.313   4.866   7.178
12585SOL     OW39761   3.496   0.147   3.772
12585SOL    HW139762   3.465   0.085   3.837
12585SOL    HW239763   3.437   0.135  14.737
12586SOL     OW39764  10.616  -0.202   5.806
12586SOL    HW139765  10.600  21.850   5.897
12586SOL    HW239766  10.667  32.845  -5.271
12587SOL     OW39767   1.811   9.446   7.991
12587SOL    HW139768  -9.277  -1.529  19.081
12587SOL    HW239769   1.886 -12.585   7.956
12588SOL     OW39770   6.073   8.452   7.247
12588SOL    HW139771   6.103   8.462   7.337
12588SOL    HW239772  17.118   8.540   7.209
12589SOL     OW39773   2.189   3.877  10.317
12589SOL    HW139774  13.137   3.856  10.299
12589SOL    HW239775   2.207   3.955  10.265
12590SOL     OW39776   1.799  10.504   7.010
12590SOL    HW139777  23.918  10.481   6.926
12590SOL    HW239778   1.831  10.593  -4.012
12591SOL     OW39779   0.830   3.662  10.099
12591SOL    HW139780   0.793  14.784  10.069
12591SOL    HW239781  22.996   3.658  10.058
12592SOL     OW39782   0.100   7.874   2.346
12592SOL    HW139783   0.034   7.808   2.322
12592SOL    HW239784   0.131   7.848   2.432
12593SOL     OW39785   9.970   6.729   6.958
12593SOL    HW139786   9.902 -15.400  -4.127
12593SOL    HW239787  -1.111   6.814   6.976
12594SOL     OW39788  -0.516   8.693   9.420
12594SOL    HW139789  -0.422   8.675   9.414
12594SOL    HW239790  10.487   8.616   9.464
12595SOL     OW39791   4.097   1.271   8.858
12595SOL    HW139792   4.112   1.176   8.855
12595SOL    HW239793   4.031  12.322  -2.113
12596SOL     OW39794  11.981   2.378   9.016
12596SOL    HW139795   1.015  24.417   9.060
12596SOL    HW239796   0.980   2.447  -2.077
12597SOL     OW39797  10.910   6.581   4.385
12597SOL    HW139798  10.910   6.673   4.360
12597SOL    HW239799  10.989   6.570 -17.641
12598SOL     OW39800   2.682   8.808   3.171
12598SOL    HW139801  24.819  -2.181   3.113
12598SOL    HW239802   2.732  41.847   3.190
12599SOL     OW39803   4.453   2.390   3.858
12599SOL    HW139804   4.428   2.478  14.924
12599SOL    HW239805   4.383   2.362  25.879
12600SOL     OW39806   1.594   8.002  10.904
12600SOL    HW139807   1.611   8.032  10.815
12600SOL    HW239808  23.758   7.970  10.935
12601SOL     OW39809   7.950   6.365  -0.198
12601SOL    HW139810  19.042   6.315  -0.135
12601SOL    HW239811  -3.180   6.354  10.871
12602SOL     OW39812  10.275   6.190   7.805
12602SOL    HW139813  10.262   6.278   7.768
12602SOL    HW239814  10.220   6.133   7.750
12603SOL     OW39815   2.843  10.271   1.672
12603SOL    HW139816   2.864  10.260   1.765
12603SOL    HW239817  13.958  -0.808   1.627
12604SOL     OW39818   9.150   4.884   9.689
12604SOL    HW139819   9.228   4.879  -1.296
12604SOL    HW239820   9.180   4.924   9.607
12605SOL     OW39821   7.269   9.196   6.529
12605SOL    HW139822  -3.749   9.231   6.443
12605SOL    HW239823   7.217   9.118   6.510
12606SOL     OW39824   2.687   1.257   3.142
12606SOL    HW139825 -19.396   1.172  25.265
12606SOL    HW239826   2.601  -9.744   3.157
12607SOL     OW39827   2.496   5.601  10.187
12607SOL    HW139828   2.510   5.511  10.159
12607SOL    HW239829  13.611   5.649  10.153
12608SOL     OW39830   1.402   8.001   1.865
12608SOL    HW139831   1.315  19.024   1.828
12608SOL    HW239832   1.460  18.978   1.822
12609SOL     OW39833   4.214   0.057  10.170
12609SOL    HW139834   4.178  -0.031  10.179
12609SOL    HW239835   4.280   0.063  21.278
12610SOL     OW39836   3.787   1.475   6.098
12610SOL    HW139837 -40.310   1.463   6.025
12610SOL    HW239838   3.745   1.390   6.108
12611SOL     OW39839  11.216   0.271   6.699
12611SOL    HW139840  11.130   0.302   6.672
12611SOL    HW239841 -10.863   0.278   6.794
12612SOL     OW39842   7.900   8.931   4.818
12612SOL    HW139843  30.023   8.916   4.734
12612SOL    HW239844   7.808   8.908 -17.278
12613SOL     OW39845   6.121   7.935   6.504
12613SOL    HW139846   6.038   7.921  17.588
12613SOL    HW239847  17.222   7.958  39.693
12614SOL     OW39848   7.876   1.587   5.394
12614SOL    HW139849  18.906  34.648   5.319
12614SOL    HW239850   7.955  -9.483  16.478
12615SOL     OW39851   6.773   4.700   8.651
12615SOL    HW139852 -15.266   4.617   8.678
12615SOL    HW239853   6.838  15.778 -13.488
12616SOL     OW39854  10.427   1.425   8.213
12616SOL    HW139855  10.429   1.476   8.132
12616SOL    HW239856  10.482  12.513  19.313
12617SOL     OW39857   7.194   1.213   7.075
12617SOL    HW139858   7.166   1.192   7.164
12617SOL    HW239859  18.179   1.287   7.050
12618SOL     OW39860   3.824   8.854   6.311
12618SOL    HW139861   3.809  19.803   6.283
12618SOL    HW239862  14.944  30.929   6.363
12619SOL     OW39863   6.283   8.818   6.690
12619SOL    HW139864   6.189   8.805   6.703
12619SOL    HW239865   6.310   8.871  -4.275
12620SOL     OW39866   6.314   4.799   7.851
12620SOL    HW139867   6.270  26.877  -3.273
12620SOL    HW239868   6.392  26.932  -3.203
12621SOL     OW39869   8.726   1.569   2.388
12621SOL    HW139870   8.697   1.580   2.479
12621SOL    HW239871  19.691   1.526   2.344
12622SOL     OW39872   3.878   3.863  11.036
12622SOL    HW139873  -7.095   3.878   0.064
12622SOL    HW239874  -7.122  -7.241  -0.062
12623SOL     OW39875  -0.707   2.335   1.541
12623SOL    HW139876 -11.682  -8.772   1.517
12623SOL    HW239877  32.350   2.336   1.468
12624SOL     OW39878  -0.592   3.019   7.550
12624SOL    HW139879  21.547   3.081  18.632
12624SOL    HW239880  10.370  -8.021   7.605
12625SOL     OW39881  -0.010   3.286   8.883
12625SOL    HW139882  10.946   3.291  31.008
12625SOL    HW239883  -0.031   3.313  19.833
12626SOL     OW39884   0.194  -0.074  11.522
12626SOL    HW139885  33.278  11.028   0.419
12626SOL    HW239886   0.289  10.974   0.476
12627SOL     OW39887   6.067   2.242  11.182
12627SOL    HW139888 -15.979  13.232   0.067
12627SOL    HW239889   6.049  -8.864  11.248
12628SOL     OW39890   6.321   2.306   0.552
12628SOL    HW139891  28.447   2.378   0.594
12628SOL    HW239892   6.231   2.315   0.581
12629SOL     OW39893   1.547   7.489   6.970
12629SOL    HW139894  12.500   7.476   7.009
12629SOL    HW239895  -9.454   7.401  -4.072
12630SOL     OW39896   1.940   6.668   5.031
12630SOL    HW139897   1.983   6.619  16.000
12630SOL    HW239898  13.028   6.641   5.110
12631SOL     OW39899   4.989   9.705   6.272
12631SOL    HW139900  27.094   9.740   6.357
12631SOL    HW239901   5.064   9.723   6.215
12632SOL     OW39902   7.913   9.709  -0.971
12632SOL    HW139903   7.855  20.805  32.198
12632SOL    HW239904   7.946  -1.394  -0.908
12633SOL     OW39905   6.237   8.254   8.386
12633SOL    HW139906   6.303   8.312  19.464
12633SOL    HW239907   6.218   8.294   8.301
12634SOL     OW39908  10.473   8.430   3.676
12634SOL    HW139909  10.468   8.336   3.659
12634SOL    HW239910  10.484   8.436  -7.269
12635SOL     OW39911   4.644   2.282   7.658
12635SOL    HW139912  -6.471   2.227  -3.364
12635SOL    HW239913   4.714  13.260 -14.444
12636SOL     OW39914  11.040   9.546  10.455
12636SOL    HW139915  11.095  -1.551  10.401
12636SOL    HW239916  10.980   9.486  10.499
12637SOL     OW39917  -0.146   3.324   0.456
12637SOL    HW139918  -0.137  36.495   0.535
12637SOL    HW239919  10.960   3.359   0.397
12638SOL     OW39920   0.946   2.989   3.284
12638SOL    HW139921   0.976   3.007   3.372
12638SOL    HW239922   0.853 -19.066   3.285
12639SOL     OW39923   9.575   0.240   6.928
12639SOL    HW139924   9.618   0.310  28.959
12639SOL    HW239925   9.554  11.317   7.013
12640SOL     OW39926   6.526   2.325  10.211
12640SOL    HW139927   6.431  -8.719  10.201
12640SOL    HW239928   6.551   2.235  10.232
12641SOL     OW39929  10.100   0.900   0.530
12641SOL    HW139930  10.096   0.878   0.623
12641SOL    HW239931  10.149   0.828   0.490
12642SOL     OW39932   9.786   5.257  10.111
12642SOL    HW139933   9.754   5.171  10.083
12642SOL    HW239934   9.864   5.239  -0.877
12643SOL     OW39935   3.072   7.140  10.801
12643SOL    HW139936   3.084  -3.994  10.803
12643SOL    HW239937   3.062   7.162  10.709
12644SOL     OW39938   6.578   9.660   6.166
12644SOL    HW139939   6.571 -23.534   6.107
12644SOL    HW239940   6.522   9.637  17.280
12645SOL     OW39941   6.037   3.671   4.072
12645SOL    HW139942   5.961   3.722   4.101
12645SOL    HW239943 -27.025   3.734   4.029
12646SOL     OW39944   4.178   6.419   5.563
12646SOL    HW139945   4.154   6.385   5.477
12646SOL    HW239946   4.104  -4.566   5.588
12647SOL     OW39947   8.084   6.646   8.000
12647SOL    HW139948   8.010   6.701   8.024
12647SOL    HW239949  19.094   6.598   7.922
12648SOL     OW39950   5.001   6.983   9.200
12648SOL    HW139951   4.907  18.023  -1.858
12648SOL    HW239952   5.014   7.061  -1.786
12649SOL     OW39953  10.166   9.360  11.548
12649SOL    HW139954  10.140  -1.757   0.558
12649SOL    HW239955  10.174   9.429  11.614
12650SOL     OW39956  11.352  10.401   9.622
12650SOL    HW139957   0.239  21.503   9.623
12650SOL    HW239958   0.290  10.337  -1.349
12651SOL     OW39959   1.279   4.119  12.608
12651SOL    HW139960  -9.728 -17.912  -9.394
12651SOL    HW239961   1.195   4.161   1.549
12652SOL     OW39962   6.513   5.997   4.687
12652SOL    HW139963   6.488   6.084  15.760
12652SOL    HW239964   6.584 -16.065   4.626
12653SOL     OW39965   3.680  10.044   6.002
12653SOL    HW139966 -29.438  10.053   6.097
12653SOL    HW239967   3.661  10.132   5.969
12654SOL     OW39968   9.687   2.611   1.836
12654SOL    HW139969   9.756  24.659  35.012
12654SOL    HW239970   9.611   2.557   1.858
12655SOL     OW39971   1.221   3.294   7.542
12655SOL    HW139972   1.250   3.203   7.531
12655SOL    HW239973   1.133  -7.745  -3.535
12656SOL     OW39974   1.987  10.099   9.710
12656SOL    HW139975   2.055  10.039   9.741
12656SOL    HW239976   2.026  10.186   9.718
12657SOL     OW39977   3.887   2.564   1.848
12657SOL    HW139978 -29.203   2.629   1.784
12657SOL    HW239979  -7.176   2.615   1.926
12658SOL     OW39980   6.149   3.767   2.141
12658SOL    HW139981  -4.951 -18.239   2.148
12658SOL    HW239982   6.206   3.776  13.257
12659SOL     OW39983   2.600   3.671   7.145
12659SOL    HW139984   2.629   3.599   7.202
12659SOL    HW239985   2.505  25.749  -3.888
12660SOL     OW39986   2.651   4.662   9.604
12660SOL    HW139987   2.714   4.612   9.552
12660SOL    HW239988   2.670   4.754   9.583
12661SOL     OW39989   0.109   8.788   6.297
12661SOL    HW139990  11.243   8.806  17.337
12661SOL    HW239991   0.092   8.750   6.211
12662SOL     OW39992   9.267   0.842   2.183
12662SOL    HW139993   9.295  11.866   2.093
12662SOL    HW239994   9.242   0.756  -8.824
12663SOL     OW39995   6.279   9.759   8.734
12663SOL    HW139996   6.228   9.764   8.653
12663SOL    HW239997  17.339 -12.413   8.744
12664SOL     OW39998   6.101  -1.337   5.618
12664SOL    HW139999   6.147  42.891   5.666
12664SOL    HW240000   6.106   9.627   5.677
12665SOL     OW40001   6.354   4.197   3.960
12665SOL    HW140002  -4.769   4.236 -29.135
12665SOL    HW240003   6.383   4.150  -7.001
12666SOL     OW40004   9.687  12.671   0.914
12666SOL    HW140005  -1.277  -9.356   0.889
12666SOL    HW240006  -1.315  -9.488   0.953
12667SOL     OW40007   9.127   5.537   5.360
12667SOL    HW140008  31.288   5.521   5.313
12667SOL    HW240009   9.111  27.535  27.488
12668SOL     OW40010   0.184   4.861  10.350
12668SOL    HW140011   0.231   4.781  10.324
12668SOL    HW240012  22.198   4.831  10.413
12669SOL     OW40013   6.443  11.031  12.584
12669SOL    HW140014  17.497  -0.100  12.609
12669SOL    HW240015   6.427  11.077 -20.453
12670SOL     OW40016   7.274   4.021   4.456
12670SOL    HW140017   7.190  15.039   4.497
12670SOL    HW240018  -3.783   4.100  -6.635
12671SOL     OW40019  11.800   5.057   7.453
12671SOL    HW140020 -10.369   5.062  29.500
12671SOL    HW240021  11.847   5.122  -3.637
12672SOL     OW40022   1.465  13.046  10.067
12672SOL    HW140023  23.600 -31.182  10.102
12672SOL    HW240024   1.477  -8.960  10.127
12673SOL     OW40025   2.677   0.544   0.843
12673SOL    HW140026   2.584   0.566 -10.202
12673SOL    HW240027   2.680   0.469   0.903
12674SOL     OW40028   2.915   9.119   8.839
12674SOL    HW140029   2.895   9.064   8.763
12674SOL    HW240030  13.946   9.061  30.993
12675SOL     OW40031   2.313   3.301  11.922
12675SOL    HW140032 -19.794   3.368  11.859
12675SOL    HW240033   2.309   3.345 -10.072
12676SOL     OW40034   2.218   8.884   1.727
12676SOL    HW140035  13.273   8.965   1.776
12676SOL    HW240036   2.306   8.854  12.742
12677SOL     OW40037   4.982   3.968   6.662
12677SOL    HW140038   4.974  37.137   6.581
12677SOL    HW240039  -5.985   3.907   6.645
12678SOL     OW40040   5.788   4.751   9.040
12678SOL    HW140041   5.879   4.761   9.069
12678SOL    HW240042   5.756   4.677   9.091
12679SOL     OW40043   2.697  10.006   1.663
12679SOL    HW140044  13.676   9.971   1.728
12679SOL    HW240045  13.755  10.095   1.692
12680SOL     OW40046   8.026   2.022   6.535
12680SOL    HW140047   8.095   1.996   6.596
12680SOL    HW240048  -3.095  -9.041   6.579
12681SOL     OW40049   7.243  10.238   4.941
12681SOL    HW140050   7.196  10.282   5.012
12681SOL    HW240051   7.206  10.150   4.939
12682SOL     OW40052   8.796   1.853   8.994
12682SOL    HW140053   8.814  24.014   8.947
12682SOL    HW240054  19.753  -9.217 -24.162
12683SOL     OW40055   6.330   6.442   0.107
12683SOL    HW140056   6.236  -4.612   0.095
12683SOL    HW240057   6.352 -15.688   0.185
12684SOL     OW40058   8.968   9.992   1.054
12684SOL    HW140059   8.883   9.961   1.023
12684SOL    HW240060   8.987  10.068   0.999
12685SOL     OW40061   4.685   2.328   6.558
12685SOL    HW140062   4.721   2.239  39.674
12685SOL    HW240063   4.692   2.360   6.468
12686SOL     OW40064  10.573   4.487   2.508
12686SOL    HW140065  10.517  15.518  -8.455
12686SOL    HW240066  10.653   4.530 -30.580
12687SOL     OW40067  10.957  10.960   2.770
12687SOL    HW140068  11.031  11.015   2.795
12687SOL    HW240069  10.997  10.884   2.728
12688SOL     OW40070   6.379   8.151   8.742
12688SOL    HW140071   6.441  19.119   8.729
12688SOL    HW240072  28.514   8.228   8.757
12689SOL     OW40073  -0.473   6.901   6.793
12689SOL    HW140074  10.594   6.867   6.708
12689SOL    HW240075  -0.455  28.909   6.855
12690SOL     OW40076   3.678   7.623   5.011
12690SOL    HW140077   3.604   7.562   5.006
12690SOL    HW240078  14.689   7.690   5.074
12691SOL     OW40079  -1.164   6.803   2.356
12691SOL    HW140080  20.865   6.843   2.427
12691SOL    HW240081  -1.111  -4.304   2.400
12692SOL     OW40082   0.475  14.389   6.513
12692SOL    HW140083  11.571 -40.884   6.531
12692SOL    HW240084   0.405 -18.736   6.578
12693SOL     OW40085   4.155   9.957   5.172
12693SOL    HW140086  15.187   9.925   5.082
12693SOL    HW240087   4.243  21.033   5.178
12694SOL     OW40088   6.918   2.161   9.102
12694SOL    HW140089  17.876   2.195   9.067
12694SOL    HW240090   6.953   2.105   9.033
12695SOL     OW40091   1.660   2.446   6.904
12695SOL    HW140092   1.720   2.375  17.919
12695SOL    HW240093  -9.338   2.487  29.059
12696SOL     OW40094   0.588   4.906  11.103
12696SOL    HW140095   0.569  15.909  -0.024
12696SOL    HW240096   0.666  27.038  11.090
12697SOL     OW40097  12.614   3.623   0.832
12697SOL    HW140098  -9.389  14.648 -10.152
12697SOL    HW240099   1.500  14.629   0.882
12698SOL     OW40100   4.730   2.491   2.842
12698SOL    HW140101 -17.444  -8.555   2.854
12698SOL    HW240102  -6.278 -30.717  13.899
12699SOL     OW40103  10.056   3.871   7.269
12699SOL    HW140104  10.095  14.996   7.248
12699SOL    HW240105  10.011   3.886  18.392
12700SOL     OW40106   3.924  -0.365   7.059
12700SOL    HW140107 -29.264  21.765   7.101
12700SOL    HW240108  -7.155  10.589  18.083
12701SOL     OW40109  10.064   2.752   8.303
12701SOL    HW140110  10.157   2.774   8.297
12701SOL    HW240111  10.039   2.731  19.253
12702SOL     OW40112   1.139   3.385   1.370
12702SOL    HW140113   1.105   3.357   1.455
12702SOL    HW240114   1.092  -7.574   1.350
12703SOL     OW40115   5.316   4.362   8.201
12703SOL    HW140116   5.311   4.449   8.160
12703SOL    HW240117   5.379   4.373   8.272
12704SOL     OW40118   6.281   4.616   9.625
12704SOL    HW140119  17.309 -17.470   9.720
12704SOL    HW240120  17.408   4.651  -1.426
12705SOL     OW40121   9.974   1.830   0.795
12705SOL    HW140122   9.985   1.904   0.736
12705SOL    HW240123  10.063  12.836   0.809
12706SOL     OW40124   5.755   2.037   8.796
12706SOL    HW140125 -27.345  24.201   8.835
12706SOL    HW240126  -5.377   2.022  19.855
12707SOL     OW40127   5.280   5.114   9.998
12707SOL    HW140128   5.363  16.117 -23.089
12707SOL    HW240129   5.235  16.184  10.078
12708SOL     OW40130   6.216   5.739   5.157
12708SOL    HW140131   6.190   5.652 -16.890
12708SOL    HW240132   6.171  16.840  -5.825
12709SOL     OW40133   1.107   8.543   3.679
12709SOL    HW140134  -9.852   8.522  -7.313
12709SOL    HW240135  23.125   8.474   3.705
12710SOL     OW40136   2.096   5.119   1.533
12710SOL    HW140137   2.087   5.102   1.439
12710SOL    HW240138  13.058   5.171  12.594
12711SOL     OW40139   2.275   4.292   7.326
12711SOL    HW140140   2.225  15.296   7.399
12711SOL    HW240141   2.209   4.323   7.265
12712SOL     OW40142  10.866  10.357   7.114
12712SOL    HW140143  21.866  -0.670   7.200
12712SOL    HW240144  -0.123  10.437   7.098
12713SOL     OW40145   2.923   1.271   2.796
12713SOL    HW140146  14.050  12.303  -8.207
12713SOL    HW240147   2.937 -20.781 -19.374
12714SOL     OW40148   6.382   5.406   5.254
12714SOL    HW140149   6.443   5.468   5.294
12714SOL    HW240150  -4.729   5.397   5.316
12715SOL     OW40151   0.260  10.364  10.935
12715SOL    HW140152   0.227  10.350  11.024
12715SOL    HW240153   0.337  10.419  10.946
12716SOL     OW40154   9.750   8.793  -0.460
12716SOL    HW140155  -1.277   8.818  10.671
12716SOL    HW240156 -23.283   8.757  10.553
12717SOL     OW40157   9.397   7.589   4.466
12717SOL    HW140158   9.359   7.676 -17.606
12717SOL    HW240159  31.416   7.540   4.410
12718SOL     OW40160   2.700   0.885   9.772
12718SOL    HW140161   2.690  22.870  -1.257
12718SOL    HW240162   2.650   0.906   9.693
12719SOL     OW40163  10.603   4.382   0.968
12719SOL    HW140164  -0.361   4.387   0.909
12719SOL    HW240165  21.677  26.484   1.054
12720SOL     OW40166   2.048   9.829   2.164
12720SOL    HW140167  -9.003   9.805   2.256
12720SOL    HW240168   1.995   9.766   2.116
12721SOL     OW40169   8.019   3.269   0.524
12721SOL    HW140170   7.925   3.254   0.532
12721SOL    HW240171 -14.020  14.235   0.570
12722SOL     OW40172  14.259   5.933   3.247
12722SOL    HW140173 -29.922 -27.096   3.275
12722SOL    HW240174 -18.943  -5.153   3.249
12723SOL     OW40175   8.631   0.693  11.562
12723SOL    HW140176   8.587   0.742 -10.448
12723SOL    HW240177   8.701   0.645   0.566
12724SOL     OW40178   4.560   6.140   9.211
12724SOL    HW140179   4.555   6.066  -1.768
12724SOL    HW240180   4.479  -4.905   9.160
12725SOL     OW40181   2.681  -0.234   2.484
12725SOL    HW140182   2.648  -0.324   2.476
12725SOL    HW240183   2.607  10.861   2.458
12726SOL     OW40184  10.677   9.528   2.783
12726SOL    HW140185  10.695  -1.583   2.843
12726SOL    HW240186  10.739   9.597  -8.231
12727SOL     OW40187  11.017   7.546   9.422
12727SOL    HW140188  11.046   7.482  20.397
12727SOL    HW240189 -11.081   7.493   9.500
12728SOL     OW40190   2.376   7.088   7.152
12728SOL    HW140191   2.302   7.135   7.113
12728SOL    HW240192   2.450   7.148   7.143
12729SOL     OW40193   8.445   6.778   9.100
12729SOL    HW140194   8.452   6.692   9.142
12729SOL    HW240195   8.535   6.811   9.096
12730SOL     OW40196   6.254  11.376   3.867
12730SOL    HW140197   6.219  11.287  -7.173
12730SOL    HW240198   6.255   0.362   3.775
12731SOL     OW40199   3.035   1.101   3.030
12731SOL    HW140200  14.085   1.177 -18.992
12731SOL    HW240201   2.996   1.034 -18.993
12732SOL     OW40202   2.819  10.533   6.764
12732SOL    HW140203   2.870  10.604   6.803
12732SOL    HW240204   2.728  10.554   6.786
12733SOL     OW40205   8.222   5.432   8.271
12733SOL    HW140206   8.241   5.434   8.178
12733SOL    HW240207  19.170   5.459  -2.761
12734SOL     OW40208   6.928   2.687   8.217
12734SOL    HW140209   6.938  -8.285   8.285
12734SOL    HW240210   6.894  13.650   8.263
12735SOL     OW40211   2.999   1.110  -1.777
12735SOL    HW140212   3.038  -9.845  20.326
12735SOL    HW240213   2.928   1.134  20.242
12736SOL     OW40214   0.540   4.554   2.996
12736SOL    HW140215  11.499   4.532  14.083
12736SOL    HW240216   0.603   4.576   3.065
12737SOL     OW40217   6.287   4.518   7.928
12737SOL    HW140218   6.192  15.553   7.920
12737SOL    HW240219   6.310  26.683   7.892
12738SOL     OW40220   3.500  10.766   7.808
12738SOL    HW140221   3.430  10.701   7.811
12738SOL    HW240222   3.513  10.784   7.715
12739SOL     OW40223   3.588   7.846   2.039
12739SOL    HW140224   3.540   7.836   1.957
12739SOL    HW240225   3.609   7.939   2.043
12740SOL     OW40226  -0.015  -1.236  10.459
12740SOL    HW140227  10.955  20.867  10.397
12740SOL    HW240228  11.015  20.748  10.469
12741SOL     OW40229   7.214   6.402   8.344
12741SOL    HW140230   7.219   6.330   8.280
12741SOL    HW240231   7.230   6.361   8.428
12742SOL     OW40232   4.994  10.560   2.252
12742SOL    HW140233   5.064  -0.532   2.292
12742SOL    HW240234   4.960 -22.505   2.323
12743SOL     OW40235   6.902   2.366   7.287
12743SOL    HW140236   6.896   2.421   7.365
12743SOL    HW240237   6.995   2.362   7.267
12744SOL     OW40238  10.139   9.646   7.522
12744SOL    HW140239  10.147   9.741   7.508
12744SOL    HW240240  10.064 -12.442   7.581
12745SOL     OW40241  11.699   8.637   7.710
12745SOL    HW140242 -10.415   8.723 -14.392
12745SOL    HW240243  11.642   8.606   7.781
12746SOL     OW40244   7.706   7.429   3.819
12746SOL    HW140245   7.752  18.386   3.838
12746SOL    HW240246  18.655   7.412   3.844
12747SOL     OW40247  10.263   7.369   0.472
12747SOL    HW140248  -0.756  -3.584  11.474
12747SOL    HW240249  10.345   7.320  11.502
12748SOL     OW40250   1.013   3.029   2.173
12748SOL    HW140251   0.980   2.970  -8.933
12748SOL    HW240252   1.064   3.094 -19.955
12749SOL     OW40253   8.267   1.222   6.011
12749SOL    HW140254   8.350   1.208  17.004
12749SOL    HW240255  19.251  12.189  28.060
12750SOL     OW40256  10.206   2.553   7.904
12750SOL    HW140257  10.200   2.499   7.825
12750SOL    HW240258 -11.782 -19.535   7.932
12751SOL     OW40259   6.654   3.800   6.591
12751SOL    HW140260   6.738  14.855   6.634
12751SOL    HW240261 -37.565   3.782   6.663
12752SOL     OW40262   2.694   2.918   7.460
12752SOL    HW140263   2.785  36.065   7.465
12752SOL    HW240264   2.647   2.995 -14.652
12753SOL     OW40265   5.962   8.643   3.871
12753SOL    HW140266  -5.087   8.622   3.778
12753SOL    HW240267   5.913   8.573   3.916
12754SOL     OW40268   4.962   1.703   6.954
12754SOL    HW140269   4.925 -20.459   6.984
12754SOL    HW240270   4.949   1.763  -4.013
12755SOL     OW40271   6.866   9.948  10.511
12755SOL    HW140272   6.881   9.858  10.539
12755SOL    HW240273   6.893  20.989  10.419
12756SOL     OW40274   7.960   7.831   5.787
12756SOL    HW140275   8.052   7.832  -5.224
12756SOL    HW240276   7.911   7.809   5.867
12757SOL     OW40277   6.502   3.997   4.223
12757SOL    HW140278  17.459   3.962   4.257
12757SOL    HW240279   6.535 -18.151   4.166
12758SOL     OW40280   0.027  10.938   1.281
12758SOL    HW140281  -0.014  11.024   1.284
12758SOL    HW240282  -0.038  -0.160   1.321
12759SOL     OW40283   0.744   3.472  10.734
12759SOL    HW140284   0.740   3.406  10.665
12759SOL    HW240285  11.798   3.555  10.687
12760SOL     OW40286   2.780   3.280   7.420
12760SOL    HW140287   2.759   3.214   7.486
12760SOL    HW240288   2.871   3.260   7.394
12761SOL     OW40289   2.043  10.078   9.306
12761SOL    HW140290  -8.903  21.136   9.308
12761SOL    HW240291  -9.015  10.034  -1.651
12762SOL     OW40292   9.622   4.243   9.868
12762SOL    HW140293   9.670   4.250   9.785
12762SOL    HW240294   9.538  26.284  20.883
12763SOL     OW40295   9.295   8.618   3.085
12763SOL    HW140296  -1.825   8.597   3.037
12763SOL    HW240297  -1.713 -13.545   3.117
12764SOL     OW40298   0.036   5.178   9.352
12764SOL    HW140299   0.022   5.191  31.338
12764SOL    HW240300  -0.050  16.231   9.392
12765SOL     OW40301   3.842  10.256   2.043
12765SOL    HW140302   3.871  21.210   2.077
12765SOL    HW240303 -18.188  10.268   1.962
12766SOL     OW40304   7.110   3.717   1.092
12766SOL    HW140305   7.022   3.744   1.067
12766SOL    HW240306   7.097  -7.372   1.173
12767SOL     OW40307   4.300   9.582   9.705
12767SOL    HW140308   4.246  -1.434   9.780
12767SOL    HW240309   4.355  20.550   9.736
12768SOL     OW40310   8.138   7.481   7.875
12768SOL    HW140311  19.242   7.533   7.922
12768SOL    HW240312   8.189   7.411   7.834
12769SOL     OW40313   8.225   4.315   8.919
12769SOL    HW140314   8.251   4.391   8.970
12769SOL    HW240315   8.129   4.313   8.924
12770SOL     OW40316   3.009   5.736   6.339
12770SOL    HW140317   2.952   5.737   6.416
12770SOL    HW240318   3.097 -27.398  17.414
12771SOL     OW40319   9.242   8.788  -2.376
12771SOL    HW140320  31.406  30.910  41.790
12771SOL    HW240321   9.207   8.786   8.753
12772SOL     OW40322   2.401   7.104   0.201
12772SOL    HW140323  13.526  18.185   0.192
12772SOL    HW240324  13.459 -15.066   0.222
12773SOL     OW40325   6.660   4.512   9.573
12773SOL    HW140326 -15.456  26.503   9.564
12773SOL    HW240327  -4.314   4.517   9.504
12774SOL     OW40328   5.934   4.183   0.081
12774SOL    HW140329   5.898  15.160   0.018
12774SOL    HW240330   5.861   4.241  11.141
12775SOL     OW40331  10.831  -0.310   4.611
12775SOL    HW140332  10.906  -0.322   4.669
12775SOL    HW240333  10.859  21.838   4.551
12776SOL     OW40334   6.714   4.366  10.733
12776SOL    HW140335  28.830 -17.754  10.655
12776SOL    HW240336   6.700  15.497  10.709
12777SOL     OW40337  11.310   8.340  10.841
12777SOL    HW140338  11.363   8.314  10.916
12777SOL    HW240339   0.231   8.259  10.810
12778SOL     OW40340   5.211   5.600   8.879
12778SOL    HW140341   5.152   5.530  19.888
12778SOL    HW240342   5.298  27.649   8.852
12779SOL     OW40343   3.168   8.861   1.673
12779SOL    HW140344  25.156   8.834   1.684
12779SOL    HW240345  -7.826  19.822  -9.396
12780SOL     OW40346   7.949  10.409   4.163
12780SOL    HW140347   7.948  10.500   4.133
12780SOL    HW240348   8.018  10.406  -6.810
12781SOL     OW40349   8.492  -0.665   3.466
12781SOL    HW140350  -2.606  32.435   3.541
12781SOL    HW240351  -2.544 -11.609   3.461
12782SOL     OW40352   6.499   3.302   5.649
12782SOL    HW140353  -4.628   3.287   5.686
12782SOL    HW240354   6.494   3.390   5.612
12783SOL     OW40355   6.545   2.177   2.511
12783SOL    HW140356   6.612   2.222   2.458
12783SOL    HW240357  -4.452   2.096  13.578
12784SOL     OW40358   0.008   2.795   0.431
12784SOL    HW140359   0.053  -8.174   0.386
12784SOL    HW240360  -0.081   2.797   0.397
12785SOL     OW40361   1.261   2.675   6.719
12785SOL    HW140362  12.218  13.667   6.730
12785SOL    HW240363  12.344  13.708   6.804
12786SOL     OW40364   6.404   7.076   2.143
12786SOL    HW140365  39.618   7.079   2.145
12786SOL    HW240366   6.378  29.122   2.229
12787SOL     OW40367   5.767   0.804   2.868
12787SOL    HW140368  16.832   0.727   2.818
12787SOL    HW240369   5.681   0.828   2.833
12788SOL     OW40370   2.556   2.602   5.696
12788SOL    HW140371   2.482   2.651  -5.379
12788SOL    HW240372  13.606 -30.591   5.637
12789SOL     OW40373   9.382  -0.549   3.958
12789SOL    HW140374   9.452  21.464   3.959
12789SOL    HW240375   9.322 -11.619   3.890
12790SOL     OW40376  -1.223   2.246   2.761
12790SOL    HW140377   9.885  -8.846  13.841
12790SOL    HW240378   9.827  57.429  -8.372
12791SOL     OW40379   9.086   9.794   7.628
12791SOL    HW140380   9.101   9.794   7.533
12791SOL    HW240381   9.145   9.862  40.780
12792SOL     OW40382   3.310   5.194   8.616
12792SOL    HW140383  14.334   5.265 -13.401
12792SOL    HW240384   3.235   5.199   8.556
12793SOL     OW40385   3.732   6.512   7.363
12793SOL    HW140386 -18.294  28.647   7.306
12793SOL    HW240387   3.643   6.548   7.356
12794SOL     OW40388   1.413   0.343   8.525
12794SOL    HW140389   1.414  11.388 -13.459
12794SOL    HW240390  23.487   0.433   8.496
12795SOL     OW40391   2.144   9.326   6.684
12795SOL    HW140392   2.120  20.404   6.769
12795SOL    HW240393   2.220   9.376   6.655
12796SOL     OW40394   1.956   1.058  11.330
12796SOL    HW140395  12.999 -10.060 -10.804
12796SOL    HW240396   2.021   1.117   0.253
12797SOL     OW40397   8.494  10.829   5.544
12797SOL    HW140398   8.489 -11.339 -16.571
12797SOL    HW240399  19.540  10.816   5.639
12798SOL     OW40400   1.249   3.069   6.392
12798SOL    HW140401   1.333  14.098   6.436
12798SOL    HW240402   1.253   3.156   6.352
12799SOL     OW40403   7.466   3.602   6.008
12799SOL    HW140404  -3.664  25.681  39.098
12799SOL    HW240405  18.503  36.684   6.097
12800SOL     OW40406   6.038   1.846   0.242
12800SOL    HW140407   6.033  -9.274 -10.851
12800SOL    HW240408   6.105   1.899  22.277
12801SOL     OW40409   9.651   2.578   6.152
12801SOL    HW140410   9.732   2.532  17.169
12801SOL    HW240411   9.585  -8.530   6.157
12802SOL     OW40412   8.378   7.127  11.093
12802SOL    HW140413   8.323   7.053 -21.998
12802SOL    HW240414   8.440   7.138   0.125
12803SOL     OW40415   4.176   5.237   4.985
12803SOL    HW140416  -6.931   5.243   4.917
12803SOL    HW240417   4.127   5.229  -5.973
12804SOL     OW40418   3.732  -0.276   5.110
12804SOL    HW140419   3.809  10.799  16.194
12804SOL    HW240420  14.711  10.742   5.181
12805SOL     OW40421   1.323   9.771   4.899
12805SOL    HW140422   1.229   9.776   4.881
12805SOL    HW240423   1.330   9.714   4.976
12806SOL     OW40424   4.931   1.558   1.864
12806SOL    HW140425   4.998   1.625 -20.209
12806SOL    HW240426   4.976   1.482   1.826
12807SOL     OW40427   1.641   4.711   4.199
12807SOL    HW140428  -9.361   4.722   4.286
12807SOL    HW240429  -9.438  15.664   4.200
12808SOL     OW40430   1.481   4.598   0.946
12808SOL    HW140431  12.594   4.659 -10.092
12808SOL    HW240432  12.443   4.654   0.945
12809SOL     OW40433   3.746   3.565   6.627
12809SOL    HW140434  14.798   3.657   6.649
12809SOL    HW240435   3.833  14.573   6.603
12810SOL     OW40436   5.434   3.894  -0.157
12810SOL    HW140437  16.492  14.875  -0.230
12810SOL    HW240438   5.512   3.949  21.929
12811SOL     OW40439  10.409   2.392   4.110
12811SOL    HW140440  10.317  46.526   4.101
12811SOL    HW240441  10.432   2.433   4.027
12812SOL     OW40442   1.078   8.520   2.163
12812SOL    HW140443  23.231   8.485   2.114
12812SOL    HW240444 -21.010   8.610   2.132
12813SOL     OW40445   8.792   1.631  10.971
12813SOL    HW140446   8.875   1.638 -22.100
12813SOL    HW240447   8.812  -9.469  10.898
12814SOL     OW40448   2.927   5.164   4.105
12814SOL    HW140449  24.965  16.285   4.135
12814SOL    HW240450   2.999   5.194   4.049
12815SOL     OW40451   0.846   5.166   9.665
12815SOL    HW140452   0.777   5.104  20.683
12815SOL    HW240453   0.927  27.195   9.655
12816SOL     OW40454   3.500   7.048   9.083
12816SOL    HW140455   3.472  29.039   9.056
12816SOL    HW240456   3.592   7.052   9.056
12817SOL     OW40457   3.031   3.087   1.130
12817SOL    HW140458  -7.939  14.070   1.097
12817SOL    HW240459  -8.066   3.101   1.055
12818SOL     OW40460   6.429   6.755   8.641
12818SOL    HW140461   6.356  17.752  -2.442
12818SOL    HW240462   6.480   6.684   8.679
12819SOL     OW40463   1.085   6.582   1.107
12819SOL    HW140464   1.033  28.580   1.098
12819SOL    HW240465  12.210  17.592   1.136
12820SOL     OW40466   0.627  11.182   4.534
12820SOL    HW140467   0.674  11.253  26.654
12820SOL    HW240468 -10.383   0.142   4.443
12821SOL     OW40469   1.125   4.174   1.298
12821SOL    HW140470   1.183   4.249   1.286
12821SOL    HW240471   1.088   4.158  -9.828
12822SOL     OW40472   0.872   9.589   4.205
12822SOL    HW140473   0.842   9.529   4.137
12822SOL    HW240474   0.941   9.640   4.163
12823SOL     OW40475   2.701   6.015  10.119
12823SOL    HW140476   2.612 -27.091  10.085
12823SOL    HW240477   2.756   6.070  -0.976
12824SOL     OW40478  10.662   4.491   9.857
12824SOL    HW140479  10.744  -6.551   9.807
12824SOL    HW240480  10.597 -28.599   9.794
12825SOL     OW40481   1.731   5.853   0.804
12825SOL    HW140482   1.803   5.843   0.866
12825SOL    HW240483  -9.387 -27.260   0.859
12826SOL     OW40484   2.898   8.757   7.013
12826SOL    HW140485   2.992  19.801   6.994
12826SOL    HW240486   2.891   8.696   7.086
12827SOL     OW40487   2.387   1.684   6.116
12827SOL    HW140488   2.416  -9.313   6.197
12827SOL    HW240489   2.466   1.680   6.062
12828SOL     OW40490   9.285  10.153   6.808
12828SOL    HW140491  20.370  10.237   6.807
12828SOL    HW240492  20.358  10.108   6.886
12829SOL     OW40493   3.794  11.015   1.371
12829SOL    HW140494  25.908   0.055   1.331
12829SOL    HW240495   3.792  -0.089 -20.779
12830SOL     OW40496   9.523  11.045   6.757
12830SOL    HW140497   9.520   0.079   6.818
12830SOL    HW240498   9.565  11.080   6.678
12831SOL     OW40499   4.792   3.329   9.480
12831SOL    HW140500   4.754  -7.787   9.436
12831SOL    HW240501   4.880   3.302  20.543
12832SOL     OW40502   7.259   8.972   3.046
12832SOL    HW140503  18.276   8.946  -7.904
12832SOL    HW240504   7.354   8.959   3.042
12833SOL     OW40505   8.920   9.167   4.136
12833SOL    HW140506   9.002   9.188   4.091
12833SOL    HW240507  30.974   9.082  -6.940
12834SOL     OW40508   0.971   9.258  10.539
12834SOL    HW140509   0.950   9.333  10.482
12834SOL    HW240510   1.032   9.206  10.487
12835SOL     OW40511  -1.784   2.152   7.534
12835SOL    HW140512  -1.690 -19.911 -14.558
12835SOL    HW240513  31.294  -8.802   7.520
12836SOL     OW40514   2.833   0.793   4.384
12836SOL    HW140515 -19.281   0.739  -6.585
12836SOL    HW240516   2.928   0.780  -6.651
12837SOL     OW40517  11.360   1.135   4.734
12837SOL    HW140518   0.245  -9.961   4.718
12837SOL    HW240519  11.337   1.218   4.692
12838SOL     OW40520   8.320   7.967   3.015
12838SOL    HW140521   8.298  19.035  14.144
12838SOL    HW240522   8.236   7.937   2.979
12839SOL     OW40523   1.989  11.215  -0.686
12839SOL    HW140524  -9.060 -10.838  21.302
12839SOL    HW240525   2.057   0.107  21.391
12840SOL     OW40526   0.128   7.238   4.805
12840SOL    HW140527  22.240   7.191   4.882
12840SOL    HW240528   0.149   7.329   4.822
12841SOL     OW40529   5.543   3.759  -0.371
12841SOL    HW140530   5.590   3.680  10.643
12841SOL    HW240531  27.617 -18.268  -0.451
12842SOL     OW40532   2.747   8.655   6.371
12842SOL    HW140533   2.776   8.564  17.398
12842SOL    HW240534   2.669  -2.378   6.316
12843SOL     OW40535   3.529  10.383   7.009
12843SOL    HW140536  25.595  10.332  18.128
12843SOL    HW240537   3.477  -0.703  17.982
12844SOL     OW40538   9.809   6.993  -0.481
12844SOL    HW140539 -12.200   7.028  21.654
12844SOL    HW240540   9.761   7.070  -0.511
12845SOL     OW40541   1.771   6.969   6.519
12845SOL    HW140542  12.715   6.971   6.514
12845SOL    HW240543   1.797  -3.979   6.510
12846SOL     OW40544   1.737   2.492   5.331
12846SOL    HW140545   1.737   2.414   5.275
12846SOL    HW240546   1.646  24.600  -5.707
12847SOL     OW40547   9.261   5.014   6.976
12847SOL    HW140548   9.190   4.949  18.012
12847SOL    HW240549 -23.869 -17.022   7.061
12848SOL     OW40550   0.114   5.586   5.709
12848SOL    HW140551   0.099   5.509   5.764
12848SOL    HW240552   0.133  27.630   5.622
12849SOL     OW40553  11.514   4.528  10.627
12849SOL    HW140554 -10.490 -17.546  10.686
12849SOL    HW240555  11.496   4.434  10.618
12850SOL     OW40556   1.607   1.666   7.939
12850SOL    HW140557   1.581   1.741   7.885
12850SOL    HW240558  23.617   1.660  -3.034
12851SOL     OW40559   9.693   4.946   2.180
12851SOL    HW140560  20.645  -6.108   2.214
12851SOL    HW240561   9.739   4.863   2.195
12852SOL     OW40562   9.744   6.926   8.047
12852SOL    HW140563   9.659   6.889  30.102
12852SOL    HW240564   9.742   6.932   8.142
12853SOL     OW40565   6.025   9.869   3.515
12853SOL    HW140566   6.031   9.775  -7.538
12853SOL    HW240567   6.016   9.905   3.426
12854SOL     OW40568   8.422  11.286   6.013
12854SOL    HW140569   8.435  11.259   5.922
12854SOL    HW240570  19.526 -10.842 -27.056
12855SOL     OW40571   7.386   2.142  11.444
12855SOL    HW140572  18.458   2.208  11.504
12855SOL    HW240573 -14.771 -19.973 -10.593
12856SOL     OW40574   9.998   4.753  10.024
12856SOL    HW140575   9.913   4.738 -12.095
12856SOL    HW240576   9.987   4.727  21.155
12857SOL     OW40577   1.404   6.543   7.374
12857SOL    HW140578   1.380   6.621   7.324
12857SOL    HW240579 -20.749   6.530  -3.606
12858SOL     OW40580   5.270   6.045  10.986
12858SOL    HW140581  -5.720   5.989  10.926
12858SOL    HW240582   5.257   5.991  11.064
12859SOL     OW40583   3.114   0.321   3.614
12859SOL    HW140584   3.066   0.239   3.610
12859SOL    HW240585   3.124   0.347   3.523
12860SOL     OW40586   5.722   8.484  10.115
12860SOL    HW140587   5.782  41.672  -0.897
12860SOL    HW240588   5.737   8.413  10.177
12861SOL     OW40589   2.648   4.764   5.727
12861SOL    HW140590  13.726   4.767  16.679
12861SOL    HW240591   2.683   4.841  27.851
12862SOL     OW40592   6.393  -0.571   2.568
12862SOL    HW140593   6.472  10.520  13.591
12862SOL    HW240594   6.329  -0.507   2.601
12863SOL     OW40595   3.023   9.481   2.284
12863SOL    HW140596   3.081   9.445   2.351
12863SOL    HW240597   3.001   9.568  -8.725
12864SOL     OW40598   6.028   1.410   4.574
12864SOL    HW140599 -15.980  -9.647   4.637
12864SOL    HW240600   6.024   1.331   4.521
12865SOL     OW40601   8.844   7.169   5.993
12865SOL    HW140602  30.856   7.113   6.033
12865SOL    HW240603  19.966  -3.906   6.025
12866SOL     OW40604   3.701   4.308   2.940
12866SOL    HW140605 -18.333   4.330  14.061
12866SOL    HW240606  14.795 -17.840  13.940
12867SOL     OW40607  10.798   9.943   2.439
12867SOL    HW140608  10.821   9.985   2.356
12867SOL    HW240609  10.879 -12.178   2.469
12868SOL     OW40610   3.576   7.377   8.737
12868SOL    HW140611   3.657   7.326   8.733
12868SOL    HW240612  14.645   7.468  19.772
12869SOL     OW40613   2.268   9.337   4.890
12869SOL    HW140614   2.214   9.412   4.914
12869SOL    HW240615 -19.817   9.278   4.964
12870SOL     OW40616   4.565   5.730   2.474
12870SOL    HW140617   4.563  27.714   2.467
12870SOL    HW240618   4.559 -38.411   2.568
12871SOL     OW40619   7.561   0.566   8.352
12871SOL    HW140620   7.528  11.523  30.396
12871SOL    HW240621  -3.509  11.607  30.521
12872SOL     OW40622   4.096   1.124   9.861
12872SOL    HW140623 -18.038  -9.840 -12.239
12872SOL    HW240624  26.132   1.085  -1.102
12873SOL     OW40625   5.804   2.825   8.593
12873SOL    HW140626  -5.247   2.908  19.587
12873SOL    HW240627  16.895   2.771   8.533
12874SOL     OW40628   8.642   5.079   6.487
12874SOL    HW140629   8.720   5.102   6.436
12874SOL    HW240630   8.674   5.068  -4.463
12875SOL     OW40631   8.324   9.189   6.343
12875SOL    HW140632   8.230  -1.867   6.335
12875SOL    HW240633  19.399   9.110  17.423
12876SOL     OW40634   3.155   7.873   9.088
12876SOL    HW140635   3.117   7.850 -23.946
12876SOL    HW240636  25.322   7.835  -1.949
12877SOL     OW40637   8.303  11.041   4.946
12877SOL    HW140638  30.420  10.969   4.997
12877SOL    HW240639  19.412   0.027  38.004
12878SOL     OW40640   2.055  10.735   9.161
12878SOL    HW140641   1.993  10.675   9.203
12878SOL    HW240642 -20.078  10.798  -1.925
12879SOL     OW40643   7.880   0.674  10.635
12879SOL    HW140644 -14.105   0.688  10.640
12879SOL    HW240645   7.870   0.579  -0.399
12880SOL     OW40646   1.340   6.706   9.949
12880SOL    HW140647   1.425   6.750   9.954
12880SOL    HW240648  -9.686  17.662   9.993
12881SOL     OW40649   0.864   7.660   2.853
12881SOL    HW140650   0.925  -3.307   2.863
12881SOL    HW240651   0.887   7.619   2.770
12882SOL     OW40652   8.945   4.158   0.710
12882SOL    HW140653   8.961   4.093  11.817
12882SOL    HW240654  19.900  -6.905  22.752
12883SOL     OW40655   9.957   2.391   0.812
12883SOL    HW140656   9.903   2.316  11.875
12883SOL    HW240657   9.900   2.444   0.756
12884SOL     OW40658   9.381   0.027   4.269
12884SOL    HW140659  31.530   0.091   4.256
12884SOL    HW240660   9.321  11.108  -6.709
12885SOL     OW40661   2.267   4.344   9.181
12885SOL    HW140662  13.309   4.401   9.104
12885SOL    HW240663   2.204   4.275  42.276
12886SOL     OW40664   5.659   7.695   9.809
12886SOL    HW140665 -16.501  -3.295   9.796
12886SOL    HW240666   5.682  -3.377   9.722
12887SOL     OW40667   9.467   3.828   8.415
12887SOL    HW140668   9.529   3.875   8.470
12887SOL    HW240669  20.530   3.851   8.326
12888SOL     OW40670   9.944   2.967   8.005
12888SOL    HW140671  20.897   2.933   7.982
12888SOL    HW240672   9.991   2.892  19.082
12889SOL     OW40673   7.613   6.392   5.356
12889SOL    HW140674   7.610   6.315   5.299
12889SOL    HW240675   7.663   6.363   5.432
12890SOL     OW40676   6.468   3.040   3.937
12890SOL    HW140677   6.378  -8.033   3.943
12890SOL    HW240678   6.519  -8.075   3.906
12891SOL     OW40679  11.058   5.186   1.809
12891SOL    HW140680   0.069   5.254   1.853
12891SOL    HW240681  11.025   5.131   1.880
12892SOL     OW40682   6.360   8.876   0.766
12892SOL    HW140683  28.465   8.849   0.678
12892SOL    HW240684  17.434  -2.232   0.824
12893SOL     OW40685   3.891   8.172   5.133
12893SOL    HW140686   3.937   8.252   5.106
12893SOL    HW240687  14.977  -2.938   5.088
12894SOL     OW40688   8.021   3.347   0.921
12894SOL    HW140689   8.074   3.393   0.855
12894SOL    HW240690  19.045  36.379  11.923
12895SOL     OW40691   9.258   9.635   6.015
12895SOL    HW140692   9.283  -1.497   6.013
12895SOL    HW240693  31.244   9.635  17.076
12896SOL     OW40694   7.585   4.355   4.882
12896SOL    HW140695   7.497   4.353   4.843
12896SOL    HW240696  -3.415 -17.807  15.896
12897SOL     OW40697  10.878  10.840   0.454
12897SOL    HW140698  10.905  10.766   0.400
12897SOL    HW240699  10.854  10.802   0.538
12898SOL     OW40700  10.997  10.496  10.268
12898SOL    HW140701  11.051  10.566  10.232
12898SOL    HW240702  10.945  10.466  -0.846
12899SOL     OW40703   7.023  11.273  12.281
12899SOL    HW140704   6.946  11.226   1.207
12899SOL    HW240705   6.992 -21.756  -9.786
12900SOL     OW40706   2.897   5.241   5.539
12900SOL    HW140707   2.820   5.184   5.533
12900SOL    HW240708   2.959   5.192   5.592
12901SOL     OW40709   7.344   7.963   5.689
12901SOL    HW140710  -3.670   8.006 -16.309
12901SOL    HW240711   7.415   7.984  -5.412
12902SOL     OW40712   2.341   7.887   5.582
12902SOL    HW140713   2.371   7.977  -5.442
12902SOL    HW240714   2.316   7.885  -5.549
12903SOL     OW40715   6.262  -1.669   9.082
12903SOL    HW140716  -4.744  20.499   9.091
12903SOL    HW240717   6.179   9.371  20.168
12904SOL     OW40718   3.377   6.033  11.819
12904SOL    HW140719   3.354   6.118 -21.337
12904SOL    HW240720   3.472   6.028 -21.307
12905SOL     OW40721   9.862   1.992   8.893
12905SOL    HW140722   9.826   1.916  19.978
12905SOL    HW240723   9.922   2.032   8.955
12906SOL     OW40724   9.869   0.782   9.124
12906SOL    HW140725   9.896   0.865   9.163
12906SOL    HW240726   9.821   0.808   9.045
12907SOL     OW40727   9.772   9.606   0.410
12907SOL    HW140728   9.848   9.642   0.364
12907SOL    HW240729   9.714 -12.398   0.421
12908SOL     OW40730   3.944   7.925   9.579
12908SOL    HW140731   4.037  -3.126   9.561
12908SOL    HW240732   3.939   8.007   9.628
12909SOL     OW40733   8.167   9.944   8.824
12909SOL    HW140734 -36.050   9.926   8.750
12909SOL    HW240735   8.251   9.906   8.798
12910SOL     OW40736   2.961  12.015   9.506
12910SOL    HW140737   2.880  23.106   9.509
12910SOL    HW240738   2.987 -21.100   9.414
12911SOL     OW40739   8.979   3.316   4.487
12911SOL    HW140740  19.999  14.276  -6.502
12911SOL    HW240741  19.933  14.388   4.460
12912SOL     OW40742   0.465   7.270   6.503
12912SOL    HW140743   0.548  18.294   6.459
12912SOL    HW240744   0.413   7.318   6.438
12913SOL     OW40745   5.018   1.464   4.732
12913SOL    HW140746  16.125  12.436   4.725
12913SOL    HW240747  27.093   1.485   4.825
12914SOL     OW40748   7.191   1.313   1.235
12914SOL    HW140749   7.138  -9.720  12.195
12914SOL    HW240750  29.262  -9.818   1.262
12915SOL     OW40751   4.364   5.401   4.223
12915SOL    HW140752   4.449  -5.600  15.241
12915SOL    HW240753   4.369  16.421  15.356
12916SOL     OW40754   5.074   5.806  10.360
12916SOL    HW140755   5.011  16.777  10.382
12916SOL    HW240756   5.113   5.779  10.277
12917SOL     OW40757   7.086   0.024   5.615
12917SOL    HW140758   7.088   0.040   5.709
12917SOL    HW240759   6.993  22.100   5.593
12918SOL     OW40760   7.561   2.068   3.126
12918SOL    HW140761  -3.505   2.010  36.316
12918SOL    HW240762   7.542  -9.021  14.086
12919SOL     OW40763  10.605   6.990   4.037
12919SOL    HW140764 -11.430   6.997   4.122
12919SOL    HW240765  10.515   6.967   4.058
12920SOL     OW40766  10.058   7.869   2.197
12920SOL    HW140767  10.091  -3.222   2.123
12920SOL    HW240768   9.965   7.884   2.176
12921SOL     OW40769  10.196   3.974   0.847
12921SOL    HW140770  -0.861   3.896   0.796
12921SOL    HW240771  10.167   3.952  11.975
12922SOL     OW40772   6.371   6.534   7.736
12922SOL    HW140773   6.364   6.495   7.649
12922SOL    HW240774  -4.712  -4.420  -3.312
12923SOL     OW40775   8.366   1.225   7.763
12923SOL    HW140776   8.272   1.210   7.766
12923SOL    HW240777   8.393   1.196  -3.363
12924SOL     OW40778  10.012   2.988   2.463
12924SOL    HW140779   9.926   3.022   2.484
12924SOL    HW240780  -0.990 -19.116   2.547
12925SOL     OW40781   4.561   0.009   8.273
12925SOL    HW140782   4.639  11.012   8.232
12925SOL    HW240783   4.511  -0.067   8.302
12926SOL     OW40784   2.495   7.842   1.064
12926SOL    HW140785   2.511   7.855   0.970
12926SOL    HW240786   2.428   7.908   1.086
12927SOL     OW40787   6.770   9.998   7.818
12927SOL    HW140788  17.799  10.078  18.806
12927SOL    HW240789   6.865  -1.055   7.821
12928SOL     OW40790   3.331   5.353   7.271
12928SOL    HW140791   3.296   5.365  18.400
12928SOL    HW240792   3.344 -38.899  -3.777
12929SOL     OW40793   9.324  10.007   8.205
12929SOL    HW140794   9.335 -12.080  -2.740
12929SOL    HW240795   9.405  10.049  -2.865
12930SOL     OW40796   5.470   7.946   5.181
12930SOL    HW140797   5.510   7.987 -16.821
12930SOL    HW240798  16.540   7.999   5.108
12931SOL     OW40799  10.158   3.166   8.270
12931SOL    HW140800  10.086   3.124   8.315
12931SOL    HW240801  -0.808  -7.934   8.280
12932SOL     OW40802   0.676   4.083   8.370
12932SOL    HW140803  11.774   4.137   8.316
12932SOL    HW240804  22.667  15.148 -13.735
12933SOL     OW40805   1.829   0.278   0.068
12933SOL    HW140806   1.870  22.290   0.013
12933SOL    HW240807   1.771   0.230   0.127
12934SOL     OW40808   2.155   8.586   6.856
12934SOL    HW140809 -19.888   8.515   6.803
12934SOL    HW240810   2.217  30.674   6.929
12935SOL     OW40811   1.471   3.718   4.650
12935SOL    HW140812  12.520   3.694   4.558
12935SOL    HW240813 -20.546   3.790   4.664
12936SOL     OW40814  10.836   2.226  10.735
12936SOL    HW140815  10.868   2.242  -0.393
12936SOL    HW240816  10.836   2.312  -0.263
12937SOL     OW40817   5.054   3.693   6.015
12937SOL    HW140818   4.984   3.679   5.950
12937SOL    HW240819   5.060   3.610  -4.978
12938SOL     OW40820   9.454   0.886   2.686
12938SOL    HW140821  20.416   0.838   2.657
12938SOL    HW240822 -12.660   0.956  -8.298
12939SOL     OW40823   6.680   0.630   4.816
12939SOL    HW140824   6.740   0.692   4.775
12939SOL    HW240825 -15.365   0.544   4.791
12940SOL     OW40826   7.638   6.556   8.316
12940SOL    HW140827  18.720  -4.521   8.239
12940SOL    HW240828  -3.486   6.589   8.284
12941SOL     OW40829   9.053   9.416  11.110
12941SOL    HW140830  31.108   9.326  11.134
12941SOL    HW240831   9.025   9.469 -10.895
12942SOL     OW40832   4.451  10.543  10.054
12942SOL    HW140833   4.517  10.578  -1.045
12942SOL    HW240834   4.433  10.454  -1.017
12943SOL     OW40835   5.338   3.592   5.848
12943SOL    HW140836   5.368   3.682   5.851
12943SOL    HW240837   5.383  14.593   5.773
12944SOL     OW40838   2.244   0.350   6.131
12944SOL    HW140839   2.194  33.548   6.112
12944SOL    HW240840 -19.853   0.292  17.096
12945SOL     OW40841   3.310   7.474   8.730
12945SOL    HW140842  -7.715   7.521   8.812
12945SOL    HW240843 -18.695  -3.625   8.723
12946SOL     OW40844   3.503   3.406  10.149
12946SOL    HW140845   3.558   3.480  10.123
12946SOL    HW240846   3.536   3.332  10.098
12947SOL     OW40847   7.412   8.835   6.789
12947SOL    HW140848  -3.542   8.792   6.786
12947SOL    HW240849   7.426   8.920  17.788
12948SOL     OW40850   7.912   0.827   5.442
12948SOL    HW140851  -3.071  11.925   5.491
12948SOL    HW240852  -3.078   0.745 -16.643
12949SOL     OW40853   7.541   3.167   5.007
12949SOL    HW140854  -3.461   3.173  -5.945
12949SOL    HW240855   7.605   3.210   4.951
12950SOL     OW40856   0.158   5.956   6.746
12950SOL    HW140857  11.265   6.002   6.697
12950SOL    HW240858  22.155   5.991   6.712
12951SOL     OW40859   0.114   0.697   3.953
12951SOL    HW140860  11.211   0.725   3.882
12951SOL    HW240861   0.161   0.623   3.993
12952SOL     OW40862   6.748   8.085   7.728
12952SOL    HW140863   6.657  19.140   7.751
12952SOL    HW240864   6.757  30.069  18.764
12953SOL     OW40865  10.729   6.526   3.697
12953SOL    HW140866  10.789   6.585   3.742
12953SOL    HW240867  10.657  50.671  14.799
12954SOL     OW40868  12.935   1.627   6.765
12954SOL    HW140869  12.862 -20.479   6.820
12954SOL    HW240870 -31.240  12.626   6.680
12955SOL     OW40871   9.677   3.984   6.649
12955SOL    HW140872 -12.443   3.960   6.732
12955SOL    HW240873  31.713   4.065   6.623
12956SOL     OW40874   1.303   2.549   7.809
12956SOL    HW140875   1.262   2.614  29.945
12956SOL    HW240876  45.537   2.518   7.858
12957SOL     OW40877   3.204   2.054  -1.510
12957SOL    HW140878   3.120   2.010   9.542
12957SOL    HW240879   3.230   2.080  31.697
12958SOL     OW40880   7.538   9.949   6.807
12958SOL    HW140881 -14.585  10.034   6.802
12958SOL    HW240882   7.524   9.920  17.936
12959SOL     OW40883   7.038   9.181   2.641
12959SOL    HW140884   7.125  -1.900  -8.399
12959SOL    HW240885   7.056 -12.804 -30.484
12960SOL     OW40886   6.756   5.971   1.806
12960SOL    HW140887   6.846  -5.042   1.822
12960SOL    HW240888   6.761  -5.161   1.785
12961SOL     OW40889   3.619  10.780   3.548
12961SOL    HW140890   3.577  10.696  -7.510
12961SOL    HW240891 -29.460  10.806   3.465
12962SOL     OW40892   6.942   1.092   9.141
12962SOL    HW140893  51.189   1.128   9.131
12962SOL    HW240894   6.923  -9.988  -1.983
12963SOL     OW40895   2.893  10.192   1.957
12963SOL    HW140896   2.893  10.097   1.949
12963SOL    HW240897   2.856  10.209   2.044
12964SOL     OW40898   6.733   2.171   3.006
12964SOL    HW140899  28.772   2.243   2.959
12964SOL    HW240900   6.799   2.136  -8.093
12965SOL     OW40901   5.783   2.216   7.564
12965SOL    HW140902   5.799   2.132  18.561
12965SOL    HW240903   5.698   2.205   7.608
12966SOL     OW40904   0.197   5.622  10.528
12966SOL    HW140905   0.183   5.666  21.651
12966SOL    HW240906   0.143   5.671  -0.574
12967SOL     OW40907  10.719   5.476   7.677
12967SOL    HW140908  10.707  -5.658  -3.367
12967SOL    HW240909  10.768  -5.550  -3.281
12968SOL     OW40910   8.460   7.036   3.842
12968SOL    HW140911  30.572   6.964   3.788
12968SOL    HW240912   8.425  29.073  37.039
12969SOL     OW40913   8.046   5.420   5.203
12969SOL    HW140914  -2.963 -16.576   5.167
12969SOL    HW240915   7.951  -5.611 -16.871
12970SOL     OW40916   6.244   6.436  10.081
12970SOL    HW140917  -4.769   6.406  21.207
12970SOL    HW240918  17.207   6.384  -0.980
12971SOL     OW40919   7.715   0.968   6.834
12971SOL    HW140920   7.674   0.943   6.751
12971SOL    HW240921   7.643   0.997   6.889
12972SOL     OW40922   3.730   8.070   8.925
12972SOL    HW140923   3.790  30.128  42.116
12972SOL    HW240924  14.827  19.120   8.849
12973SOL     OW40925   4.781  10.135   5.880
12973SOL    HW140926   4.714  10.123   5.813
12973SOL    HW240927   4.857  21.208   5.832
12974SOL     OW40928   3.093   1.772   2.589
12974SOL    HW140929   3.068  34.891   2.682
12974SOL    HW240930   3.010   1.765   2.542
12975SOL     OW40931   0.783  -1.232   2.328
12975SOL    HW140932   0.805  20.846   2.235
12975SOL    HW240933  11.899  -1.272   2.370
12976SOL     OW40934  10.008   5.874   1.894
12976SOL    HW140935  -0.937   5.870   1.911
12976SOL    HW240936  -1.050   5.968   1.885
12977SOL     OW40937   9.336   4.326   7.893
12977SOL    HW140938   9.308 -17.671   7.934
12977SOL    HW240939   9.432 -17.751  29.978
12978SOL     OW40940   4.533   2.816   7.143
12978SOL    HW140941   4.463   2.751  -3.898
12978SOL    HW240942   4.487   2.900   7.143
12979SOL     OW40943   1.008   6.733   2.160
12979SOL    HW140944   0.968   6.652   2.191
12979SOL    HW240945 -10.087   6.761   2.087
12980SOL     OW40946   8.656   1.081   9.040
12980SOL    HW140947   8.609  12.057   9.094
12980SOL    HW240948   8.734  12.142  -1.949
12981SOL     OW40949   6.697   5.204  -1.586
12981SOL    HW140950  17.767   5.116  -1.609
12981SOL    HW240951   6.696   5.252  31.449
12982SOL     OW40952   2.058   8.875   1.357
12982SOL    HW140953   2.121   8.947   1.348
12982SOL    HW240954  -8.969   8.822   1.278
12983SOL     OW40955   9.021   9.190   3.745
12983SOL    HW140956   8.979   9.126  25.882
12983SOL    HW240957   9.110   9.158   3.734
12984SOL     OW40958   3.516  -0.286   2.735
12984SOL    HW140959   3.474  10.837   2.754
12984SOL    HW240960   3.445  -0.343  -8.332
12985SOL     OW40961   3.382   2.993   2.366
12985SOL    HW140962 -18.641   2.920  13.431
12985SOL    HW240963   3.293   2.958   2.369
12986SOL     OW40964  10.518   6.441   5.677
12986SOL    HW140965  10.533   6.372  -5.428
12986SOL    HW240966  10.427   6.469   5.661
12987SOL     OW40967   6.022  10.763   3.748
12987SOL    HW140968   6.034  -0.228  -7.373
12987SOL    HW240969   5.939 -22.324  -7.256
12988SOL     OW40970   8.658   6.797   9.744
12988SOL    HW140971   8.568   6.809  -1.327
12988SOL    HW240972   8.675  -4.164   9.797
12989SOL     OW40973   0.830   4.790   0.871
12989SOL    HW140974   0.781   4.721  11.865
12989SOL    HW240975   0.830   4.762   0.963
12990SOL     OW40976   1.758   9.002   7.570
12990SOL    HW140977  12.753   8.920  18.588
12990SOL    HW240978   1.851   8.980   7.570
12991SOL     OW40979   3.093   5.849   8.842
12991SOL    HW140980   3.057   5.876  30.836
12991SOL    HW240981  14.170  16.968   8.879
12992SOL     OW40982   4.267   6.976   8.017
12992SOL    HW140983   4.282  -4.099  19.144
12992SOL    HW240984  -6.691   7.022   7.995
12993SOL     OW40985  10.776   9.004   4.626
12993SOL    HW140986  10.680   9.001   4.628
12993SOL    HW240987  10.803   8.913   4.614
12994SOL     OW40988  -0.299   7.678   4.737
12994SOL    HW140989  -0.394  -3.370   4.725
12994SOL    HW240990  10.776   7.673   4.648
12995SOL     OW40991   3.435   9.979   4.337
12995SOL    HW140992   3.417   9.936   4.421
12995SOL    HW240993   3.445  21.111   4.360
12996SOL     OW40994   4.552   9.208   2.078
12996SOL    HW140995   4.507   9.289   2.102
12996SOL    HW240996  -6.492   9.205   1.982
12997SOL     OW40997   8.556   0.728   8.103
12997SOL    HW140998   8.625   0.777  19.097
12997SOL    HW240999   8.484   0.790  -2.929
12998SOL     OW41000  12.117   4.163   8.666
12998SOL    HW141001   1.045   4.252   8.680
12998SOL    HW241002   1.020   4.108   8.719
12999SOL     OW41003   8.727  10.078   4.366
12999SOL    HW141004  19.827  -0.952  15.479
12999SOL    HW241005   8.717   9.983   4.356
13000SOL     OW41006   3.422   4.626   6.561
13000SOL    HW141007   3.429   4.681   6.482
13000SOL    HW241008   3.476  15.589   6.542
13001SOL     OW41009   0.480   3.502   6.295
13001SOL    HW141010  44.635  14.472   6.360
13001SOL    HW241011  22.632  14.597   6.322
13002SOL     OW41012   0.635   0.132   1.571
13002SOL    HW141013   0.674   0.067   1.513
13002SOL    HW241014   0.541   0.129   1.551
13003SOL     OW41015   9.047   3.768   1.116
13003SOL    HW141016   9.127  -7.240   1.073
13003SOL    HW241017  -2.045 -18.348   1.045
13004SOL     OW41018   9.278   6.420   2.485
13004SOL    HW141019   9.306   6.508   2.462
13004SOL    HW241020   9.238   6.385   2.406
13005SOL     OW41021   8.200   8.717   7.947
13005SOL    HW141022  19.184   8.795   7.948
13005SOL    HW241023   8.171  19.708   7.869
13006SOL     OW41024   8.904   9.368  10.410
13006SOL    HW141025  19.957   9.353  10.503
13006SOL    HW241026  -2.230 -23.760  21.437
13007SOL     OW41027   7.033   9.469   1.141
13007SOL    HW141028   6.968   9.486   1.209
13007SOL    HW241029   7.105   9.426   1.186
13008SOL     OW41030   0.522  10.052   9.695
13008SOL    HW141031   0.547  10.133   9.739
13008SOL    HW241032   0.481  10.000  20.803
13009SOL     OW41033   3.811   3.406   1.045
13009SOL    HW141034   3.769  -7.565  23.177
13009SOL    HW241035   3.744   3.381   0.981
13010SOL     OW41036   6.941   5.301   9.568
13010SOL    HW141037   6.878   5.235  -1.500
13010SOL    HW241038   6.891   5.382   9.574
13011SOL     OW41039   7.739   8.911   5.708
13011SOL    HW141040   7.809   8.846 -16.377
13011SOL    HW241041   7.665   8.870   5.663
13012SOL     OW41042   4.649   5.130   7.494
13012SOL    HW141043   4.559  16.200  18.525
13012SOL    HW241044   4.659   5.063   7.427
13013SOL     OW41045   8.164   9.252   5.466
13013SOL    HW141046   8.238   9.231   5.522
13013SOL    HW241047   8.165   9.184 -27.720
13014SOL     OW41048   2.580   5.301   7.372
13014SOL    HW141049   2.575   5.210   7.399
13014SOL    HW241050  13.713   5.317   7.358
13015SOL     OW41051   8.016   3.506   8.486
13015SOL    HW141052   7.947   3.508  19.592
13015SOL    HW241053   8.010   3.591  19.482
13016SOL     OW41054   4.130   8.052   3.016
13016SOL    HW141055   4.178   8.129   3.047
13016SOL    HW241056   4.038  19.111   3.036
13017SOL     OW41057   5.448   7.994   0.037
13017SOL    HW141058   5.384   7.951   0.093
13017SOL    HW241059   5.533   7.968  11.114
13018SOL     OW41060   4.251   4.936   1.262
13018SOL    HW141061   4.194 -17.220   1.268
13018SOL    HW241062   4.288   4.932  -9.865
13019SOL     OW41063   8.094   1.196   7.812
13019SOL    HW141064  -2.962   1.105   7.787
13019SOL    HW241065   8.063   1.202  29.982
13020SOL     OW41066  11.479   3.273   2.415
13020SOL    HW141067 -21.603   3.289   2.328
13020SOL    HW241068  11.551   3.235   2.465
13021SOL     OW41069   4.235   4.541   2.652
13021SOL    HW141070  15.359  37.685   2.690
13021SOL    HW241071   4.182   4.620   2.655
13022SOL     OW41072   5.593   6.146   8.368
13022SOL    HW141073   5.647   6.108   8.437
13022SOL    HW241074   5.534   6.075  -2.697
13023SOL     OW41075   5.268   6.288   0.781
13023SOL    HW141076   5.281  39.320  22.899
13023SOL    HW241077  27.385  17.388  33.964
13024SOL     OW41078   5.126   6.170  10.200
13024SOL    HW141079   5.086  28.198  10.271
13024SOL    HW241080   5.095  17.299  21.254
13025SOL     OW41081   5.424   8.869   1.711
13025SOL    HW141082  -5.669  19.945   1.640
13025SOL    HW241083   5.512   8.861   1.672
13026SOL     OW41084  10.105   0.984   5.658
13026SOL    HW141085  -0.911   0.967  16.789
13026SOL    HW241086 -12.059   1.028  -5.377
13027SOL     OW41087   3.991   8.316   3.284
13027SOL    HW141088   4.020   8.289   3.197
13027SOL    HW241089   4.070   8.351   3.326
13028SOL     OW41090   6.949  -0.640   1.511
13028SOL    HW141091   7.034  21.396   1.515
13028SOL    HW241092   6.886  -0.709   1.535
13029SOL     OW41093   1.984   8.287   4.953
13029SOL    HW141094   2.072   8.275   4.916
13029SOL    HW241095  46.125   8.380   4.944
13030SOL     OW41096   5.641   1.841   6.488
13030SOL    HW141097   5.588   1.784   6.543
13030SOL    HW241098   5.630  23.885  28.478
13031SOL     OW41099   7.829   2.440   8.028
13031SOL    HW141100   7.798   2.388   8.103
13031SOL    HW241101 -14.329 -19.598  19.033
13032SOL     OW41102   1.286   5.229   8.217
13032SOL    HW141103   1.379   5.255   8.213
13032SOL    HW241104   1.280   5.154  30.237
13033SOL     OW41105   9.779   2.732  10.031
13033SOL    HW141106   9.860   2.778  10.051
13033SOL    HW241107   9.785   2.712   9.937
13034SOL     OW41108   6.319   5.171   4.990
13034SOL    HW141109   6.230   5.181   4.959
13034SOL    HW241110  17.371   5.077   4.999
13035SOL     OW41111  11.294   0.257   3.424
13035SOL    HW141112  11.320  11.311  -7.706
13035SOL    HW241113   0.189   0.326   3.441
13036SOL     OW41114   6.525   1.219   6.217
13036SOL    HW141115   6.521   1.148   6.153
13036SOL    HW241116 -15.634  12.249   6.268
13037SOL     OW41117   7.031  10.741   6.869
13037SOL    HW141118   6.952  10.693  -4.143
13037SOL    HW241119  29.142  10.693 -15.287
13038SOL     OW41120   2.062   5.939  -0.754
13038SOL    HW141121   2.156   5.924  10.300
13038SOL    HW241122   2.057   6.029  21.293
13039SOL     OW41123   9.285   1.122   8.440
13039SOL    HW141124   9.285   1.169   8.357
13039SOL    HW241125   9.196   1.089 -13.630
13040SOL     OW41126   9.115   8.044  12.101
13040SOL    HW141127  20.237   8.063  12.146
13040SOL    HW241128  20.090   8.101 -20.976
13041SOL     OW41129   7.622   4.444   6.051
13041SOL    HW141130 -14.390  15.417   6.065
13041SOL    HW241131   7.655   4.496   5.977
13042SOL     OW41132   3.522   8.593   4.895
13042SOL    HW141133   3.562   8.644   4.824
13042SOL    HW241134   3.594   8.578   4.957
13043SOL     OW41135  11.299   0.906   1.759
13043SOL    HW141136  11.386   0.913   1.798
13043SOL    HW241137   0.247   0.989   1.713
13044SOL     OW41138   3.939  11.011   1.614
13044SOL    HW141139   4.020  11.054   1.588
13044SOL    HW241140   3.882  11.019   1.538
13045SOL     OW41141   2.358   2.151   6.906
13045SOL    HW141142   2.376   2.061   6.879
13045SOL    HW241143   2.328  -8.845  28.906
13046SOL     OW41144   3.434   3.695   5.104
13046SOL    HW141145   3.520   3.657   5.084
13046SOL    HW241146   3.415   3.665   5.193
13047SOL     OW41147   1.571  10.687   9.588
13047SOL    HW141148   1.602  10.777  20.638
13047SOL    HW241149  -9.394  10.640   9.551
13048SOL     OW41150  11.383   6.947  10.094
13048SOL    HW141151   0.434   6.972  10.114
13048SOL    HW241152  11.344   6.926  10.179
13049SOL     OW41153   7.243   0.213   8.561
13049SOL    HW141154   7.168   0.248   8.610
13049SOL    HW241155   7.206   0.143   8.508
13050SOL     OW41156   1.486   7.065   5.865
13050SOL    HW141157   1.526   7.151   5.878
13050SOL    HW241158   1.432   7.076   5.786
13051SOL     OW41159   4.164   6.993   5.717
13051SOL    HW141160   4.073   7.020   5.701
13051SOL    HW241161   4.199  -3.978   5.773
13052SOL     OW41162   1.302   9.572   4.318
13052SOL    HW141163   1.373   9.565   4.254
13052SOL    HW241164   1.261   9.486   4.318
13053SOL     OW41165   9.879   5.866   5.378
13053SOL    HW141166   9.943   5.794  16.419
13053SOL    HW241167   9.911   5.928   5.443
13054SOL     OW41168  10.190   5.869   3.534
13054SOL    HW141169  10.232   5.918   3.605
13054SOL    HW241170  10.221  -5.261  14.585
13055SOL     OW41171   5.202  -0.552   0.658
13055SOL    HW141172   5.144  -0.509   0.595
13055SOL    HW241173  -5.897  10.439   0.716
13056SOL     OW41174   7.131   7.918   2.919
13056SOL    HW141175   7.200  18.908  24.954
13056SOL    HW241176  -3.865   7.961   2.992
13057SOL     OW41177   1.797   9.282   1.615
13057SOL    HW141178   1.735   9.309  12.587
13057SOL    HW241179   1.769  -1.846   1.639
13058SOL     OW41180   1.631   7.882   7.418
13058SOL    HW141181   1.615   7.854  18.367
13058SOL    HW241182 -20.523   7.938  18.479
13059SOL     OW41183  10.705   4.014   9.815
13059SOL    HW141184  10.660   4.080   9.867
13059SOL    HW241185  -0.320   3.941   9.875
13060SOL     OW41186   6.288   0.525   5.797
13060SOL    HW141187   6.212   0.557   5.845
13060SOL    HW241188  28.433   0.509   5.864
13061SOL     OW41189  10.511   7.566   6.586
13061SOL    HW141190  10.500   7.501   6.517
13061SOL    HW241191  10.569   7.523   6.650
13062SOL     OW41192  10.241   6.642   0.932
13062SOL    HW141193 -11.863   6.670   0.844
13062SOL    HW241194  21.323   6.557   0.920
13063SOL     OW41195   3.238   0.208   7.796
13063SOL    HW141196  25.400   0.182  18.877
13063SOL    HW241197   3.180   0.133   7.809
13064SOL     OW41198   5.569   6.505   6.224
13064SOL    HW141199   5.637   6.530  -4.754
13064SOL    HW241200   5.528 -15.492   6.197
13065SOL     OW41201   9.546   9.216  11.597
13065SOL    HW141202  20.584   9.129  11.637
13065SOL    HW241203   9.637  -1.812   0.530
13066SOL     OW41204  10.097   8.486   4.897
13066SOL    HW141205  10.142   8.402  -6.149
13066SOL    HW241206 -11.955  19.562   4.981
13067SOL     OW41207   7.653   4.390   4.100
13067SOL    HW141208   7.642   4.484 -29.036
13067SOL    HW241209  -3.299   4.383 -17.941
13068SOL     OW41210   5.157   2.421   3.057
13068SOL    HW141211   5.201   2.490   3.107
13068SOL    HW241212   5.179  13.380 -30.015
13069SOL     OW41213   1.355   3.111   2.718
13069SOL    HW141214  12.452  14.100   2.662
13069SOL    HW241215  12.442   3.118   2.801
13070SOL     OW41216   5.623   2.383  -0.479
13070SOL    HW141217   5.562   2.320  -0.441
13070SOL    HW241218   5.706   2.366  21.645
13071SOL     OW41219   1.079   2.581   4.667
13071SOL    HW141220  12.046   2.599  26.806
13071SOL    HW241221   1.042   2.520  15.643
13072SOL     OW41222  10.455   0.671   7.397
13072SOL    HW141223  10.442   0.749   7.343
13072SOL    HW241224  10.445  11.637   7.336
13073SOL     OW41225   3.926   2.764  -0.151
13073SOL    HW141226  36.968  24.899  -0.163
13073SOL    HW241227  37.011   2.683  10.927
13074SOL     OW41228   0.958  10.086   7.782
13074SOL    HW141229  11.922  10.132  -3.221
13074SOL    HW241230  23.009  10.058  -3.344
13075SOL     OW41231   1.232   6.622   8.284
13075SOL    HW141232   1.162  -4.373   8.236
13075SOL    HW241233   1.205  17.569 -13.795
13076SOL     OW41234   1.314   2.027   7.248
13076SOL    HW141235   1.293   1.964   7.317
13076SOL    HW241236   1.382   2.083   7.287
13077SOL     OW41237   3.652   6.438   0.237
13077SOL    HW141238   3.577  17.513  11.325
13077SOL    HW241239   3.612   6.386 -10.872
13078SOL     OW41240   3.004   5.378   6.558
13078SOL    HW141241  -7.954   5.327  -4.482
13078SOL    HW241242   2.952   5.339   6.628
13079SOL     OW41243  10.188   4.707   6.583
13079SOL    HW141244  10.219  -6.270   6.518
13079SOL    HW241245  10.154   4.760   6.654
13080SOL     OW41246   3.196   7.244   8.060
13080SOL    HW141247   3.247  29.280   7.992
13080SOL    HW241248   3.260 -25.833  -2.922
13081SOL     OW41249   7.372  10.631   6.292
13081SOL    HW141250  18.381  10.594   6.375
13081SOL    HW241251  -3.572  10.632 -15.779
13082SOL     OW41252   8.544   3.831   6.942
13082SOL    HW141253   8.570   3.880 -15.215
13082SOL    HW241254   8.624   3.821   6.993
13083SOL     OW41255   5.003   6.553  10.498
13083SOL    HW141256   4.984  39.582  10.526
13083SOL    HW241257   5.098  28.638  10.500
13084SOL     OW41258   9.876   5.973   8.110
13084SOL    HW141259   9.935   6.048  -2.927
13084SOL    HW241260  -1.134   5.917  30.261
13085SOL     OW41261   4.879   4.339   0.282
13085SOL    HW141262  -6.202  15.296   0.257
13085SOL    HW241263  26.888   4.391   0.321
13086SOL     OW41264   1.255   5.828   1.503
13086SOL    HW141265 -20.899   5.768  34.629
13086SOL    HW241266   1.217   5.910   1.470
13087SOL     OW41267   7.131   0.055  10.493
13087SOL    HW141268   7.135   0.104  -0.628
13087SOL    HW241269   7.191   0.100  10.551
13088SOL     OW41270   0.745   9.630   3.591
13088SOL    HW141271 -10.334  20.698   3.674
13088SOL    HW241272   0.807   9.563   3.617
13089SOL     OW41273   3.134   4.363   2.637
13089SOL    HW141274   3.050   4.372 -19.487
13089SOL    HW241275  25.211   4.429  24.785
13090SOL     OW41276   0.585   2.967   1.323
13090SOL    HW141277   0.581   3.024   1.246
13090SOL    HW241278   0.661   2.999   1.372
13091SOL     OW41279  10.690   7.561   1.174
13091SOL    HW141280  10.648  -3.539  -9.805
13091SOL    HW241281  -0.420   7.615   1.140
13092SOL     OW41282   0.252   2.237   5.496
13092SOL    HW141283  33.303  13.344   5.504
13092SOL    HW241284   0.236   2.178  -5.470
13093SOL     OW41285   7.633   6.387   0.430
13093SOL    HW141286   7.678  39.479   0.350
13093SOL    HW241287 -14.507   6.316   0.449
13094SOL     OW41288  10.975   3.858   3.277
13094SOL    HW141289  22.090   3.917   3.271
13094SOL    HW241290 -11.150   3.870   3.194
13095SOL     OW41291   6.600   8.147   1.953
13095SOL    HW141292   6.616  -2.958   1.886
13095SOL    HW241293   6.649   8.224  35.042
13096SOL     OW41294   5.219   7.717   0.054
13096SOL    HW141295   5.146   7.706  -0.008
13096SOL    HW241296   5.293  62.871   0.012
13097SOL     OW41297   9.485   6.919   7.722
13097SOL    HW141298   9.578  -4.111  -3.300
13097SOL    HW241299   9.474   6.825   7.705
13098SOL     OW41300   0.240   4.220   8.964
13098SOL    HW141301   0.151 -17.831   8.986
13098SOL    HW241302   0.241 -28.992   8.986
13099SOL     OW41303  10.011  10.934   4.165
13099SOL    HW141304   9.937 -11.097   4.201
13099SOL    HW241305  10.048  -0.048   4.098
13100SOL     OW41306   1.910   7.813   0.842
13100SOL    HW141307  35.047   7.903 -10.172
13100SOL    HW241308  -9.185   7.779   0.912
13101SOL     OW41309   0.739  -0.276   4.364
13101SOL    HW141310   0.765  21.795   4.272
13101SOL    HW241311   0.666  -0.337   4.373
13102SOL     OW41312   3.750   2.301   8.551
13102SOL    HW141313   3.798  13.371   8.474
13102SOL    HW241314   3.763   2.207   8.551
13103SOL     OW41315   1.458   7.554   8.896
13103SOL    HW141316   1.466   7.459   8.885
13103SOL    HW241317  -9.674  29.651   8.881
13104SOL     OW41318   8.697   6.379   3.567
13104SOL    HW141319   8.638   6.360  25.720
13104SOL    HW241320   8.686   6.305   3.508
13105SOL     OW41321   6.271   5.997   4.984
13105SOL    HW141322  17.220   6.003  -6.085
13105SOL    HW241323 -15.793   5.903   4.995
13106SOL     OW41324  11.948   1.494   4.285
13106SOL    HW141325  12.034   1.527  15.299
13106SOL    HW241326 -21.225  23.651   4.297
13107SOL     OW41327  10.158   7.884  -0.442
13107SOL    HW141328  10.229   7.942  21.664
13107SOL    HW241329  10.202   7.803  10.572
13108SOL     OW41330   4.521   8.621  10.373
13108SOL    HW141331   4.608   8.660  10.368
13108SOL    HW241332   4.530   8.550  10.436
13109SOL     OW41333   4.321   5.847   0.703
13109SOL    HW141334   4.338   5.937   0.732
13109SOL    HW241335   4.230 -16.230   0.674
13110SOL     OW41336   7.410  11.230   9.792
13110SOL    HW141337   7.363  11.159  20.876
13110SOL    HW241338   7.405 -10.775   9.853
13111SOL     OW41339   9.139   6.361   3.734
13111SOL    HW141340  -1.982   6.348   3.784
13111SOL    HW241341   9.110   6.396   3.650
13112SOL     OW41342   0.300  10.058   7.590
13112SOL    HW141343  22.452  10.119  29.666
13112SOL    HW241344   0.338   9.977  29.703
13113SOL     OW41345   1.733  -0.239   7.188
13113SOL    HW141346   1.788  10.784   7.112
13113SOL    HW241347   1.790  -0.255   7.263
13114SOL     OW41348   2.808   3.359   4.208
13114SOL    HW141349  13.812   3.432   4.259
13114SOL    HW241350   2.887   3.395   4.167
13115SOL     OW41351   3.595   6.456   2.323
13115SOL    HW141352   3.580   6.550   2.333
13115SOL    HW241353   3.686   6.449   2.294
13116SOL     OW41354   5.416   4.814   2.045
13116SOL    HW141355 -27.662   4.853  13.162
13116SOL    HW241356   5.421   4.719   2.060
13117SOL     OW41357   4.183  10.265   5.264
13117SOL    HW141358   4.140  32.260  27.360
13117SOL    HW241359   4.218  -0.784   5.175
13118SOL     OW41360   1.912   6.631   6.982
13118SOL    HW141361   1.934   6.558   7.039
13118SOL    HW241362  -9.215  17.649   6.948
13119SOL     OW41363   8.116   4.171   1.416
13119SOL    HW141364   8.115   4.102   1.350
13119SOL    HW241365   8.028   4.209   1.412
13120SOL     OW41366   7.612   0.496   6.414
13120SOL    HW141367  18.685   0.581   6.442
13120SOL    HW241368  18.701   0.475   6.335
13121SOL     OW41369   3.607   0.867   7.785
13121SOL    HW141370   3.537   0.893   7.725
13121SOL    HW241371  -7.359 -10.193   7.727
13122SOL     OW41372  -0.058   6.299   3.882
13122SOL    HW141373  -0.042  -4.830   3.910
13122SOL    HW241374  10.975   6.350  15.003
13123SOL     OW41375   9.927   2.310  10.505
13123SOL    HW141376  10.010  13.328  10.546
13123SOL    HW241377   9.948   2.381  10.444
13124SOL     OW41378   9.176   2.158   6.746
13124SOL    HW141379   9.260   2.142  17.829
13124SOL    HW241380   9.195   2.151   6.653
13125SOL     OW41381   3.366   9.445  11.506
13125SOL    HW141382   3.367   9.353  11.533
13125SOL    HW241383   3.411   9.491   0.537
13126SOL     OW41384   4.097   9.594   4.306
13126SOL    HW141385   4.038   9.645   4.361
13126SOL    HW241386   4.180  20.634   4.354
13127SOL     OW41387   7.192   1.841   8.420
13127SOL    HW141388  18.195  23.907   8.508
13127SOL    HW241389   7.136   1.906   8.380
13128SOL     OW41390   1.314   7.071   4.321
13128SOL    HW141391   1.252   7.012  -6.762
13128SOL    HW241392  12.435  18.101   4.271
13129SOL     OW41393   3.939   3.142   5.516
13129SOL    HW141394   3.867   3.106   5.463
13129SOL    HW241395   4.016   3.093  16.528
13130SOL     OW41396  11.427   9.863   5.640
13130SOL    HW141397   0.358   9.852   5.549
13130SOL    HW241398 -21.598   9.880   5.634
13131SOL     OW41399   6.576   2.614   2.406
13131SOL    HW141400   6.573   2.525   2.371
13131SOL    HW241401  -4.541   2.656   2.370
13132SOL     OW41402   6.743   3.152   2.243
13132SOL    HW141403   6.724  -7.815   2.183
13132SOL    HW241404   6.790  14.127   2.189
13133SOL     OW41405   3.227   7.948  11.518
13133SOL    HW141406   3.311   7.966   0.519
13133SOL    HW241407   3.222   8.009  11.444
13134SOL     OW41408   5.513   7.651   6.702
13134SOL    HW141409   5.598  -3.430  -4.321
13134SOL    HW241410   5.529 -14.335   6.714
13135SOL     OW41411   7.607  11.561   0.656
13135SOL    HW141412  29.721  11.537   0.742
13135SOL    HW241413   7.624   0.445   0.601
13136SOL     OW41414   4.387   6.282   6.012
13136SOL    HW141415  26.451 -15.833   5.924
13136SOL    HW241416   4.482   6.289   6.019
13137SOL     OW41417   0.936   5.694   2.645
13137SOL    HW141418   0.968  27.765   2.555
13137SOL    HW241419   0.910   5.785   2.654
13138SOL     OW41420   4.278   8.868   4.121
13138SOL    HW141421  15.282   8.826   4.043
13138SOL    HW241422  15.287   8.958   4.116
13139SOL     OW41423   3.769   8.676  10.640
13139SOL    HW141424   3.856   8.707  10.665
13139SOL    HW241425   3.783  19.672  10.556
13140SOL     OW41426   6.840   0.014   1.221
13140SOL    HW141427   6.850  -0.064  34.395
13140SOL    HW241428   6.792  -0.018   1.144
13141SOL     OW41429   4.416   1.542   3.568
13141SOL    HW141430   4.367  12.514  -7.424
13141SOL    HW241431   4.362   1.562   3.492
13142SOL     OW41432   8.045   3.986   1.971
13142SOL    HW141433   8.118  -7.060   2.032
13142SOL    HW241434   8.060   4.068   1.925
13143SOL     OW41435   4.063   7.609  13.398
13143SOL    HW141436   4.146   7.650 -19.694
13143SOL    HW241437   4.080 -14.564   2.363
13144SOL     OW41438   1.152  10.012   3.141
13144SOL    HW141439   1.214   9.949   3.178
13144SOL    HW241440   1.107  10.048   3.218
13145SOL     OW41441   8.733   7.316   2.873
13145SOL    HW141442  19.746   7.378   2.805
13145SOL    HW241443   8.797   7.364   2.926
13146SOL     OW41444  -0.019   3.296   9.483
13146SOL    HW141445  21.980  -7.732   9.533
13146SOL    HW241446  11.089  -7.704   9.538
13147SOL     OW41447   1.636   1.261   8.001
13147SOL    HW141448   1.628  23.256 -14.123
13147SOL    HW241449   1.716   1.299  -3.074
13148SOL     OW41450  10.223   0.598   8.102
13148SOL    HW141451  10.223   0.545   8.181
13148SOL    HW241452  10.235   0.687   8.132
13149SOL     OW41453   5.517  -1.701   7.096
13149SOL    HW141454  38.597  42.381   7.140
13149SOL    HW241455   5.601  -1.688   7.140
13150SOL     OW41456   8.538   5.054   5.089
13150SOL    HW141457  19.544  -6.075  27.169
13150SOL    HW241458   8.545  -5.961   5.181
13151SOL     OW41459   0.285   9.512   2.612
13151SOL    HW141460   0.374  20.578   2.637
13151SOL    HW241461   0.261   9.447  24.756
13152SOL     OW41462  10.131   3.400   4.433
13152SOL    HW141463  21.108   3.373   4.501
13152SOL    HW241464  -0.914   3.496   4.432
13153SOL     OW41465   4.424   4.121   1.500
13153SOL    HW141466   4.342   4.129   1.451
13153SOL    HW241467   4.399   4.078   1.582
13154SOL     OW41468   7.350   1.439   7.706
13154SOL    HW141469   7.392  -9.552   7.777
13154SOL    HW241470   7.420   1.423   7.643
13155SOL     OW41471  10.129   3.310   4.850
13155SOL    HW141472  10.087  14.435   4.855
13155SOL    HW241473  21.107   3.255  37.921
13156SOL     OW41474   0.779   4.485   9.210
13156SOL    HW141475   0.792   4.431  31.367
13156SOL    HW241476   0.803 -17.506   9.237
13157SOL     OW41477   9.670   6.371   5.622
13157SOL    HW141478   9.692   6.310   5.691
13157SOL    HW241479   9.623  17.358   5.557
13158SOL     OW41480   4.634   4.963   8.497
13158SOL    HW141481   4.565   5.025   8.476
13158SOL    HW241482  15.711   4.938  19.452
13159SOL     OW41483   1.059  -2.265   0.326
13159SOL    HW141484  12.137  -2.350   0.306
13159SOL    HW241485   1.070  52.983  11.285
13160SOL     OW41486  10.777   9.613   2.301
13160SOL    HW141487  10.742  -1.446  -8.652
13160SOL    HW241488  -0.173  20.621   2.303
13161SOL     OW41489  11.605   9.106   1.229
13161SOL    HW141490  11.553   9.049   1.172
13161SOL    HW241491   0.654   9.071  45.382
13162SOL     OW41492   9.765   6.762   8.477
13162SOL    HW141493   9.769  17.806  19.612
13162SOL    HW241494   9.840   6.707   8.452
13163SOL     OW41495   4.567   6.191   5.207
13163SOL    HW141496   4.651   6.232   5.225
13163SOL    HW241497   4.514   6.209  82.562
13164SOL     OW41498   8.367  -1.198   7.005
13164SOL    HW141499   8.318  -1.158   7.078
13164SOL    HW241500   8.325  42.996  17.966
13165SOL     OW41501  10.163   2.895   0.838
13165SOL    HW141502  10.168  25.029   0.760
13165SOL    HW241503  10.114   2.948   0.901
13166SOL     OW41504   8.457   3.613   4.082
13166SOL    HW141505   8.443   3.571  -7.043
13166SOL    HW241506   8.533   3.669   4.068
13167SOL     OW41507   0.505   2.170   9.178
13167SOL    HW141508   0.503   2.199   9.086
13167SOL    HW241509   0.552   2.086   9.175
13168SOL     OW41510   6.982   8.639  11.363
13168SOL    HW141511   6.957   8.727   0.296
13168SOL    HW241512   6.929   8.581  11.308
13169SOL     OW41513   4.131  10.840   8.008
13169SOL    HW141514  15.113  10.764  19.046
13169SOL    HW241515 -18.004  10.913   7.982
13170SOL     OW41516   7.328   6.428   8.022
13170SOL    HW141517  29.406   6.474   8.106
13170SOL    HW241518  -3.689   6.496 -14.121
13171SOL     OW41519   6.101   4.094  11.307
13171SOL    HW141520   6.143  -6.864   0.293
13171SOL    HW241521   6.042   4.118  11.236
13172SOL     OW41522  -0.102   7.687   2.342
13172SOL    HW141523  10.882   7.692   2.264
13172SOL    HW241524  10.879   7.657   2.412
13173SOL     OW41525   2.824   3.556   6.657
13173SOL    HW141526   2.871  14.679   6.664
13173SOL    HW241527   2.861   3.503  28.807
13174SOL     OW41528  11.566  10.027  10.450
13174SOL    HW141529   0.483  -0.928  10.436
13174SOL    HW241530   0.486   9.993  -0.509
13175SOL     OW41531   3.303   2.656   4.052
13175SOL    HW141532   3.231   2.618   4.102
13175SOL    HW241533   3.278   2.748   4.040
13176SOL     OW41534   7.552   2.945   1.202
13176SOL    HW141535   7.519  14.066   1.241
13176SOL    HW241536   7.636   2.930   1.244
13177SOL     OW41537  11.162   0.902   1.104
13177SOL    HW141538   0.141   0.903   1.010
13177SOL    HW241539   0.043   0.955  12.152
13178SOL     OW41540   4.106   6.975   7.420
13178SOL    HW141541 -17.927 -26.188  -3.692
13178SOL    HW241542 -17.907  -4.058  18.529
13179SOL     OW41543   6.139   6.295   1.782
13179SOL    HW141544   6.104   6.244   1.855
13179SOL    HW241545   6.201   6.236   1.739
13180SOL     OW41546   0.312   4.128   4.515
13180SOL    HW141547 -10.671  26.231  15.628
13180SOL    HW241548  11.350  26.284  -6.580
13181SOL     OW41549   2.843   6.972  10.482
13181SOL    HW141550  13.884   7.045  10.419
13181SOL    HW241551   2.831   7.014  -0.472
13182SOL     OW41552   9.044   9.883   7.350
13182SOL    HW141553   9.105   9.955   7.339
13182SOL    HW241554  42.124   9.871   7.263
13183SOL     OW41555   8.003  10.965   8.047
13183SOL    HW141556  -3.002  10.945  -3.080
13183SOL    HW241557   8.014  10.885   8.097
13184SOL     OW41558   1.953   9.284   4.173
13184SOL    HW141559  -9.166   9.331  15.238
13184SOL    HW241560   1.947   9.200   4.219
13185SOL     OW41561   6.522   7.249   9.180
13185SOL    HW141562  28.689   7.228   9.147
13185SOL    HW241563  17.506  18.284   9.103
13186SOL     OW41564   2.306   0.176   2.952
13186SOL    HW141565  24.377   0.198  13.899
13186SOL    HW241566  13.409   0.238   2.987
13187SOL     OW41567   0.295   1.383   8.147
13187SOL    HW141568  11.313   1.406   8.238
13187SOL    HW241569   0.389  -9.674   8.148
13188SOL     OW41570   4.582   0.795   7.790
13188SOL    HW141571  -6.535   0.785   7.846
13188SOL    HW241572   4.618   0.706   7.783
13189SOL     OW41573   2.308   0.602   3.254
13189SOL    HW141574   2.258   0.682   3.264
13189SOL    HW241575  -8.751   0.551 -18.746
13190SOL     OW41576   2.033   2.696   5.121
13190SOL    HW141577   1.996  13.713  -6.004
13190SOL    HW241578  -8.971   2.614   5.155
13191SOL     OW41579   5.946   2.678   0.675
13191SOL    HW141580  16.950   2.729   0.602
13191SOL    HW241581   6.005  -8.301   0.720
13192SOL     OW41582  -1.462   6.206   1.326
13192SOL    HW141583  20.570   6.136   1.373
13192SOL    HW241584  20.579  -4.753   1.360
13193SOL     OW41585   9.138  -1.856   0.809
13193SOL    HW141586   9.053  42.274   0.844
13193SOL    HW241587   9.132  31.245   0.715
13194SOL     OW41588   9.139   2.945   7.403
13194SOL    HW141589   9.061  13.930   7.392
13194SOL    HW241590   9.106   3.034   7.408
13195SOL     OW41591  10.616   4.992   3.344
13195SOL    HW141592  10.596  16.080   3.424
13195SOL    HW241593  10.709   5.008   3.329
13196SOL     OW41594  10.461   0.660  10.667
13196SOL    HW141595  10.373  11.690  10.631
13196SOL    HW241596  10.464 -10.289  10.699
13197SOL     OW41597   2.667  10.110   4.319
13197SOL    HW141598 -19.498  10.151 -28.813
13197SOL    HW241599  13.718  10.111   4.414
13198SOL     OW41600   4.857   7.535   2.056
13198SOL    HW141601  -6.169  18.541   2.145
13198SOL    HW241602   4.811   7.618   2.069
13199SOL     OW41603   0.057   3.454   6.189
13199SOL    HW141604  11.100  14.437   6.266
13199SOL    HW241605   0.148   3.473  39.287
13200SOL     OW41606   6.171   9.234   0.314
13200SOL    HW141607   6.219   9.153   0.300
13200SOL    HW241608   6.217   9.299   0.261
13201SOL     OW41609   3.704   8.352   1.885
13201SOL    HW141610   3.677   8.330   1.974
13201SOL    HW241611  -7.335   8.269   1.838
13202SOL     OW41612   6.630  -0.203   4.383
13202SOL    HW141613  17.741 -11.305   4.391
13202SOL    HW241614  17.661  32.955   4.470
13203SOL     OW41615   9.932   1.401   4.471
13203SOL    HW141616   9.971   1.484  15.485
13203SOL    HW241617  10.004   1.353   4.512
13204SOL     OW41618   1.930   5.451   2.955
13204SOL    HW141619  -9.045   5.423   2.891
13204SOL    HW241620   1.922   5.546   2.942
13205SOL     OW41621   0.850   3.652   3.126
13205SOL    HW141622   0.917   3.587   3.149
13205SOL    HW241623   0.899   3.734  14.157
13206SOL     OW41624   1.951   1.133   3.605
13206SOL    HW141625  -9.010   1.182   3.581
13206SOL    HW241626   1.880   1.176  14.597
13207SOL     OW41627   7.120  -0.229   4.877
13207SOL    HW141628   7.092  10.900 -17.221
13207SOL    HW241629   7.124  10.806   4.972
13208SOL     OW41630  10.024   7.749   4.665
13208SOL    HW141631  10.097   7.764   4.605
13208SOL    HW241632   9.971   7.682   4.621
13209SOL     OW41633   2.024   9.080  11.953
13209SOL    HW141634   2.041  20.211 -21.184
13209SOL    HW241635  13.064   9.037 -10.212
13210SOL     OW41636   5.139   3.698   4.557
13210SOL    HW141637  16.162   3.785   4.592
13210SOL    HW241638   5.234   3.688   4.563
13211SOL     OW41639   7.304   6.996   2.556
13211SOL    HW141640   7.279   6.906 -19.501
13211SOL    HW241641   7.388  29.088   2.601
13212SOL     OW41642   5.861   9.999   6.188
13212SOL    HW141643   5.841  10.086   6.152
13212SOL    HW241644  -5.247  20.982  17.192
13213SOL     OW41645   5.355   6.225   2.748
13213SOL    HW141646   5.369   6.308   2.795
13213SOL    HW241647   5.443   6.194   2.726
13214SOL     OW41648   5.583   6.462  10.209
13214SOL    HW141649   5.546   6.391  10.156
13214SOL    HW241650   5.678  28.531  10.198
13215SOL     OW41651   9.841   0.229   1.913
13215SOL    HW141652   9.855  11.348   1.965
13215SOL    HW241653   9.766   0.186  35.073
13216SOL     OW41654   0.403   4.183   6.564
13216SOL    HW141655   0.410   4.212  17.695
13216SOL    HW241656   0.325   4.127   6.563
13217SOL     OW41657   7.484  -1.282  10.722
13217SOL    HW141658   7.407   9.777  10.774
13217SOL    HW241659   7.484  20.864  10.653
13218SOL     OW41660   9.740   7.718   9.477
13218SOL    HW141661  20.824  29.746   9.409
13218SOL    HW241662   9.703   7.652  -1.504
13219SOL     OW41663   0.776   5.300   1.158
13219SOL    HW141664   0.852   5.308   1.100
13219SOL    HW241665   0.707   5.264   1.103
13220SOL     OW41666   2.562   9.889   8.734
13220SOL    HW141667  -8.404  -1.165   8.793
13220SOL    HW241668  35.634   9.806  -2.308
13221SOL     OW41669   9.635   2.496   9.206
13221SOL    HW141670  31.745   2.578 -12.913
13221SOL    HW241671   9.539   2.500  -1.841
13222SOL     OW41672   7.520   6.008   9.449
13222SOL    HW141673 -14.540   6.095   9.414
13222SOL    HW241674   7.427  61.208  -1.569
13223SOL     OW41675   3.738   6.133   9.775
13223SOL    HW141676   3.760   6.224  31.874
13223SOL    HW241677  -7.257   6.081  -1.197
13224SOL     OW41678  10.981   9.954   1.370
13224SOL    HW141679  11.015  -1.107   1.282
13224SOL    HW241680  10.899  10.000   1.353
13225SOL     OW41681   9.012  12.326   2.584
13225SOL    HW141682   9.019 -20.705  13.663
13225SOL    HW241683  -1.941  12.311  13.586
13226SOL     OW41684   0.189   1.719   3.430
13226SOL    HW141685   0.244   1.712 -18.571
13226SOL    HW241686   0.233   1.663  -7.674
13227SOL     OW41687   8.493   2.479   3.020
13227SOL    HW141688   8.530   2.483  14.148
13227SOL    HW241689   8.557   2.527   2.966
13228SOL     OW41690   9.121   1.741   0.314
13228SOL    HW141691  20.251  12.758   0.294
13228SOL    HW241692   9.127  57.021   0.363
13229SOL     OW41693   9.031   8.773   6.517
13229SOL    HW141694  20.123   8.702   6.481
13229SOL    HW241695  -1.974 -13.293  -4.434
13230SOL     OW41696   7.718   9.546   7.079
13230SOL    HW141697   7.754  -1.557   7.141
13230SOL    HW241698  18.834  -1.449  -3.996
13231SOL     OW41699   9.390   2.727   5.521
13231SOL    HW141700   9.422  -8.236  49.631
13231SOL    HW241701   9.387   2.756  49.770
13232SOL     OW41702   6.645   2.304   7.467
13232SOL    HW141703   6.687   2.219   7.473
13232SOL    HW241704  17.731  13.388  -3.644
13233SOL     OW41705   6.132   2.100   2.010
13233SOL    HW141706   6.113   2.042   2.083
13233SOL    HW241707   6.195   2.051  12.996
13234SOL     OW41708   4.632   2.758  10.414
13234SOL    HW141709 -28.514   2.707  10.338
13234SOL    HW241710   4.698   2.818  10.380
13235SOL     OW41711   5.589   9.436   8.198
13235SOL    HW141712   5.585   9.526   8.231
13235SOL    HW241713   5.497   9.409   8.195
13236SOL     OW41714   6.663   7.479   1.734
13236SOL    HW141715   6.681   7.519   1.819
13236SOL    HW241716  -4.308   7.413   1.723
13237SOL     OW41717   4.497   0.014   0.731
13237SOL    HW141718   4.447  22.084   0.812
13237SOL    HW241719   4.436  11.093   0.669
13238SOL     OW41720   2.566   4.699   0.315
13238SOL    HW141721   2.632   4.697   0.246
13238SOL    HW241722   2.595   4.769  11.413
13239SOL     OW41723   3.647   0.131   8.719
13239SOL    HW141724  25.637   0.163   8.735
13239SOL    HW241725  25.782   0.205  19.780
13240SOL     OW41726   9.308   2.165   2.090
13240SOL    HW141727  -1.826   2.156   2.106
13240SOL    HW241728   9.348   2.110   2.157
13241SOL     OW41729   4.753   9.517   1.008
13241SOL    HW141730   4.790  20.551   0.920
13241SOL    HW241731   4.687   9.586 -10.039
13242SOL     OW41732   4.192  11.216   6.978
13242SOL    HW141733   4.222  11.131  29.024
13242SOL    HW241734   4.212 -21.841  -4.132
13243SOL     OW41735   4.521   2.844   3.257
13243SOL    HW141736   4.571   2.903   3.313
13243SOL    HW241737   4.587   2.798   3.205
13244SOL     OW41738   8.890   4.441  10.202
13244SOL    HW141739   8.840   4.360  10.209
13244SOL    HW241740   8.882  15.507  10.111
13245SOL     OW41741   1.617   1.115   5.431
13245SOL    HW141742   1.655   1.199   5.407
13245SOL    HW241743   1.558   1.094  16.398
13246SOL     OW41744   1.544  11.294   5.871
13246SOL    HW141745  12.539 -10.703  -5.190
13246SOL    HW241746   1.563   0.214  27.866
13247SOL     OW41747   5.039   7.367  -0.541
13247SOL    HW141748  16.093   7.301  10.566
13247SOL    HW241749   4.970   7.331  -0.597
13248SOL     OW41750   2.206   6.557   7.929
13248SOL    HW141751   2.216   6.538   7.836
13248SOL    HW241752   2.257   6.489   7.974
13249SOL     OW41753  11.637   4.165   3.009
13249SOL    HW141754  11.702   4.224 -19.032
13249SOL    HW241755 -10.524   4.187  -7.985
13250SOL     OW41756   5.516   1.138   7.464
13250SOL    HW141757   5.424   1.148   7.488
13250SOL    HW241758   5.557  12.138   7.541
13251SOL     OW41759  -0.318  10.784  12.259
13251SOL    HW141760  -0.280  21.842  12.173
13251SOL    HW241761  10.650 -22.272 -31.891
13252SOL     OW41762   7.799   0.022   6.770
13252SOL    HW141763   7.877  -0.026  17.837
13252SOL    HW241764  -3.241   0.017  -4.365
13253SOL     OW41765   3.189   4.634   9.022
13253SOL    HW141766   3.280   4.651  -2.043
13253SOL    HW241767   3.137   4.686   8.961
13254SOL     OW41768   7.922   8.773   1.294
13254SOL    HW141769   7.999   8.794  12.386
13254SOL    HW241770   7.935   8.822   1.213
13255SOL     OW41771   2.029  10.634   1.752
13255SOL    HW141772  24.174  10.619  12.724
13255SOL    HW241773   2.001  10.725   1.738
13256SOL     OW41774   6.757   1.718   4.924
13256SOL    HW141775  -4.296   1.625  15.944
13256SOL    HW241776   6.777   1.719   5.018
13257SOL     OW41777   3.919   4.507   3.552
13257SOL    HW141778  -7.093   4.464  47.791
13257SOL    HW241779   3.833   4.544  14.612
13258SOL     OW41780   5.400   8.304   7.070
13258SOL    HW141781   5.404  30.297  -3.926
13258SOL    HW241782  16.346  -2.718 -15.018
13259SOL     OW41783   6.028   0.901   2.887
13259SOL    HW141784   5.947  11.894  -8.133
13259SOL    HW241785   6.019 -10.112  13.835
13260SOL     OW41786  -0.190   6.308   0.379
13260SOL    HW141787  33.021   6.322   0.402
13260SOL    HW241788  -0.211   6.380   0.320
13261SOL     OW41789   2.985   6.111  -0.195
13261SOL    HW141790   2.986   6.147  -0.106
13261SOL    HW241791   2.978   6.017  10.857
13262SOL     OW41792   1.796   5.476   1.279
13262SOL    HW141793 -20.374  -5.588  12.336
13262SOL    HW241794   1.810  16.489   1.188
13263SOL     OW41795   0.654   7.611   3.035
13263SOL    HW141796   0.735  18.656 -19.096
13263SOL    HW241797   0.596   7.676  -8.044
13264SOL     OW41798   6.023   7.205   9.694
13264SOL    HW141799   6.074   7.286   9.685
13264SOL    HW241800   6.089  18.177  20.749
13265SOL     OW41801   2.817   4.114   4.988
13265SOL    HW141802   2.835  26.274  -6.003
13265SOL    HW241803   2.763   4.142   4.914
13266SOL     OW41804   7.363   6.855   0.745
13266SOL    HW141805   7.346   6.795  11.712
13266SOL    HW241806   7.358   6.942   0.707
13267SOL     OW41807   4.196   2.364   6.889
13267SOL    HW141808   4.178   2.386   6.798
13267SOL    HW241809  -6.763   2.412   6.910
13268SOL     OW41810   9.753   1.174   8.586
13268SOL    HW141811   9.677  -9.915   8.556
13268SOL    HW241812   9.719   1.260  -2.430
13269SOL     OW41813   0.883   7.010   0.260
13269SOL    HW141814  22.936   7.046   0.175
13269SOL    HW241815   0.974   7.037   0.270
13270SOL     OW41816   4.165   1.650   2.236
13270SOL    HW141817 -17.989   1.600   2.266
13270SOL    HW241818   4.176   1.625   2.144
13271SOL     OW41819   7.006   2.377   5.579
13271SOL    HW141820   6.924  35.534   5.611
13271SOL    HW241821  -3.990   2.448   5.531
13272SOL     OW41822   3.698   0.892   6.170
13272SOL    HW141823   3.747 -10.212  -4.920
13272SOL    HW241824  25.696   0.847   6.193
13273SOL     OW41825  10.655   1.145   5.480
13273SOL    HW141826  10.711   1.121   5.554
13273SOL    HW241827  10.597   1.213   5.515
13274SOL     OW41828   9.401   3.071   2.148
13274SOL    HW141829  -1.683   3.153  24.209
13274SOL    HW241830   9.426   3.037   2.063
13275SOL     OW41831   1.127   1.182   7.567
13275SOL    HW141832  12.078   1.148   7.555
13275SOL    HW241833   1.155  -9.892   7.651
13276SOL     OW41834   0.261   2.773   8.738
13276SOL    HW141835  33.285  24.843 -13.325
13276SOL    HW241836   0.270 -19.307   8.643
13277SOL     OW41837   5.850   9.182   6.939
13277SOL    HW141838  -5.165  -1.768   6.964
13277SOL    HW241839   5.931   9.131   6.952
13278SOL     OW41840   5.080  10.999   5.367
13278SOL    HW141841   5.154  10.991   5.427
13278SOL    HW241842   5.062  10.910  27.418
13279SOL     OW41843   1.289   5.647   0.888
13279SOL    HW141844  12.284  16.750   0.832
13279SOL    HW241845   1.309   5.695   0.969
13280SOL     OW41846   4.178   3.071   7.434
13280SOL    HW141847   4.173   3.100   7.526
13280SOL    HW241848 -17.808   3.063   7.417
13281SOL     OW41849  10.935   0.205   2.652
13281SOL    HW141850  11.014   0.167  -8.350
13281SOL    HW241851  10.865  11.183   2.677
13282SOL     OW41852   4.068  10.830   2.721
13282SOL    HW141853   3.988  10.877 -19.337
13282SOL    HW241854  -7.000 -11.322  -8.374
13283SOL     OW41855   1.903   9.213   2.212
13283SOL    HW141856  24.000   9.232   2.120
13283SOL    HW241857   1.963   9.141   2.233
13284SOL     OW41858   4.969   0.215   7.614
13284SOL    HW141859   5.057   0.181   7.633
13284SOL    HW241860   4.917   0.137  18.634
13285SOL     OW41861   1.667   0.415   6.767
13285SOL    HW141862   1.618   0.392   6.688
13285SOL    HW241863   1.690  22.586   6.754
13286SOL     OW41864   3.836   0.825   2.950
13286SOL    HW141865 -29.231  11.821   3.018
13286SOL    HW241866  14.822   0.888   2.998
13287SOL     OW41867   0.973   3.902  -0.170
13287SOL    HW141868   0.996   3.874  -0.258
13287SOL    HW241869   0.909   3.972  21.897
13288SOL     OW41870  10.593  -0.551   6.567
13288SOL    HW141871  -0.492 -11.506 -37.593
13288SOL    HW241872  10.657  32.576   6.637
13289SOL     OW41873   4.533   1.483   5.874
13289SOL    HW141874 -28.668  12.481   5.900
13289SOL    HW241875 -28.563   1.539  50.106
13290SOL     OW41876   7.000   2.544   1.379
13290SOL    HW141877   6.920   2.518   1.334
13290SOL    HW241878   7.033  13.659   1.329
13291SOL     OW41879   8.932   5.616   6.901
13291SOL    HW141880  -2.070   5.566   6.974
13291SOL    HW241881  -2.183   5.565   6.873
13292SOL     OW41882   3.183   0.345  12.682
13292SOL    HW141883   3.253   0.406   1.666
13292SOL    HW241884   3.195   0.271  -9.338
13293SOL     OW41885   9.628   7.863   6.572
13293SOL    HW141886   9.683   7.828  17.682
13293SOL    HW241887  -1.497 -14.201   6.614
13294SOL     OW41888   9.562   4.865   9.666
13294SOL    HW141889   9.541   4.843   9.575
13294SOL    HW241890  -1.384   4.849   9.673
13295SOL     OW41891   3.411   7.576   3.347
13295SOL    HW141892 -18.618  -3.389  36.500
13295SOL    HW241893  -7.613 -14.501  25.332
13296SOL     OW41894   4.009   0.694  -0.175
13296SOL    HW141895   3.932   0.742  -0.207
13296SOL    HW241896   4.065   0.685  21.827
13297SOL     OW41897   8.781   7.300   4.327
13297SOL    HW141898 -13.337   7.244  -6.646
13297SOL    HW241899  -2.326   7.365   4.307
13298SOL     OW41900   6.734   3.863   5.803
13298SOL    HW141901   6.723  14.853   5.722
13298SOL    HW241902   6.647  -7.139   5.820
13299SOL     OW41903   8.218  -0.537   6.300
13299SOL    HW141904   8.128  10.480   6.277
13299SOL    HW241905   8.212  -0.504  28.469
13300SOL     OW41906   3.386   2.099   0.998
13300SOL    HW141907   3.421 -20.025   0.921
13300SOL    HW241908  -7.640  24.271  23.059
13301SOL     OW41909   9.965  10.525   5.376
13301SOL    HW141910   9.979  10.609   5.420
13301SOL    HW241911   9.904  10.479   5.433
13302SOL     OW41912   8.698   2.233   8.320
13302SOL    HW141913   8.792  24.330 -24.811
13302SOL    HW241914   8.654   2.302 -13.810
13303SOL     OW41915   8.358   5.037   1.845
13303SOL    HW141916   8.294  16.007   1.830
13303SOL    HW241917   8.383   5.066   1.757
13304SOL     OW41918  -0.421   6.604   2.331
13304SOL    HW141919  10.622   6.522  -8.660
13304SOL    HW241920  -0.513   6.630   2.333
13305SOL     OW41921   9.599   9.427   5.571
13305SOL    HW141922   9.680 -12.700  38.673
13305SOL    HW241923   9.584   9.477  16.530
13306SOL     OW41924  11.513   2.731   3.421
13306SOL    HW141925  11.524  13.682 -18.626
13306SOL    HW241926   0.471   2.722   3.325
13307SOL     OW41927   2.281   1.543   4.556
13307SOL    HW141928   2.218   1.474  -6.505
13307SOL    HW241929   2.366   1.503   4.540
13308SOL     OW41930   3.305   0.037  -0.440
13308SOL    HW141931   3.398   0.060  10.600
13308SOL    HW241932   3.304  -0.058  -0.448
13309SOL     OW41933   4.126   4.335  10.228
13309SOL    HW141934   4.046   4.386  21.257
13309SOL    HW241935  37.309  15.419  10.173
13310SOL     OW41936   2.136   2.843   5.433
13310SOL    HW141937   2.047   2.839   5.396
13310SOL    HW241938   2.187  13.824  16.416
13311SOL     OW41939   3.783   1.328   1.533
13311SOL    HW141940   3.695   1.347   1.566
13311SOL    HW241941   3.773   1.247   1.483
13312SOL     OW41942   0.427   0.582   3.256
13312SOL    HW141943   0.499   0.640   3.233
13312SOL    HW241944   0.459   0.534   3.332
13313SOL     OW41945   8.006   1.067   7.245
13313SOL    HW141946   8.058  -9.985  18.363
13313SOL    HW241947  41.044   1.110   7.276
13314SOL     OW41948   8.436   3.165   8.729
13314SOL    HW141949   8.428  14.189   8.823
13314SOL    HW241950   8.526   3.196  -2.322
13315SOL     OW41951   1.658   8.991   4.330
13315SOL    HW141952   1.651  -2.140   4.359
13315SOL    HW241953   1.628 -13.091  15.278
13316SOL     OW41954   1.913  10.315   6.117
13316SOL    HW141955   1.900  10.237   6.172
13316SOL    HW241956   1.983  10.290   6.056
13317SOL     OW41957   3.935   8.375   7.567
13317SOL    HW141958   3.966   8.341   7.483
13317SOL    HW241959   3.842  -2.645   7.553
13318SOL     OW41960   5.413   9.419  12.403
13318SOL    HW141961   5.491   9.473 -20.705
13318SOL    HW241962   5.390   9.428  12.310
13319SOL     OW41963   8.176   8.888  10.405
13319SOL    HW141964 -13.904  19.992  10.475
13319SOL    HW241965   8.138   8.809  -0.595
13320SOL     OW41966  -0.018   1.239   9.608
13320SOL    HW141967  10.948  12.239   9.561
13320SOL    HW241968  -0.040   1.332   9.614
13321SOL     OW41969   3.521   7.330   5.702
13321SOL    HW141970   3.563   7.247   5.724
13321SOL    HW241971  -7.453  18.436   5.724
13322SOL     OW41972   0.773   0.958   4.735
13322SOL    HW141973   0.779   0.940   4.641
13322SOL    HW241974   0.730   1.043  15.780
13323SOL     OW41975   2.569   9.621   4.209
13323SOL    HW141976   2.596   9.712   4.202
13323SOL    HW241977   2.605   9.579   4.130
13324SOL     OW41978   8.584  10.693  10.485
13324SOL    HW141979   8.590  10.610  10.438
13324SOL    HW241980   8.493  10.720  10.474
13325SOL     OW41981   9.215   3.262   9.167
13325SOL    HW141982  31.350   3.202   9.118
13325SOL    HW241983   9.172  14.247   9.232
13326SOL     OW41984   3.734   2.587  -0.352
13326SOL    HW141985   3.828  13.611  -0.358
13326SOL    HW241986   3.713  24.714  10.607
13327SOL     OW41987   8.075   6.763   9.711
13327SOL    HW141988  -3.049   6.805   9.697
13327SOL    HW241989  -2.935  -4.302 -12.455
13328SOL     OW41990   3.890   2.628   7.450
13328SOL    HW141991   3.795   2.618   7.455
13328SOL    HW241992  14.948   2.712   7.492
13329SOL     OW41993  10.954   3.225   6.874
13329SOL    HW141994  11.048  -7.813   6.856
13329SOL    HW241995  -0.128   3.239  17.829
13330SOL     OW41996   8.871   7.474   1.725
13330SOL    HW141997   8.790   7.424   1.739
13330SOL    HW241998   8.902   7.495 -20.266
13331SOL     OW41999   7.929   5.296   0.647
13331SOL    HW142000   7.881   5.278   0.728
13331SOL    HW242001   7.889  16.278 -10.458
13332SOL     OW42002   4.188   7.685   3.642
13332SOL    HW142003   4.174   7.613  -7.459
13332SOL    HW242004   4.099   7.711   3.669
13333SOL     OW42005   4.092   7.047   8.918
13333SOL    HW142006   4.143   7.038   8.837
13333SOL    HW242007  15.122   6.957   8.950
13334SOL     OW42008   9.120   1.156   0.147
13334SOL    HW142009   9.201   1.145   0.197
13334SOL    HW242010   9.116   1.249   0.127
13335SOL     OW42011  10.051   2.117   5.704
13335SOL    HW142012  10.062   2.102   5.610
13335SOL    HW242013  10.106   2.193   5.723
13336SOL     OW42014   4.937  10.241   0.467
13336SOL    HW142015   4.854  -0.782   0.423
13336SOL    HW242016 -17.097  10.325   0.467
13337SOL     OW42017   6.203   5.483   5.005
13337SOL    HW142018   6.113   5.450   4.999
13337SOL    HW242019  17.236  -5.463   4.984
13338SOL     OW42020   9.300   7.929   3.983
13338SOL    HW142021  20.435   7.916  -7.054
13338SOL    HW242022   9.288   8.000  48.079
13339SOL     OW42023   6.801   1.946   5.535
13339SOL    HW142024   6.854  13.058   5.501
13339SOL    HW242025   6.813   1.951   5.630
13340SOL     OW42026   5.575   7.558  10.380
13340SOL    HW142027   5.562   7.484  10.438
13340SOL    HW242028 -16.441   7.614  21.466
13341SOL     OW42029   7.750   0.176  10.264
13341SOL    HW142030   7.707   0.230  -0.841
13341SOL    HW242031 -14.401   0.140  -0.723
13342SOL     OW42032   8.252  10.144   7.969
13342SOL    HW142033   8.202  -0.936  18.938
13342SOL    HW242034   8.186  10.182  19.066
13343SOL     OW42035   6.740   5.656   5.257
13343SOL    HW142036   6.763   5.748   5.244
13343SOL    HW242037   6.824   5.610   5.258
13344SOL     OW42038   0.848   1.555   9.239
13344SOL    HW142039   0.896   1.610 -12.903
13344SOL    HW242040   0.819   1.480   9.187
13345SOL     OW42041   3.321   8.354   7.841
13345SOL    HW142042   3.377   8.335   7.916
13345SOL    HW242043   3.377   8.402   7.780
13346SOL     OW42044   1.564   4.904   1.764
13346SOL    HW142045   1.616 -28.175   1.834
13346SOL    HW242046   1.502   4.973   1.739
13347SOL     OW42047  10.306   3.155   2.064
13347SOL    HW142048  21.290   3.182   1.991
13347SOL    HW242049  10.382   3.113  -9.017
13348SOL     OW42050   2.016   0.350   5.074
13348SOL    HW142051   2.088   0.338   5.013
13348SOL    HW242052  24.091  22.524   5.088
13349SOL     OW42053   8.182   5.801   6.419
13349SOL    HW142054   8.224   5.739  28.558
13349SOL    HW242055  -2.827   5.774   6.332
13350SOL     OW42056   9.674   5.996  -0.422
13350SOL    HW142057   9.732   6.001  10.541
13350SOL    HW242058   9.671   6.085  -0.389
13351SOL     OW42059   8.829   6.983   6.910
13351SOL    HW142060   8.876   6.913   6.954
13351SOL    HW242061   8.755   6.940   6.868
13352SOL     OW42062   7.701   8.563   3.575
13352SOL    HW142063   7.641   8.547  36.621
13352SOL    HW242064  18.758   8.477   3.611
13353SOL     OW42065  -3.189  -0.226   7.012
13353SOL    HW142066  51.923  -0.190  -4.005
13353SOL    HW242067   7.887  10.785   7.096
13354SOL     OW42068   6.004   0.773   3.276
13354SOL    HW142069 -16.020   0.712   3.225
13354SOL    HW242070 -27.103   0.745   3.367
13355SOL     OW42071  -0.319   6.538   1.577
13355SOL    HW142072  -0.406  28.643   1.606
13355SOL    HW242073  21.744   6.477   1.505
13356SOL     OW42074   8.465   6.171   1.978
13356SOL    HW142075  30.561 -15.840  35.032
13356SOL    HW242076   8.372   6.181   2.000
13357SOL     OW42077  10.092   8.102   2.880
13357SOL    HW142078  10.154   8.175  -8.158
13357SOL    HW242079  10.136  -3.005   2.828
13358SOL     OW42080   5.938  11.274   6.453
13358SOL    HW142081   6.010 -10.743  -4.594
13358SOL    HW242082   5.980  22.228   6.462
13359SOL     OW42083  11.334   3.544   9.931
13359SOL    HW142084  22.426   3.618   9.961
13359SOL    HW242085 -10.700  -7.526   9.851
13360SOL     OW42086   8.260   6.894  -0.565
13360SOL    HW142087  -2.869   6.860  10.484
13360SOL    HW242088   8.267   6.962  10.542
13361SOL     OW42089   7.139  10.089   0.699
13361SOL    HW142090   7.071  10.072  22.843
13361SOL    HW242091   7.103 -12.023   0.617
13362SOL     OW42092  10.742   3.810   8.143
13362SOL    HW142093  10.653   3.790  19.208
13362SOL    HW242094  10.737   3.899  41.225
13363SOL     OW42095   2.610   6.005   9.767
13363SOL    HW142096   2.529   6.055   9.762
13363SOL    HW242097   2.660   6.047   9.837
13364SOL     OW42098   8.828  10.446   7.346
13364SOL    HW142099   8.820  10.409   7.433
13364SOL    HW242100   8.826  -0.669  -3.753
13365SOL     OW42101  -0.386   3.912   4.541
13365SOL    HW142102  -0.339   3.891 -17.457
13365SOL    HW242103  10.617   3.999 -39.601
13366SOL     OW42104   3.234   9.312   9.009
13366SOL    HW142105   3.282  -1.804  20.082
13366SOL    HW242106   3.214   9.363   9.088
13367SOL     OW42107   3.830   5.483   9.002
13367SOL    HW142108  -7.179   5.490   9.093
13367SOL    HW242109   3.735   5.492   9.008
13368SOL     OW42110   7.855   5.566   0.659
13368SOL    HW142111   7.925   5.599   0.715
13368SOL    HW242112   7.869   5.471   0.657
13369SOL     OW42113   0.200   7.815   8.219
13369SOL    HW142114  11.174   7.770   8.273
13369SOL    HW242115   0.182   7.785   8.130
13370SOL     OW42116   9.358   0.820   0.093
13370SOL    HW142117   9.334 -10.297  22.224
13370SOL    HW242118   9.354   0.790   0.002
13371SOL     OW42119   4.465   9.394   1.159
13371SOL    HW142120  -6.509   9.404   1.089
13371SOL    HW242121  -6.659   9.404   1.114
13372SOL     OW42122   3.627   9.568   7.422
13372SOL    HW142123  25.660  -1.387 -25.689
13372SOL    HW242124  47.868  20.630   7.381
13373SOL     OW42125   5.934   3.492   7.656
13373SOL    HW142126   5.977   3.418   7.698
13373SOL    HW242127   5.915   3.552   7.728
13374SOL     OW42128  10.754   6.232   8.968
13374SOL    HW142129  10.714   6.307 -24.107
13374SOL    HW242130  10.740   6.159   9.029
13375SOL     OW42131   1.586   9.036   7.202
13375SOL    HW142132  12.635   9.092   7.279
13375SOL    HW242133   1.670   8.990   7.195
13376SOL     OW42134   4.310   2.895   2.677
13376SOL    HW142135  15.388   2.825   2.623
13376SOL    HW242136   4.258  13.987   2.616
13377SOL     OW42137   7.169  -0.757   8.191
13377SOL    HW142138   7.101  10.316   8.249
13377SOL    HW242139   7.210  21.251   8.241
13378SOL     OW42140   0.884  12.030   3.533
13378SOL    HW142141   0.789 -32.139   3.539
13378SOL    HW242142   0.896  12.102   3.471
13379SOL     OW42143   1.307   3.117   3.556
13379SOL    HW142144  23.476 -18.954   3.590
13379SOL    HW242145   1.314   3.143   3.464
13380SOL     OW42146   6.477   9.588   1.849
13380SOL    HW142147   6.450  20.659   1.762
13380SOL    HW242148   6.499   9.668   1.897
13381SOL     OW42149   5.788   5.567   6.693
13381SOL    HW142150   5.876  -5.448   6.664
13381SOL    HW242151  16.816   5.477  17.703
13382SOL     OW42152   0.626  11.313   2.706
13382SOL    HW142153   0.544   0.310   2.740
13382SOL    HW242154   0.603  11.283  -8.422
13383SOL     OW42155  11.327   2.552  10.315
13383SOL    HW142156   0.357   2.583  10.373
13383SOL    HW242157  11.345 -30.524  10.231
13384SOL     OW42158   9.849   0.968   8.156
13384SOL    HW142159   9.860   0.906   8.084
13384SOL    HW242160   9.927  23.034   8.210
13385SOL     OW42161   1.484   2.922   8.953
13385SOL    HW142162  23.487  -8.138  19.938
13385SOL    HW242163  12.491   2.916   9.043
13386SOL     OW42164   9.566   3.626   2.485
13386SOL    HW142165   9.568   3.704   2.540
13386SOL    HW242166   9.579  25.739   2.396
13387SOL     OW42167   6.876   2.526   7.513
13387SOL    HW142168   6.817   2.475   7.569
13387SOL    HW242169   6.932   2.573  29.653
13388SOL     OW42170  10.877   4.670   2.092
13388SOL    HW142171  -0.183   4.704   2.179
13388SOL    HW242172  10.932   4.593   2.109
13389SOL     OW42173   3.608   9.243   5.003
13389SOL    HW142174   3.628   9.318  16.099
13389SOL    HW242175   3.693   9.204   4.984
13390SOL     OW42176   0.654   2.664   1.723
13390SOL    HW142177   0.575  13.667  -9.276
13390SOL    HW242178   0.634  -8.374   1.629
13391SOL     OW42179   7.687   4.515   5.587
13391SOL    HW142180   7.767   4.482   5.547
13391SOL    HW242181   7.643   4.564  16.557
13392SOL     OW42182   5.116   9.086   9.813
13392SOL    HW142183   5.193   9.052   9.766
13392SOL    HW242184  16.085  20.065   9.790
13393SOL     OW42185   6.121  10.092   9.055
13393SOL    HW142186   6.116  10.052   8.968
13393SOL    HW242187   6.035  10.130   9.069
13394SOL     OW42188   6.381   9.604   2.547
13394SOL    HW142189   6.301   9.586 -19.482
13394SOL    HW242190   6.428   9.521 -19.533
13395SOL     OW42191   1.943   3.439   5.503
13395SOL    HW142192  -9.075 -18.722   5.547
13395SOL    HW242193   1.861  -7.619   5.456
13396SOL     OW42194   8.498   1.520   9.354
13396SOL    HW142195  30.601   1.529   9.446
13396SOL    HW242196  30.610   1.435   9.328
13397SOL     OW42197  10.504   8.698  10.446
13397SOL    HW142198  10.561 -13.424  10.382
13397SOL    HW242199  10.528  41.909  -0.599
13398SOL     OW42200   8.368   3.872   5.603
13398SOL    HW142201   8.365   3.967   5.595
13398SOL    HW242202  19.437   3.842 -38.641
13399SOL     OW42203   7.550  10.253   8.146
13399SOL    HW142204   7.530  10.189  19.253
13399SOL    HW242205   7.541  10.338  19.228
13400SOL     OW42206   8.231  11.972   0.100
13400SOL    HW142207   8.212   1.022   0.127
13400SOL    HW242208   8.218   0.880   0.179
13401SOL     OW42209  10.469   9.270   2.867
13401SOL    HW142210  10.421   9.338   2.913
13401SOL    HW242211  10.561   9.288   2.886
13402SOL     OW42212   2.793   6.861   3.707
13402SOL    HW142213   2.763   6.777   3.740
13402SOL    HW242214   2.805   6.915   3.785
13403SOL     OW42215   6.575   0.032   5.526
13403SOL    HW142216  17.575  -0.031  27.545
13403SOL    HW242217  39.732   0.098   5.469
13404SOL     OW42218   8.812   5.938   8.589
13404SOL    HW142219 -13.184  16.957   8.631
13404SOL    HW242220   8.759   5.980  19.697
13405SOL     OW42221   0.561   5.003   7.046
13405SOL    HW142222   0.650  -6.069   7.056
13405SOL    HW242223   0.560  -5.990   6.963
13406SOL     OW42224  10.799   2.530   9.951
13406SOL    HW142225 -11.210   2.479   9.912
13406SOL    HW242226  10.801  -8.533  10.044
13407SOL     OW42227   3.512  10.004   5.745
13407SOL    HW142228   3.446   9.949   5.787
13407SOL    HW242229  -7.445   9.977  16.826
13408SOL     OW42230   9.498   9.890   9.883
13408SOL    HW142231   9.526   9.816  20.869
13408SOL    HW242232  20.590  -1.076   9.852
13409SOL     OW42233   4.501  10.471   6.945
13409SOL    HW142234  15.483 -22.652 -15.058
13409SOL    HW242235  -6.455  10.504  29.059
13410SOL     OW42236   5.425   9.713   8.537
13410SOL    HW142237   5.389  20.837   8.563
13410SOL    HW242238   5.352   9.669   8.492
13411SOL     OW42239   3.250   4.035   9.602
13411SOL    HW142240  14.329  -7.067  31.620
13411SOL    HW242241  14.355   4.045   9.672
13412SOL     OW42242   6.688   3.142   9.992
13412SOL    HW142243   6.698   3.209   9.925
13412SOL    HW242244   6.773   3.097   9.994
13413SOL     OW42245   3.539   8.484   0.986
13413SOL    HW142246  14.613 -24.562 -10.105
13413SOL    HW242247   3.583  -2.548   1.071
13414SOL     OW42248   4.163   2.440   6.295
13414SOL    HW142249   4.120   2.508  -4.797
13414SOL    HW242250   4.159  -8.678  -4.799
13415SOL     OW42251   5.230   0.202   8.574
13415SOL    HW142252   5.312   0.252   8.573
13415SOL    HW242253   5.241   0.137  30.584
13416SOL     OW42254   3.705   8.853   1.055
13416SOL    HW142255   3.631   8.890   1.103
13416SOL    HW242256   3.710   8.905   0.975
13417SOL     OW42257   3.809   6.755   2.891
13417SOL    HW142258   3.878   6.761 -19.254
13417SOL    HW242259   3.833   6.821   2.957
13418SOL     OW42260  11.424   6.586   6.530
13418SOL    HW142261  11.393   6.660   6.582
13418SOL    HW242262   0.474   6.609   6.507
13419SOL     OW42263   0.790   8.558   5.554
13419SOL    HW142264   0.783   8.595  27.545
13419SOL    HW242265   0.876   8.586  16.625
13420SOL     OW42266   3.130  -1.079   0.287
13420SOL    HW142267   3.197  -1.012  11.337
13420SOL    HW242268  47.310  20.933  11.391
13421SOL     OW42269   3.901   1.342   8.546
13421SOL    HW142270   3.981   1.293   8.561
13421SOL    HW242271   3.847   1.325   8.623
13422SOL     OW42272   2.458   1.824   7.311
13422SOL    HW142273   2.397   1.774  18.405
13422SOL    HW242274   2.425   1.914  18.353
13423SOL     OW42275   9.784   7.248   7.255
13423SOL    HW142276  31.863   7.342   7.272
13423SOL    HW242277   9.875   7.221   7.270
13424SOL     OW42278   0.147   3.856   2.135
13424SOL    HW142279  33.297   3.882   2.222
13424SOL    HW242280 -10.937  14.812  13.190
13425SOL     OW42281   2.982   0.501   9.466
13425SOL    HW142282 -19.093   0.502   9.562
13425SOL    HW242283   2.937  33.702   9.444
13426SOL     OW42284   7.806   1.702   7.425
13426SOL    HW142285   7.802   1.769 -14.586
13426SOL    HW242286   7.840   1.624   7.469
13427SOL     OW42287   5.525   1.036   5.254
13427SOL    HW142288  -5.607   1.024  27.309
13427SOL    HW242289   5.546   1.123   5.222
13428SOL     OW42290  10.021  10.300   4.184
13428SOL    HW142291  10.116  10.301  15.236
13428SOL    HW242292  21.047  10.350   4.103
13429SOL     OW42293   5.582   9.987   9.614
13429SOL    HW142294  16.582 -12.173  -1.393
13429SOL    HW242295  16.576  10.003   9.531
13430SOL     OW42296   0.704   4.294   2.056
13430SOL    HW142297   0.685  -6.669  -9.038
13430SOL    HW242298 -10.390 -28.812   2.134
13431SOL     OW42299  11.021   3.514   2.648
13431SOL    HW142300  10.989  14.486   2.588
13431SOL    HW242301  10.961   3.587   2.636
13432SOL     OW42302   7.500   2.247   0.138
13432SOL    HW142303  -3.531  -8.856   0.209
13432SOL    HW242304   7.533   2.329  22.254
13433SOL     OW42305   6.645  10.982   5.788
13433SOL    HW142306   6.589  -0.014  -5.317
13433SOL    HW242307  -4.347  10.916  -5.302
13434SOL     OW42308   1.412   0.783  11.596
13434SOL    HW142309  12.414  11.790 -21.441
13434SOL    HW242310   1.340   0.778   0.493
13435SOL     OW42311   0.686   6.205  -0.049
13435SOL    HW142312  33.754   6.131  -0.015
13435SOL    HW242313   0.767 -15.875  33.121
13436SOL     OW42314  11.448  10.949   3.225
13436SOL    HW142315 -10.718  10.925   3.258
13436SOL    HW242316  11.505  10.880   3.258
13437SOL     OW42317  10.478   4.507   1.212
13437SOL    HW142318 -33.603   4.550  23.255
13437SOL    HW242319  10.508   4.466   1.293
13438SOL     OW42320   9.996   7.435   8.408
13438SOL    HW142321   9.943  -3.620   8.330
13438SOL    HW242322  10.027   7.525   8.399
13439SOL     OW42323   2.503  10.826   0.110
13439SOL    HW142324 -19.602  10.916   0.088
13439SOL    HW242325  -8.609  10.772   0.079
13440SOL     OW42326  10.372   4.958   0.871
13440SOL    HW142327  10.397  27.054   0.780
13440SOL    HW242328  10.330   5.039   0.899
13441SOL     OW42329   0.348  11.412   1.904
13441SOL    HW142330  11.449  11.475   1.942
13441SOL    HW242331   0.286   0.426 -20.224
13442SOL     OW42332   0.570   2.082   5.056
13442SOL    HW142333  33.731   2.088   4.971
13442SOL    HW242334 -10.399 -20.021   5.116
13443SOL     OW42335   2.400   1.979   9.001
13443SOL    HW142336   2.355  13.012  -2.123
13443SOL    HW242337   2.356   2.052   9.046
13444SOL     OW42338  -0.962   6.303   6.859
13444SOL    HW142339  -0.992  17.389   6.781
13444SOL    HW242340  21.198 -26.772   6.884
13445SOL     OW42341   8.738   2.670   9.376
13445SOL    HW142342 -13.412   2.646   9.436
13445SOL    HW242343   8.728   2.610   9.302
13446SOL     OW42344  -0.399   0.969   6.813
13446SOL    HW142345  10.680   1.029  28.955
13446SOL    HW242346  -0.477   0.935   6.858
13447SOL     OW42347   4.654   8.540   7.837
13447SOL    HW142348   4.681  30.585   7.752
13447SOL    HW242349   4.575  -2.549   7.860
13448SOL     OW42350   6.916  -1.177   6.454
13448SOL    HW142351   6.987  20.889   6.516
13448SOL    HW242352   6.936  -1.235 -15.699
13449SOL     OW42353   4.505   5.540   1.294
13449SOL    HW142354   4.447   5.473  12.370
13449SOL    HW242355  -6.495   5.581  12.411
13450SOL     OW42356   9.405   6.475   8.177
13450SOL    HW142357   9.352   6.540 -24.895
13450SOL    HW242358   9.494   6.489   8.209
13451SOL     OW42359   5.885   0.911   2.038
13451SOL    HW142360  -5.167   0.839   2.100
13451SOL    HW242361  -5.237 -10.080   2.041
13452SOL     OW42362   8.540   9.395   3.453
13452SOL    HW142363   8.583   9.460  14.438
13452SOL    HW242364   8.609   9.363   3.511
13453SOL     OW42365  11.035  -0.251   4.158
13453SOL    HW142366  11.000  10.725   4.221
13453SOL    HW242367  11.041  -0.299  -6.964
13454SOL     OW42368   0.047   7.527   0.935
13454SOL    HW142369   0.033   7.508  22.921
13454SOL    HW242370   0.110   7.460   0.964
13455SOL     OW42371   1.310   3.576   0.644
13455SOL    HW142372  -9.708 -18.585   0.599
13455SOL    HW242373   1.394   3.609   0.676
13456SOL     OW42374   9.774   8.895   6.399
13456SOL    HW142375 -12.232 -13.122 -26.715
13456SOL    HW242376  -1.228   8.812  28.508
13457SOL     OW42377   6.463   7.245   1.355
13457SOL    HW142378   6.502   7.190 -20.656
13457SOL    HW242379   6.422   7.317   1.404
13458SOL     OW42380   7.241   3.295   7.493
13458SOL    HW142381   7.158 -29.789   7.528
13458SOL    HW242382  -3.759   3.370   7.447
13459SOL     OW42383   0.521   7.374   2.468
13459SOL    HW142384   0.604   7.339   2.435
13459SOL    HW242385   0.546   7.454   2.514
13460SOL     OW42386   2.691  10.499  10.770
13460SOL    HW142387  13.729  10.592  10.790
13460SOL    HW242388   2.765  10.489  10.710
13461SOL     OW42389   4.451   4.989   4.354
13461SOL    HW142390   4.374 -17.057 -17.679
13461SOL    HW242391   4.524   5.038   4.391
13462SOL     OW42392   9.197   8.460  10.622
13462SOL    HW142393  20.279   8.405  10.556
13462SOL    HW242394   9.240 -24.683  10.704
13463SOL     OW42395   0.759   4.896   3.368
13463SOL    HW142396   0.794   4.930   3.450
13463SOL    HW242397   0.833   4.899   3.307
13464SOL     OW42398   0.913   9.493  11.796
13464SOL    HW142399   0.885   9.441 -10.359
13464SOL    HW242400   0.920   9.429  11.867
13465SOL     OW42401   5.351   2.261   0.318
13465SOL    HW142402  -5.628   2.333   0.305
13465SOL    HW242403 -27.854   2.302   0.323
13466SOL     OW42404  10.900   6.169   6.275
13466SOL    HW142405  10.959   6.195   6.204
13466SOL    HW242406  10.812  17.222  17.279
13467SOL     OW42407  12.786   2.949   7.389
13467SOL    HW142408   1.688   3.017  18.395
13467SOL    HW242409  -9.313  -8.094  29.562
13468SOL     OW42410  12.275   7.320   0.856
13468SOL    HW142411 -20.849  18.322   0.944
13468SOL    HW242412  12.254   7.247   0.797
13469SOL     OW42413  11.445   6.912   8.490
13469SOL    HW142414  11.405   6.895  -2.464
13469SOL    HW242415   0.343 -26.242   8.427
13470SOL     OW42416   8.308   3.863   7.760
13470SOL    HW142417   8.262   3.874   7.844
13470SOL    HW242418  19.348   3.769   7.745
13471SOL     OW42419   9.488   2.202   7.972
13471SOL    HW142420   9.510   2.238  18.926
13471SOL    HW242421   9.401   2.165   7.961
13472SOL     OW42422   1.305   3.387   5.592
13472SOL    HW142423   1.219  25.509   5.584
13472SOL    HW242424   1.284   3.301   5.629
13473SOL     OW42425   5.167   1.199   8.571
13473SOL    HW142426   5.170   1.222   8.664
13473SOL    HW242427   5.086   1.237   8.539
13474SOL     OW42428   2.712   8.445  10.101
13474SOL    HW142429  13.796   8.360 -23.015
13474SOL    HW242430  13.665  41.543  43.182
13475SOL     OW42431   5.685   5.895   4.456
13475SOL    HW142432   5.673   5.970   4.515
13475SOL    HW242433 -16.308 -16.169   4.416
13476SOL     OW42434   1.943   8.641  10.166
13476SOL    HW142435  -9.127   8.665  10.079
13476SOL    HW242436   1.983   8.554  10.155
13477SOL     OW42437   2.222   9.289   4.296
13477SOL    HW142438  13.173  -1.744  26.340
13477SOL    HW242439   2.246   9.378   4.320
13478SOL     OW42440   5.270   0.551   7.529
13478SOL    HW142441   5.298  22.551   7.484
13478SOL    HW242442  16.389  11.644   7.536
13479SOL     OW42443   2.579   3.384   0.694
13479SOL    HW142444   2.508   3.448  11.736
13479SOL    HW242445   2.586   3.353  11.824
13480SOL     OW42446   3.452   0.267   4.035
13480SOL    HW142447   3.411  11.273  14.995
13480SOL    HW242448   3.529  11.251   4.048
13481SOL     OW42449   7.993   9.804   4.162
13481SOL    HW142450   7.920   9.750  -6.907
13481SOL    HW242451   8.066   9.743   4.172
13482SOL     OW42452  10.013   1.348   0.192
13482SOL    HW142453  10.082   1.294   0.153
13482SOL    HW242454   9.944   1.286   0.214
13483SOL     OW42455  10.634   4.270   8.620
13483SOL    HW142456 -11.522   4.217   8.640
13483SOL    HW242457  10.641  15.308   8.524
13484SOL     OW42458   6.087   6.541   0.966
13484SOL    HW142459   6.139   6.600   1.020
13484SOL    HW242460   6.119   6.555   0.877
13485SOL     OW42461   8.889   4.318   8.990
13485SOL    HW142462   8.937   4.401   8.986
13485SOL    HW242463 -13.167   4.281 -24.043
13486SOL     OW42464   5.237   1.449   7.016
13486SOL    HW142465   5.298   1.523  29.088
13486SOL    HW242466   5.273   1.383   6.957
13487SOL     OW42467   8.085   7.075   0.706
13487SOL    HW142468   8.165   7.062  11.796
13487SOL    HW242469   8.066  -4.050 -10.372
13488SOL     OW42470   7.624   8.795  11.010
13488SOL    HW142471   7.673  19.816   0.051
13488SOL    HW242472  18.726   8.844  10.955
13489SOL     OW42473   3.289   5.832   4.402
13489SOL    HW142474   3.273   5.776  15.517
13489SOL    HW242475  14.391   5.898   4.434
13490SOL     OW42476   7.776   6.038   9.299
13490SOL    HW142477   7.733   5.998  31.454
13490SOL    HW242478  18.743   6.060   9.240
13491SOL     OW42479   8.467   2.129   1.901
13491SOL    HW142480   8.482  13.263   1.908
13491SOL    HW242481   8.536   2.098   1.842
13492SOL     OW42482   5.181   0.602   2.211
13492SOL    HW142483   5.246   0.538   2.183
13492SOL    HW242484  -5.861   0.593  -8.733
13493SOL     OW42485  10.784  -0.671   5.504
13493SOL    HW142486  10.710  21.441   5.556
13493SOL    HW242487  10.779  -0.622   5.422
13494SOL     OW42488  10.617   5.690   0.066
13494SOL    HW142489  -0.496  27.829   0.078
13494SOL    HW242490  10.629  27.764  11.010
13495SOL     OW42491  10.822   1.280   1.952
13495SOL    HW142492  10.777   1.361   1.926
13495SOL    HW242493  10.914   1.305   1.962
13496SOL     OW42494   4.810  -0.729  10.607
13496SOL    HW142495   4.830  -0.791  -0.362
13496SOL    HW242496   4.740  21.308  10.557
13497SOL     OW42497   2.468   1.636   0.574
13497SOL    HW142498  13.601   1.613   0.581
13497SOL    HW242499   2.430   1.607   0.657
13498SOL     OW42500   0.613  11.384   6.230
13498SOL    HW142501   0.640  11.307 -26.839
13498SOL    HW242502   0.606 -21.665   6.295
13499SOL     OW42503   9.291   2.870   6.230
13499SOL    HW142504   9.260  -8.114   6.302
13499SOL    HW242505   9.314   2.787   6.272
13500SOL     OW42506   6.478   0.197   7.816
13500SOL    HW142507 -15.670   0.138  -3.194
13500SOL    HW242508   6.485  11.303   7.884
13501SOL     OW42509   8.802   8.741   7.803
13501SOL    HW142510   8.884   8.693   7.798
13501SOL    HW242511  30.880   8.780  -3.149
13502SOL     OW42512   1.032   2.521  -1.147
13502SOL    HW142513   1.021   2.426  -1.145
13502SOL    HW242514   0.997 -19.528  21.016
13503SOL     OW42515   3.405   3.772   5.670
13503SOL    HW142516   3.350   3.742   5.597
13503SOL    HW242517 -18.684  -7.336  -5.303
13504SOL     OW42518   1.084   0.905   4.158
13504SOL    HW142519   1.146   0.887 -17.991
13504SOL    HW242520   1.102   0.996   4.184
13505SOL     OW42521   7.593   8.295   7.311
13505SOL    HW142522   7.547  19.266  18.302
13505SOL    HW242523   7.676   8.305   7.266
13506SOL     OW42524  -0.377   2.320   7.279
13506SOL    HW142525  21.734   2.407  18.296
13506SOL    HW242526  -0.302   2.277   7.321
13507SOL     OW42527   6.034   1.822   0.549
13507SOL    HW142528  17.138   1.889   0.573
13507SOL    HW242529   6.045  12.850   0.455
13508SOL     OW42530   1.255   6.116  10.981
13508SOL    HW142531  -9.824   6.136  11.066
13508SOL    HW242532   1.301   6.197  10.957
13509SOL     OW42533   2.581   2.622   3.467
13509SOL    HW142534   2.619   2.553   3.522
13509SOL    HW242535   2.654   2.680   3.446
13510SOL     OW42536  10.420   2.820   3.760
13510SOL    HW142537  10.401  35.876   3.830
13510SOL    HW242538  10.383   2.779   3.681
13511SOL     OW42539   2.985   3.024  10.958
13511SOL    HW142540  14.022  -7.956  10.883
13511SOL    HW242541  -8.103   3.070 -11.052
13512SOL     OW42542   7.739   8.013  -0.514
13512SOL    HW142543   7.649   7.998  10.556
13512SOL    HW242544   7.793   7.988  -0.439
13513SOL     OW42545  10.430   9.945   6.753
13513SOL    HW142546  -0.572  10.000   6.823
13513SOL    HW242547  10.474   9.861  17.803
13514SOL     OW42548   0.522   8.631   9.795
13514SOL    HW142549   0.467  19.603   9.834
13514SOL    HW242550   0.611   8.606   9.820
13515SOL     OW42551   6.172   2.948   3.620
13515SOL    HW142552   6.133  13.930   3.554
13515SOL    HW242553  28.266  13.930   3.695
13516SOL     OW42554   7.249   4.713   9.401
13516SOL    HW142555   7.166   4.760   9.408
13516SOL    HW242556   7.302   4.767 -12.736
13517SOL     OW42557   0.421   0.696   3.769
13517SOL    HW142558   0.396  11.761  14.898
13517SOL    HW242559   0.340  22.787   3.718
13518SOL     OW42560   6.399   4.700   2.621
13518SOL    HW142561   6.380 -17.303 -19.513
13518SOL    HW242562   6.349   4.715   2.701
13519SOL     OW42563   7.787   6.136   3.379
13519SOL    HW142564   7.709   6.183   3.349
13519SOL    HW242565   7.753  -4.973  14.475
13520SOL     OW42566   2.923   7.971   7.507
13520SOL    HW142567  14.033 -14.129   7.446
13520SOL    HW242568  13.902   8.025   7.457
13521SOL     OW42569   5.516   3.537   6.286
13521SOL    HW142570  16.544  14.627  17.244
13521SOL    HW242571   5.481   3.594   6.354
13522SOL     OW42572   9.510   8.499   2.203
13522SOL    HW142573  20.624   8.441   2.216
13522SOL    HW242574  20.556   8.525   2.111
13523SOL     OW42575   4.244   4.372   6.369
13523SOL    HW142576  -6.851   4.416   6.305
13523SOL    HW242577   4.316   4.433   6.385
13524SOL     OW42578   4.185   0.980   2.071
13524SOL    HW142579   4.225   0.922   2.007
13524SOL    HW242580   4.099   1.001   2.035
13525SOL     OW42581   5.188   5.797   0.688
13525SOL    HW142582   5.185   5.746   0.607
13525SOL    HW242583   5.096   5.818   0.707
13526SOL     OW42584   1.119   3.652   2.042
13526SOL    HW142585  12.152   3.729   1.986
13526SOL    HW242586 -10.002   3.651  24.172
13527SOL     OW42587   9.184   0.422   0.810
13527SOL    HW142588  -1.919   0.488   0.783
13527SOL    HW242589   9.189   0.431   0.905
13528SOL     OW42590   9.665   7.226   5.177
13528SOL    HW142591   9.678 -14.937   5.133
13528SOL    HW242592   9.749   7.271   5.166
13529SOL     OW42593   5.997   9.099   2.606
13529SOL    HW142594   5.918  20.173   2.647
13529SOL    HW242595   6.039   9.047  -8.364
13530SOL     OW42596   9.079   3.204   7.408
13530SOL    HW142597   9.036  14.307   7.351
13530SOL    HW242598   9.048  25.307   7.496
13531SOL     OW42599  12.031   4.819   4.439
13531SOL    HW142600  12.081   4.767   4.377
13531SOL    HW242601 -10.139   4.805 -17.664
13532SOL     OW42602   0.394   9.900   6.720
13532SOL    HW142603   0.482  -1.114   6.744
13532SOL    HW242604   0.343   9.908   6.801
13533SOL     OW42605   6.078   3.502  10.625
13533SOL    HW142606  17.175   3.570  10.590
13533SOL    HW242607   6.050  14.491  -0.490
13534SOL     OW42608   7.882  10.685   4.093
13534SOL    HW142609   7.793  -0.357   4.059
13534SOL    HW242610  18.965  10.753   4.041
13535SOL     OW42611   8.318   0.851   5.153
13535SOL    HW142612   8.265   0.876  27.308
13535SOL    HW242613   8.286   0.907   5.082
13536SOL     OW42614   5.528   3.259   7.369
13536SOL    HW142615  -5.475  14.253   7.293
13536SOL    HW242616   5.453   3.307  29.414
13537SOL     OW42617   2.036   7.660  10.281
13537SOL    HW142618  12.990   7.656  10.324
13537SOL    HW242619   2.043   7.577  10.234
13538SOL     OW42620   9.676   4.857   4.787
13538SOL    HW142621   9.596 -39.339   4.826
13538SOL    HW242622   9.733  26.860   4.774
13539SOL     OW42623   8.495   2.011   7.265
13539SOL    HW142624   8.526  24.172   7.303
13539SOL    HW242625   8.421   2.037   7.209
13540SOL     OW42626   3.520   2.654  11.027
13540SOL    HW142627   3.510 -19.403 -10.959
13540SOL    HW242628  -7.441   2.598  11.025
13541SOL     OW42629   4.429   7.148   6.732
13541SOL    HW142630   4.373   7.225   6.732
13541SOL    HW242631  37.620   7.171   6.673
13542SOL     OW42632   3.996  10.953   1.882
13542SOL    HW142633   4.074  10.898   1.872
13542SOL    HW242634   3.974  10.980   1.792
13543SOL     OW42635   5.075  10.445   4.207
13543SOL    HW142636  16.041  10.451   4.146
13543SOL    HW242637   5.074  10.528   4.254
13544SOL     OW42638   0.448   5.920   0.658
13544SOL    HW142639   0.361   5.955   0.680
13544SOL    HW242640  22.531   5.836   0.704
13545SOL     OW42641   7.167   8.817   4.180
13545SOL    HW142642   7.188  30.849  15.139
13545SOL    HW242643   7.084   8.779  15.249
13546SOL     OW42644   0.822   4.031   2.552
13546SOL    HW142645  11.803  15.093  13.519
13546SOL    HW242646   0.818   4.107  13.649
13547SOL     OW42647   5.447   3.797   3.287
13547SOL    HW142648  27.565   3.884   3.282
13547SOL    HW242649  16.561   3.738   3.299
13548SOL     OW42650   4.649  -1.209   1.235
13548SOL    HW142651  -6.345  20.799  -9.759
13548SOL    HW242652  15.626  -1.175  12.339
13549SOL     OW42653   9.215   0.716   3.498
13549SOL    HW142654 -12.780  11.801 -18.586
13549SOL    HW242655   9.161   0.769   3.556
13550SOL     OW42656   5.712   8.031   4.732
13550SOL    HW142657   5.724  30.048   4.803
13550SOL    HW242658   5.690   7.977   4.656
13551SOL     OW42659   2.374   6.137   9.587
13551SOL    HW142660   2.295   6.150   9.640
13551SOL    HW242661  -8.700 -38.041   9.499
13552SOL     OW42662   9.106   5.630  10.633
13552SOL    HW142663   9.136   5.626  10.723
13552SOL    HW242664   9.017  27.672  10.635
13553SOL     OW42665   8.946   5.007   1.285
13553SOL    HW142666   9.012   4.948   1.321
13553SOL    HW242667   8.904   5.046   1.362
13554SOL     OW42668   2.180   3.219   2.313
13554SOL    HW142669   2.270 -18.883   2.336
13554SOL    HW242670  -8.913   3.174   2.378
13555SOL     OW42671   7.308   4.207   4.250
13555SOL    HW142672   7.363   4.225   4.174
13555SOL    HW242673   7.224  -6.791   4.229
13556SOL     OW42674   7.629   9.014  -1.112
13556SOL    HW142675   7.638   9.109  -1.107
13556SOL    HW242676   7.600   8.998  20.877
13557SOL     OW42677   9.169   7.182   7.041
13557SOL    HW142678   9.189  18.305   6.999
13557SOL    HW242679  -1.806   7.174   7.111
13558SOL     OW42680   8.905   6.512   5.121
13558SOL    HW142681   8.992   6.473 -27.986
13558SOL    HW242682   8.908   6.595  -5.871
13559SOL     OW42683   2.503   6.355   9.009
13559SOL    HW142684   2.565   6.360   8.937
13559SOL    HW242685   2.498   6.261   9.030
13560SOL     OW42686   2.284   1.239   6.580
13560SOL    HW142687  -8.816   1.288 -26.483
13560SOL    HW242688   2.239   1.156  -4.476
13561SOL     OW42689   5.983   9.861   6.463
13561SOL    HW142690   5.953   9.931   6.405
13561SOL    HW242691  -4.993   9.812  -4.629
13562SOL     OW42692   8.821   6.044   3.633
13562SOL    HW142693 -13.263   6.085   3.719
13562SOL    HW242694   8.747   6.080   3.584
13563SOL     OW42695   6.954  10.788   5.443
13563SOL    HW142696   6.877  10.735   5.421
13563SOL    HW242697   6.918  10.875  16.501
13564SOL     OW42698   3.801   8.454   6.658
13564SOL    HW142699   3.776   8.541   6.627
13564SOL    HW242700   3.821   8.405  -4.462
13565SOL     OW42701   7.344   4.967   3.349
13565SOL    HW142702  29.334  15.996  14.354
13565SOL    HW242703   7.389   4.887   3.323
13566SOL     OW42704   0.169   5.529  11.071
13566SOL    HW142705   0.099  -5.511  11.005
13566SOL    HW242706  11.217   5.437 -33.062
13567SOL     OW42707   7.253  10.456  -0.651
13567SOL    HW142708   7.284  10.442  -0.561
13567SOL    HW242709   7.322  10.510  21.388
13568SOL     OW42710   6.944  10.333   8.358
13568SOL    HW142711   6.868  10.367  30.390
13568SOL    HW242712   6.953  10.390   8.434
13569SOL     OW42713  10.400   9.936   5.711
13569SOL    HW142714  10.484   9.970  -5.298
13569SOL    HW242715  10.409   9.841   5.718
13570SOL     OW42716   8.856   2.171   9.177
13570SOL    HW142717   8.844  13.143   9.245
13570SOL    HW242718   8.767   2.203   9.161
13571SOL     OW42719   2.045   7.357   5.121
13571SOL    HW142720   2.049   7.397   5.034
13571SOL    HW242721   2.121   7.392  -5.872
13572SOL     OW42722   8.842  11.496   7.149
13572SOL    HW142723   8.830   0.391  29.297
13572SOL    HW242724   8.931  11.528  18.200
13573SOL     OW42725   1.827   9.271  12.248
13573SOL    HW142726   1.879   9.238 -20.798
13573SOL    HW242727   1.815   9.195  12.191
13574SOL     OW42728   1.516   4.094   9.345
13574SOL    HW142729   1.481   4.093  -1.606
13574SOL    HW242730   1.600 -28.980  -1.686
13575SOL     OW42731   5.323   7.802   2.363
13575SOL    HW142732   5.378   7.838   2.294
13575SOL    HW242733  -5.767  18.773  24.398
13576SOL     OW42734   2.359   7.747   2.599
13576SOL    HW142735   2.277   7.706  13.614
13576SOL    HW242736   2.424  -3.363   2.598
13577SOL     OW42737   7.651   2.833   7.416
13577SOL    HW142738   7.592   2.884   7.471
13577SOL    HW242739  18.776   2.875   7.426
13578SOL     OW42740  -0.284   3.425  10.777
13578SOL    HW142741  -0.309  -7.667 -22.418
13578SOL    HW242742  10.851   3.429  -0.267
13579SOL     OW42743   0.544   2.523   7.099
13579SOL    HW142744   0.629   2.510   7.141
13579SOL    HW242745  22.561 -19.549   7.172
13580SOL     OW42746   4.211   9.058   5.193
13580SOL    HW142747  -6.922   9.060   5.214
13580SOL    HW242748   4.228   8.967   5.167
13581SOL     OW42749   3.732   5.772   6.150
13581SOL    HW142750  -7.223   5.816   6.150
13581SOL    HW242751   3.748  16.730   6.101
13582SOL     OW42752   3.124   6.185   0.323
13582SOL    HW142753   3.169 -26.891   0.397
13582SOL    HW242754   3.032 -37.975   0.349
13583SOL     OW42755   8.724  11.118   8.755
13583SOL    HW142756   8.771   0.083  -2.201
13583SOL    HW242757   8.634  11.095  -2.261
13584SOL     OW42758   8.548   0.774   3.513
13584SOL    HW142759  -2.400   0.800   3.511
13584SOL    HW242760  30.602   0.766 -18.658
13585SOL     OW42761   3.437   9.724   6.121
13585SOL    HW142762   3.524   9.685   6.118
13585SOL    HW242763   3.398   9.691   6.202
13586SOL     OW42764   3.850   6.290   7.000
13586SOL    HW142765   3.919   6.355  29.095
13586SOL    HW242766   3.809   6.277   7.086
13587SOL     OW42767  10.122   1.526  11.055
13587SOL    HW142768  10.087   1.458   0.073
13587SOL    HW242769  10.053  23.672  11.051
13588SOL     OW42770   7.269   2.756   0.567
13588SOL    HW142771   7.361  13.822   0.573
13588SOL    HW242772   7.223  24.895  11.665
13589SOL     OW42773   0.322   5.913  10.321
13589SOL    HW142774  33.466   5.964  10.399
13589SOL    HW242775  33.436  16.862  10.352
13590SOL     OW42776   1.547   9.260   5.216
13590SOL    HW142777   1.494   9.298  16.325
13590SOL    HW242778   1.638   9.277  16.283
13591SOL     OW42779   2.095  -1.802   3.947
13591SOL    HW142780   2.050   9.247 -18.049
13591SOL    HW242781   2.188  42.354   3.969
13592SOL     OW42782   4.910   7.930   0.524
13592SOL    HW142783  -6.045   7.907  11.603
13592SOL    HW242784   4.928   7.933   0.430
13593SOL     OW42785   7.581   1.407   8.163
13593SOL    HW142786   7.534   1.480 -13.954
13593SOL    HW242787  29.751   1.436  -2.872
13594SOL     OW42788   9.965   5.146   0.888
13594SOL    HW142789   9.907   5.143   0.812
13594SOL    HW242790  -1.075   5.056   0.921
13595SOL     OW42791   8.944   0.794   5.013
13595SOL    HW142792  -2.143   0.713 -28.088
13595SOL    HW242793   9.016   0.794 -28.043
13596SOL     OW42794   7.259   5.659   0.174
13596SOL    HW142795  -3.725   5.595   0.129
13596SOL    HW242796  -3.719   5.713   0.224
13597SOL     OW42797   9.069   2.084   1.250
13597SOL    HW142798   9.121   2.010   1.219
13597SOL    HW242799   9.099   2.158   1.198
13598SOL     OW42800   5.477   4.478   6.839
13598SOL    HW142801   5.436   4.504   6.921
13598SOL    HW242802  -5.627  -6.620   6.798
13599SOL     OW42803   0.153   1.305   8.571
13599SOL    HW142804   0.106   1.234   8.528
13599SOL    HW242805   0.194   1.354   8.499
13600SOL     OW42806   8.931  10.279   8.825
13600SOL    HW142807   8.879 -22.776   8.776
13600SOL    HW242808   8.983  10.234  -2.282
13601SOL     OW42809  12.053   3.579   9.348
13601SOL    HW142810  12.083   3.645   9.412
13601SOL    HW242811 -10.077   3.628   9.285
13602SOL     OW42812   1.645   8.367   1.601
13602SOL    HW142813 -20.366  19.340  -9.443
13602SOL    HW242814   1.692 -13.632   1.624
13603SOL     OW42815   7.684   9.295  10.276
13603SOL    HW142816  29.797   9.305  10.187
13603SOL    HW242817   7.649   9.206  10.278
13604SOL     OW42818  10.988   9.534   1.161
13604SOL    HW142819  11.055   9.572   1.218
13604SOL    HW242820  -0.134   9.553   1.206
13605SOL     OW42821   3.653  10.665   8.256
13605SOL    HW142822   3.691  21.658  19.370
13605SOL    HW242823   3.577 -11.466   8.231
13606SOL     OW42824   4.908  10.043   1.757
13606SOL    HW142825   4.902  10.121   1.813
13606SOL    HW242826  15.891   9.979   1.801
13607SOL     OW42827   9.637   2.754  10.261
13607SOL    HW142828 -12.426   2.740  10.168
13607SOL    HW242829   9.724 -30.370  10.302
13608SOL     OW42830   8.882   3.710   7.993
13608SOL    HW142831 -24.157   3.664   7.967
13608SOL    HW242832 -13.186  25.878  19.000
13609SOL     OW42833   3.820   5.654   4.279
13609SOL    HW142834  36.849   5.640   4.249
13609SOL    HW242835  25.928   5.733   4.234
13610SOL     OW42836  10.582   7.037   1.177
13610SOL    HW142837  10.676   7.033   1.195
13610SOL    HW242838  10.544   6.977   1.241
13611SOL     OW42839   3.867   6.161   5.340
13611SOL    HW142840   3.843   6.141  27.328
13611SOL    HW242841   3.852   6.078  16.426
13612SOL     OW42842   4.350   2.764  -0.544
13612SOL    HW142843  -6.707  -8.370  21.528
13612SOL    HW242844   4.445   2.771  32.574
13613SOL     OW42845   4.424   2.472   6.375
13613SOL    HW142846   4.332   2.480   6.352
13613SOL    HW242847   4.462  13.459  -4.735
13614SOL     OW42848   8.512   1.689   4.787
13614SOL    HW142849  30.598   1.605   4.832
13614SOL    HW242850   8.511  -9.373  37.813
13615SOL     OW42851   8.598   1.293   9.292
13615SOL    HW142852   8.650   1.255   9.363
13615SOL    HW242853  -2.449   1.223  -1.811
13616SOL     OW42854   7.234   8.703   8.192
13616SOL    HW142855  18.262  19.648   8.197
13616SOL    HW242856   7.160   8.739   8.241
13617SOL     OW42857   2.323   5.794   3.800
13617SOL    HW142858   2.325   5.716   3.744
13617SOL    HW242859 -19.680  -5.194   3.772
13618SOL     OW42860   5.252   3.606  10.632
13618SOL    HW142861   5.210   3.565  -0.332
13618SOL    HW242862   5.312   3.540  10.598
13619SOL     OW42863   6.348   9.466   0.507
13619SOL    HW142864   6.364  -1.665   0.528
13619SOL    HW242865   6.253   9.472   0.493
13620SOL     OW42866   1.349   5.444   0.072
13620SOL    HW142867  23.423  -5.681   0.028
13620SOL    HW242868   1.352   5.508   0.000
13621SOL     OW42869   9.800   7.692   3.723
13621SOL    HW142870  -1.270   7.614  36.887
13621SOL    HW242871  31.800   7.732   3.687
13622SOL     OW42872   9.000   2.260   4.800
13622SOL    HW142873   8.940   2.325  15.876
13622SOL    HW242874   8.984   2.182   4.853
13623SOL     OW42875   9.429   3.384   5.089
13623SOL    HW142876  -1.706   3.389   5.085
13623SOL    HW242877   9.454   3.442  16.201
13624SOL     OW42878   0.432   5.153  11.210
13624SOL    HW142879   0.370  -5.913   0.238
13624SOL    HW242880   0.482   5.073  11.190
13625SOL     OW42881   1.066   3.194  10.374
13625SOL    HW142882   0.978   3.161  -0.682
13625SOL    HW242883  23.164  25.249  10.464
13626SOL     OW42884   0.723   7.572  13.124
13626SOL    HW142885   0.700  18.519  -8.945
13626SOL    HW242886   0.812   7.570 -20.029
13627SOL     OW42887   0.457   1.855   0.547
13627SOL    HW142888   0.383   1.854  11.648
13627SOL    HW242889   0.504   1.773   0.565
13628SOL     OW42890   1.323   2.913   1.964
13628SOL    HW142891   1.327   2.916   2.060
13628SOL    HW242892  12.327   2.998   1.939
13629SOL     OW42893   0.254   8.668   1.399
13629SOL    HW142894   0.240   8.651   1.492
13629SOL    HW242895  11.247  19.636   1.355
13630SOL     OW42896   9.255   4.101   7.090
13630SOL    HW142897   9.180  26.239   7.077
13630SOL    HW242898   9.280   4.115   7.181
13631SOL     OW42899   1.727   7.942  13.228
13631SOL    HW142900   1.758   8.029 -19.915
13631SOL    HW242901   1.672   7.958   2.265
13632SOL     OW42902  10.599   4.035   6.687
13632SOL    HW142903  10.534  -7.048   6.742
13632SOL    HW242904  10.568   4.021  -4.442
13633SOL     OW42905   9.297   6.154   8.238
13633SOL    HW142906   9.230  -4.846   8.293
13633SOL    HW242907   9.292  17.242   8.155
13634SOL     OW42908   1.474   4.459   9.148
13634SOL    HW142909   1.447   4.368   9.135
13634SOL    HW242910   1.549   4.454   9.208
13635SOL     OW42911   0.829   5.176  10.224
13635SOL    HW142912 -10.193  -5.776  21.298
13635SOL    HW242913   0.820   5.121  10.301
13636SOL     OW42914   2.193   3.242   9.073
13636SOL    HW142915   2.147   3.161   9.094
13636SOL    HW242916   2.194   3.292   9.154
13637SOL     OW42917   9.304   0.775  10.310
13637SOL    HW142918   9.341  11.892  10.353
13637SOL    HW242919  20.305   0.724  10.381
13638SOL     OW42920   2.215   3.465   6.103
13638SOL    HW142921   2.279   3.535  17.129
13638SOL    HW242922   2.157   3.470   6.027
13639SOL     OW42923   5.787   2.859   6.716
13639SOL    HW142924   5.832   2.843   6.633
13639SOL    HW242925   5.841   2.924   6.760
13640SOL     OW42926   8.752  10.186   2.083
13640SOL    HW142927   8.667  10.222   2.056
13640SOL    HW242928   8.740 -11.913  13.215
13641SOL     OW42929   1.549   2.972   2.545
13641SOL    HW142930   1.557  14.064 -30.653
13641SOL    HW242931  -9.477   2.882   2.516
13642SOL     OW42932   2.452   1.582   1.339
13642SOL    HW142933   2.419   1.548  12.462
13642SOL    HW242934  -8.649   1.653   1.318
13643SOL     OW42935   6.511   1.990   0.750
13643SOL    HW142936   6.460  13.096   0.796
13643SOL    HW242937   6.445  12.966   0.720
13644SOL     OW42938   3.955   1.881  12.207
13644SOL    HW142939  14.996  -9.130  12.115
13644SOL    HW242940   3.921  -9.248  -9.876
13645SOL     OW42941   8.879   7.781   0.517
13645SOL    HW142942   8.931  -3.220  11.487
13645SOL    HW242943   8.802 -14.334   0.473
13646SOL     OW42944  10.185   8.553   8.025
13646SOL    HW142945  10.151  19.599  18.975
13646SOL    HW242946  10.163   8.464   8.052
13647SOL     OW42947   9.475   9.523  10.330
13647SOL    HW142948   9.412   9.566  10.273
13647SOL    HW242949   9.557   9.569  10.314
13648SOL     OW42950   8.498   9.167   2.142
13648SOL    HW142951   8.539   9.185  13.266
13648SOL    HW242952   8.567 -12.893  35.197
13649SOL     OW42953   8.814   7.057   6.605
13649SOL    HW142954   8.803   7.152   6.598
13649SOL    HW242955   8.839   7.043   6.696
13650SOL     OW42956   9.700   3.412  13.292
13650SOL    HW142957   9.637   3.373  -8.726
13650SOL    HW242958   9.775   3.351  -8.785
13651SOL     OW42959   2.365   8.657   1.957
13651SOL    HW142960  24.498   8.716   1.905
13651SOL    HW242961   2.426  -2.448   1.990
13652SOL     OW42962   5.665   4.981   1.951
13652SOL    HW142963   5.662   5.040  24.105
13652SOL    HW242964  27.658   4.939   1.951
13653SOL     OW42965   8.241   1.159  10.816
13653SOL    HW142966   8.264   1.066  -0.226
13653SOL    HW242967  19.213  -9.874  10.883
13654SOL     OW42968   8.031   9.368   3.835
13654SOL    HW142969  19.079 -12.748   3.747
13654SOL    HW242970   8.102   9.432   3.841
13655SOL     OW42971   6.416   6.251   7.284
13655SOL    HW142972  17.527   6.233   7.223
13655SOL    HW242973  -4.664   6.331  18.289
13656SOL     OW42974   8.804  10.206   7.908
13656SOL    HW142975   8.717  10.245   7.906
13656SOL    HW242976  19.891  21.288  -3.202
13657SOL     OW42977   9.851   2.677   9.766
13657SOL    HW142978   9.788   2.685   9.694
13657SOL    HW242979   9.933   2.713   9.731
13658SOL     OW42980   6.965   7.367   7.031
13658SOL    HW142981  -4.135   7.435   7.001
13658SOL    HW242982   6.932   7.342   7.117
13659SOL     OW42983   2.042   5.007   6.259
13659SOL    HW142984  -8.981   4.978   6.349
13659SOL    HW242985   1.947  -6.019   6.257
13660SOL     OW42986   7.477   9.296   0.364
13660SOL    HW142987   7.421  -1.685  11.352
13660SOL    HW242988  18.581   9.265   0.301
13661SOL     OW42989   3.712   5.701  10.366
13661SOL    HW142990   3.618   5.697  -0.692
13661SOL    HW242991   3.730  27.703 -11.661
13662SOL     OW42992   6.228   1.477   5.247
13662SOL    HW142993   6.228   1.545   5.316
13662SOL    HW242994  -4.772 -20.559 -16.908
13663SOL     OW42995   5.538   5.121   3.145
13663SOL    HW142996   5.462   5.091   3.194
13663SOL    HW242997   5.546   5.214   3.167
13664SOL     OW42998   3.327   4.500   8.730
13664SOL    HW142999   3.280  15.622   8.743
13664SOL    HW243000   3.415  -6.513   8.705
13665SOL     OW43001   6.291   7.985   6.270
13665SOL    HW143002   6.243   7.958   6.348
13665SOL    HW243003   6.373   7.937  -4.765
13666SOL     OW43004   5.276   7.008   9.840
13666SOL    HW143005   5.352 -15.044  -1.251
13666SOL    HW243006  16.240   7.034   9.787
13667SOL     OW43007  10.043  10.732   9.216
13667SOL    HW143008  -1.064  10.684  20.207
13667SOL    HW243009  32.087  10.820   9.226
13668SOL     OW43010   1.207   3.562   5.106
13668SOL    HW143011   1.284   3.511   5.130
13668SOL    HW243012  12.267   3.598  16.059
13669SOL     OW43013   3.889   5.458   1.844
13669SOL    HW143014   3.809   5.491  12.925
13669SOL    HW243015  14.899   5.416   1.764
13670SOL     OW43016  10.198   5.788  -0.209
13670SOL    HW143017  10.105  16.852  10.834
13670SOL    HW243018  10.217   5.755  -0.122
13671SOL     OW43019   1.578   2.079   9.747
13671SOL    HW143020  12.666   1.999  20.767
13671SOL    HW243021   1.577  -8.956   9.842
13672SOL     OW43022   4.561   3.775   2.577
13672SOL    HW143023   4.613 -29.351   2.497
13672SOL    HW243024  15.658 -29.296   2.638
13673SOL     OW43025   6.346  10.371   9.902
13673SOL    HW143026 -26.768  10.465 -12.197
13673SOL    HW243027 -15.785  10.366  -1.058
13674SOL     OW43028   9.413   4.967   2.344
13674SOL    HW143029   9.324   4.997   2.325
13674SOL    HW243030   9.402   4.897   2.408
13675SOL     OW43031   6.262   9.246   9.352
13675SOL    HW143032   6.351   9.279   9.338
13675SOL    HW243033   6.205  -1.722  -1.716
13676SOL     OW43034   6.882  10.523   0.744
13676SOL    HW143035   6.885  10.546  22.730
13676SOL    HW243036   6.945  10.581   0.785
13677SOL     OW43037  12.224   1.614  10.388
13677SOL    HW143038   1.252  23.653  10.333
13677SOL    HW243039   1.143   1.540  10.432
13678SOL     OW43040   4.198   7.230   4.178
13678SOL    HW143041   4.113   7.214   4.220
13678SOL    HW243042   4.193  -3.858   4.095
13679SOL     OW43043   5.062   3.069   3.850
13679SOL    HW143044   5.140  14.154  -7.221
13679SOL    HW243045   5.046  -7.935  14.977
13680SOL     OW43046   5.466   1.272   9.134
13680SOL    HW143047  16.411  12.301   9.119
13680SOL    HW243048   5.473   1.354   9.183
13681SOL     OW43049  11.315   8.027   4.785
13681SOL    HW143050   0.207   8.083   4.750
13681SOL    HW243051  11.316   8.046  -6.161
13682SOL     OW43052   8.178  10.396   8.280
13682SOL    HW143053  19.190  10.384  -2.850
13682SOL    HW243054   8.145  10.319  19.365
13683SOL     OW43055   0.028   5.276   2.644
13683SOL    HW143056   0.075  -5.834   2.689
13683SOL    HW243057   0.084   5.353   2.657
13684SOL     OW43058   1.665   3.424   5.679
13684SOL    HW143059   1.637  -7.704  -5.384
13684SOL    HW243060   1.729   3.412 -16.329
13685SOL     OW43061   2.115   6.966   3.183
13685SOL    HW143062 -31.089   7.002   3.163
13685SOL    HW243063  13.137   6.890   3.238
13686SOL     OW43064   0.004   1.236   4.182
13686SOL    HW143065  -0.081   1.252 -17.857
13686SOL    HW243066  11.051  23.219   4.179
13687SOL     OW43067  -0.077   8.139   7.009
13687SOL    HW143068  -0.085   8.051   7.046
13687SOL    HW243069  11.056   8.157  -4.029
13688SOL     OW43070   2.613  12.036   5.024
13688SOL    HW143071   2.530 -21.130   5.019
13688SOL    HW243072   2.657  11.998  27.179
13689SOL     OW43073   6.897   2.336   6.475
13689SOL    HW143074   6.813   2.296  -4.587
13689SOL    HW243075   6.896   2.420   6.429
13690SOL     OW43076   3.601   4.244   5.049
13690SOL    HW143077 -18.554  26.264   5.054
13690SOL    HW243078  -7.390  37.332   4.973
13691SOL     OW43079   9.338   5.078   5.761
13691SOL    HW143080  20.463   5.114  16.825
13691SOL    HW243081   9.348   5.052  27.748
13692SOL     OW43082   6.719   6.425  11.983
13692SOL    HW143083   6.787  -4.619  12.050
13692SOL    HW243084  17.728  -4.524 -10.093
13693SOL     OW43085   0.514  10.605   4.270
13693SOL    HW143086   0.583 -22.508   4.204
13693SOL    HW243087  11.479 -11.428   4.232
13694SOL     OW43088   1.726   2.362   4.640
13694SOL    HW143089  23.853  13.444   4.569
13694SOL    HW243090  12.702   2.427   4.669
13695SOL     OW43091   4.767   3.794   7.044
13695SOL    HW143092   4.677   3.793 -15.068
13695SOL    HW243093 -39.380   3.709   7.086
13696SOL     OW43094   6.718   7.620   9.149
13696SOL    HW143095 -15.371  18.660  31.133
13696SOL    HW243096   6.765 -14.540   9.169
13697SOL     OW43097   1.540   4.732   5.774
13697SOL    HW143098 -20.500   4.758  16.897
13697SOL    HW243099   1.551  -6.231  -5.322
13698SOL     OW43100   4.840   7.498   9.302
13698SOL    HW143101   4.753   7.477   9.336
13698SOL    HW243102   4.826   7.577  31.328
13699SOL     OW43103   4.854   2.630   3.093
13699SOL    HW143104  15.848   2.566   3.039
13699SOL    HW243105   4.929  13.697 -19.040
13700SOL     OW43106   2.720   0.356   8.538
13700SOL    HW143107   2.746   0.266   8.557
13700SOL    HW243108   2.712   0.360   8.442
13701SOL     OW43109   2.981   3.208   8.789
13701SOL    HW143110 -19.117   3.114   8.793
13701SOL    HW243111  -8.097  47.395   8.707
13702SOL     OW43112   8.695   8.609   4.251
13702SOL    HW143113  30.782  -2.516   4.209
13702SOL    HW243114   8.655   8.665   4.184
13703SOL     OW43115   6.625  10.522   1.191
13703SOL    HW143116  39.708  10.609   1.211
13703SOL    HW243117  17.698  10.530   1.102
13704SOL     OW43118   5.691   0.608   0.292
13704SOL    HW143119   5.760   0.584   0.229
13704SOL    HW243120   5.733   0.599   0.377
13705SOL     OW43121   5.730   7.634  -0.351
13705SOL    HW143122  -5.319   7.710  10.631
13705SOL    HW243123  -5.359  40.776  -0.272
13706SOL     OW43124   1.424   3.671   9.071
13706SOL    HW143125   1.343  25.771   9.023
13706SOL    HW243126  12.456  25.799   9.153
13707SOL     OW43127   9.436   7.495   4.735
13707SOL    HW143128   9.424   7.508  -6.399
13707SOL    HW243129   9.471   7.578   4.766
13708SOL     OW43130   5.379   5.268   2.704
13708SOL    HW143131 -27.732   5.334   2.773
13708SOL    HW243132   5.414   5.188   2.743
13709SOL     OW43133   0.682   7.798   9.068
13709SOL    HW143134  11.767   7.733   9.015
13709SOL    HW243135  11.707   7.872  -2.030
13710SOL     OW43136   8.320   3.474   5.305
13710SOL    HW143137   8.409  14.480   5.296
13710SOL    HW243138   8.268   3.418   5.247
13711SOL     OW43139   0.682   8.893   1.034
13711SOL    HW143140   0.621  -2.073   1.022
13711SOL    HW243141  22.848   8.933 -10.014
13712SOL     OW43142   2.435  10.485   5.755
13712SOL    HW143143   2.402  10.395  -5.277
13712SOL    HW243144   2.523  10.475   5.719
13713SOL     OW43145   4.929   8.953   7.273
13713SOL    HW143146   4.885   8.965   7.357
13713SOL    HW243147   5.004   8.897   7.292
13714SOL     OW43148   3.067   4.613   8.525
13714SOL    HW143149  -8.019   4.554   8.466
13714SOL    HW243150  -7.902   4.559   8.561
13715SOL     OW43151   1.733  10.036   9.808
13715SOL    HW143152  23.904  10.040  -1.257
13715SOL    HW243153   1.706  10.128   9.816
13716SOL     OW43154   8.424   3.193   3.705
13716SOL    HW143155  -2.576   3.164  14.827
13716SOL    HW243156  -2.606  -7.921   3.647
13717SOL     OW43157   9.590   3.443   3.283
13717SOL    HW143158   9.568   3.362   3.329
13717SOL    HW243159   9.585   3.511   3.351
13718SOL     OW43160   8.354  10.943   3.454
13718SOL    HW143161  30.417  11.037  25.536
13718SOL    HW243162   8.392  10.928   3.368
13719SOL     OW43163   5.730  -0.463   5.091
13719SOL    HW143164   5.777  -0.469   5.008
13719SOL    HW243165   5.723  10.671  16.147
13720SOL     OW43166   3.501   0.292   8.331
13720SOL    HW143167   3.489   0.287   8.236
13720SOL    HW243168   3.586   0.333   8.342
13721SOL     OW43169   4.082   3.648   0.746
13721SOL    HW143170  -6.912   3.674   0.666
13721SOL    HW243171 -17.946   3.575   0.780
13722SOL     OW43172   7.166   5.196  10.619
13722SOL    HW143173   7.174   5.167 -11.551
13722SOL    HW243174   7.127  16.322  10.613
13723SOL     OW43175   5.353   4.581   6.421
13723SOL    HW143176   5.396 -28.536   6.506
13723SOL    HW243177   5.400 -28.473   6.369
13724SOL     OW43178   5.758   2.363   9.780
13724SOL    HW143179  27.780   2.356   9.857
13724SOL    HW243180   5.846   2.348   9.814
13725SOL     OW43181   1.621   4.354   3.287
13725SOL    HW143182   1.591   4.372  14.416
13725SOL    HW243183   1.617  -6.601   3.243
13726SOL     OW43184   7.261   7.081   9.864
13726SOL    HW143185   7.309 -14.967   9.941
13726SOL    HW243186   7.291   7.138   9.793
13727SOL     OW43187   6.013   7.353  11.564
13727SOL    HW143188  28.052   7.313  11.486
13727SOL    HW243189  -4.993   7.278   0.574
13728SOL     OW43190   0.787   8.229  10.389
13728SOL    HW143191  22.785   8.198  10.429
13728SOL    HW243192   0.760   8.263  10.303
13729SOL     OW43193   8.918   8.434   8.168
13729SOL    HW143194 -13.170 -13.739  19.227
13729SOL    HW243195   8.999   8.440  19.158
13730SOL     OW43196   0.430   1.585   2.678
13730SOL    HW143197   0.497   1.521   2.702
13730SOL    HW243198   0.351   1.533  35.783
13731SOL     OW43199   3.265   6.253   4.659
13731SOL    HW143200  -7.780   6.304   4.578
13731SOL    HW243201   3.359   6.242   4.673
13732SOL     OW43202   5.919   6.878  10.458
13732SOL    HW143203   5.927   6.923  -0.497
13732SOL    HW243204  27.957  -4.098  10.400
13733SOL     OW43205  10.459   9.261   9.410
13733SOL    HW143206  10.437   9.181  20.402
13733SOL    HW243207  10.523   9.305  20.394
13734SOL     OW43208   6.780  10.914   8.295
13734SOL    HW143209   6.854  -0.102   8.238
13734SOL    HW243210  -4.295  22.038 -24.795
13735SOL     OW43211   6.321   4.271   8.194
13735SOL    HW143212   6.362   4.203   8.248
13735SOL    HW243213   6.277   4.328   8.256
13736SOL     OW43214   7.041  -0.287   8.263
13736SOL    HW143215  -4.066  10.741  19.236
13736SOL    HW243216   7.056  -0.193   8.266
13737SOL     OW43217   8.136   7.219   4.170
13737SOL    HW143218   8.130   7.154   4.240
13737SOL    HW243219   8.048  -3.783   4.164
13738SOL     OW43220   5.493   4.747   8.340
13738SOL    HW143221  16.534  15.781   8.436
13738SOL    HW243222  27.578   4.841   8.322
13739SOL     OW43223   3.980   3.214   9.592
13739SOL    HW143224   3.889 -29.878  20.644
13739SOL    HW243225   4.007   3.258   9.511
13740SOL     OW43226   7.780   3.447   8.796
13740SOL    HW143227  18.899 -18.673   8.830
13740SOL    HW243228   7.710  -7.653   8.819
13741SOL     OW43229   5.535  10.377  10.792
13741SOL    HW143230   5.517  10.365  10.699
13741SOL    HW243231  16.559  10.470  10.808
13742SOL     OW43232   0.178   6.247   9.637
13742SOL    HW143233  22.181   6.298   9.608
13742SOL    HW243234 -21.938   6.162   9.663
13743SOL     OW43235   6.672   0.135  11.640
13743SOL    HW143236   6.611   0.081  11.690
13743SOL    HW243237  17.714   0.218 -10.392
13744SOL     OW43238   2.592   6.349   3.842
13744SOL    HW143239   2.603   6.294 -18.315
13744SOL    HW243240   2.680   6.359 -18.202
13745SOL     OW43241   8.788   6.540   3.163
13745SOL    HW143242   8.803   6.584  -7.792
13745SOL    HW243243   8.704   6.496  -7.866
13746SOL     OW43244   8.894   6.967  10.319
13746SOL    HW143245  -2.206 -15.114  10.244
13746SOL    HW243246   8.979  40.065  10.281
13747SOL     OW43247   6.240   2.172   9.186
13747SOL    HW143248   6.235   2.112   9.112
13747SOL    HW243249   6.284  13.290  31.231
13748SOL     OW43250   5.785   0.126   3.227
13748SOL    HW143251   5.717   0.186  -7.846
13748SOL    HW243252  16.813   0.128   3.322
13749SOL     OW43253  11.837  -1.195   8.699
13749SOL    HW143254  11.755  -1.160   8.663
13749SOL    HW243255 -10.269  31.868  19.811
13750SOL     OW43256   4.226   8.744   6.896
13750SOL    HW143257  15.215   8.682  -4.196
13750SOL    HW243258 -17.801 -24.326   6.833
13751SOL     OW43259   7.633   4.406  -0.656
13751SOL    HW143260  18.593   4.356  -0.673
13751SOL    HW243261   7.704  26.422  43.489
13752SOL     OW43262  10.494   8.458   0.325
13752SOL    HW143263  10.480   8.523   0.257
13752SOL    HW243264  10.589   8.457   0.338
13753SOL     OW43265   4.483   1.349   3.279
13753SOL    HW143266   4.436  -9.762   3.321
13753SOL    HW243267   4.426   1.376   3.207
13754SOL     OW43268   9.716   1.046   6.070
13754SOL    HW143269   9.680   1.133   6.089
13754SOL    HW243270   9.652  34.125  17.051
13755SOL     OW43271   3.733   4.500  11.173
13755SOL    HW143272   3.744   4.465 -10.817
13755SOL    HW243273   3.803   4.564  11.164
13756SOL     OW43274   3.170   2.494   6.347
13756SOL    HW143275   3.254  13.565   6.313
13756SOL    HW243276   3.110   2.503   6.273
13757SOL     OW43277  10.143   5.551   3.282
13757SOL    HW143278 -11.862  -5.437   3.317
13757SOL    HW243279  10.086   5.617   3.243
13758SOL     OW43280  10.900   3.708   7.386
13758SOL    HW143281  10.992   3.690  -3.670
13758SOL    HW243282  10.870   3.753  -3.733
13759SOL     OW43283   4.505   3.035   2.318
13759SOL    HW143284  15.501   3.090   2.383
13759SOL    HW243285   4.595   3.069   2.314
13760SOL     OW43286   0.751   4.867   8.626
13760SOL    HW143287   0.783   4.952   8.598
13760SOL    HW243288   0.656   4.873  19.655
13761SOL     OW43289   0.979   5.043   5.718
13761SOL    HW143290   0.977  -5.931  38.768
13761SOL    HW243291   1.060   5.060   5.765
13762SOL     OW43292  11.347   4.363   1.619
13762SOL    HW143293   0.350  15.355   1.691
13762SOL    HW243294 -10.814  15.434  12.696
13763SOL     OW43295   7.802   2.009  10.332
13763SOL    HW143296  18.908   1.960  10.283
13763SOL    HW243297   7.812   1.980  -0.617
13764SOL     OW43298   5.232  10.036  -1.144
13764SOL    HW143299   5.187  10.066  20.856
13764SOL    HW243300   5.305  21.138  -1.133
13765SOL     OW43301   1.009   2.289   9.370
13765SOL    HW143302   1.081 -19.852  -1.680
13765SOL    HW243303   1.038  13.388   9.439
13766SOL     OW43304  11.945   0.296   2.746
13766SOL    HW143305  11.853   0.311   2.724
13766SOL    HW243306 -21.176   0.230   2.815
13767SOL     OW43307   1.679   2.230   9.281
13767SOL    HW143308   1.745   2.295   9.255
13767SOL    HW243309   1.597   2.279   9.284
13768SOL     OW43310   3.288   8.507   9.757
13768SOL    HW143311  -7.657   8.500   9.744
13768SOL    HW243312 -40.882  19.530 -12.228
13769SOL     OW43313   9.664   0.004   9.762
13769SOL    HW143314 -23.505  10.993   9.826
13769SOL    HW243315   9.720   0.061   9.815
13770SOL     OW43316   0.119   8.705   6.030
13770SOL    HW143317   0.175   8.637   6.068
13770SOL    HW243318  22.192   8.682  16.977
13771SOL     OW43319   6.399   9.076   3.110
13771SOL    HW143320   6.401  -2.036   3.048
13771SOL    HW243321  17.378   9.048  14.218
13772SOL     OW43322   9.639  -0.823   5.029
13772SOL    HW143323 -12.382  10.278  27.154
13772SOL    HW243324  -1.402  10.248 -39.219
13773SOL     OW43325   5.120   9.952   5.684
13773SOL    HW143326   5.193   9.955   5.746
13773SOL    HW243327   5.104  10.043   5.660
13774SOL     OW43328   9.940   2.555   4.538
13774SOL    HW143329  10.016   2.606   4.569
13774SOL    HW243330  -1.163   2.562   4.609
13775SOL     OW43331   7.781   7.350   1.714
13775SOL    HW143332  18.801   7.443   1.725
13775SOL    HW243333   7.802  -3.700   1.621
13776SOL     OW43334   1.409   3.983   0.917
13776SOL    HW143335   1.342  15.061   0.974
13776SOL    HW243336   1.360  14.975   0.850
13777SOL     OW43337  -0.543   8.329   4.353
13777SOL    HW143338  -0.577  -2.638   4.406
13777SOL    HW243339  21.459  -2.763   4.333
13778SOL     OW43340   1.305   8.519   6.366
13778SOL    HW143341  -9.697 -13.556   6.278
13778SOL    HW243342   1.377   8.485   6.420
13779SOL     OW43343   2.905   3.338   8.299
13779SOL    HW143344   2.843   3.273   8.265
13779SOL    HW243345   2.877   3.353   8.389
13780SOL     OW43346   6.648   5.998   8.945
13780SOL    HW143347  -4.437  39.132   8.862
13780SOL    HW243348 -15.391  17.122   8.966
13781SOL     OW43349   3.735   8.128   1.720
13781SOL    HW143350   3.660 -13.950   1.660
13781SOL    HW243351   3.796  19.105   1.681
13782SOL     OW43352  10.004   5.799   8.341
13782SOL    HW143353  10.006   5.723 -24.836
13782SOL    HW243354   9.938  -5.263   8.407
13783SOL     OW43355   6.622   8.098   2.381
13783SOL    HW143356   6.651   8.179  13.462
13783SOL    HW243357  17.640 -14.040  13.493
13784SOL     OW43358  10.199  12.012   4.284
13784SOL    HW143359 -33.921  -9.991  -6.712
13784SOL    HW243360  -0.766  11.970   4.241
13785SOL     OW43361   2.525   5.895   4.909
13785SOL    HW143362   2.472  39.083   4.869
13785SOL    HW243363   2.512   5.906  -6.036
13786SOL     OW43364   1.806  10.612   3.026
13786SOL    HW143365  12.756  10.578  -8.009
13786SOL    HW243366  12.860  10.649   3.113
13787SOL     OW43367   4.820   3.884   9.939
13787SOL    HW143368   4.753  -7.088 -12.135
13787SOL    HW243369 -17.297  14.856  -1.157
13788SOL     OW43370   4.447   3.382   8.617
13788SOL    HW143371  -6.671   3.437   8.614
13788SOL    HW243372   4.453  14.383  19.570
13789SOL     OW43373   4.427  -0.486   4.768
13789SOL    HW143374  -6.540  65.746   4.830
13789SOL    HW243375   4.348  10.540 -17.258
13790SOL     OW43376   0.481   3.220   9.921
13790SOL    HW143377   0.389   3.216 -12.182
13790SOL    HW243378  11.565   3.166  -1.183
13791SOL     OW43379   3.455   6.503  -0.190
13791SOL    HW143380   3.520   6.566  -0.221
13791SOL    HW243381 -18.580   6.418  21.886
13792SOL     OW43382   7.095   6.163   0.837
13792SOL    HW143383 -26.001   6.230  22.981
13792SOL    HW243384   7.003  17.183   0.854
13793SOL     OW43385   2.313   8.372   4.260
13793SOL    HW143386  13.422   8.428   4.294
13793SOL    HW243387  24.354   8.423   4.188
13794SOL     OW43388   6.950   3.529   5.784
13794SOL    HW143389  -4.082   3.444   5.827
13794SOL    HW243390   6.856  47.699   5.769
13795SOL     OW43391  11.643   2.119   3.778
13795SOL    HW143392  11.556  -8.926   3.818
13795SOL    HW243393 -10.396 -19.884  -7.221
13796SOL     OW43394  10.527   1.373   6.308
13796SOL    HW143395  10.494   1.385   6.398
13796SOL    HW243396  10.454   1.402   6.253
13797SOL     OW43397   0.975   4.824   7.780
13797SOL    HW143398   0.979   4.906  29.909
13797SOL    HW243399   0.931   4.847   7.699
13798SOL     OW43400   3.585  -0.130   6.718
13798SOL    HW143401 -18.537  10.856   6.650
13798SOL    HW243402   3.555  22.038   6.701
13799SOL     OW43403   7.511  10.837   7.667
13799SOL    HW143404  -3.518  10.743   7.658
13799SOL    HW243405 -14.608  -0.191  18.793
13800SOL     OW43406  10.215   1.292  10.256
13800SOL    HW143407  10.212   1.272  10.163
13800SOL    HW243408  -0.900   1.245 -11.786
13801SOL     OW43409   2.135   5.783   5.255
13801SOL    HW143410   2.143 -27.385   5.174
13801SOL    HW243411   2.047   5.822   5.252
13802SOL     OW43412   9.304   3.753   2.712
13802SOL    HW143413  -1.645  25.851   2.689
13802SOL    HW243414  -1.785   3.769   2.632
13803SOL     OW43415   5.963   4.304   2.604
13803SOL    HW143416   6.012   4.292   2.523
13803SOL    HW243417   5.901  15.415   2.584
13804SOL     OW43418  11.171   7.167   8.335
13804SOL    HW143419 -10.837   7.147   8.273
13804SOL    HW243420  11.216   7.208  52.567
13805SOL     OW43421   9.942  10.843   6.509
13805SOL    HW143422  -1.146  10.893   6.443
13805SOL    HW243423 -12.178 -22.250   6.592
13806SOL     OW43424   7.967   4.867   7.903
13806SOL    HW143425  -3.028   4.818   7.835
13806SOL    HW243426   7.874   4.851   7.889
13807SOL     OW43427  -0.300   9.305   1.123
13807SOL    HW143428  21.697   9.349  12.182
13807SOL    HW243429  -0.307  -1.760   1.031
13808SOL     OW43430  11.251   9.011   6.696
13808SOL    HW143431   0.181 -13.150  17.773
13808SOL    HW243432  11.189  -2.010   6.625
13809SOL     OW43433   6.727   4.527   0.157
13809SOL    HW143434   6.791   4.591   0.189
13809SOL    HW243435   6.696   4.482   0.236
13810SOL     OW43436  11.041   6.525   4.078
13810SOL    HW143437  -0.066  -4.527   4.145
13810SOL    HW243438  11.120  -4.494 -17.951
13811SOL     OW43439   0.747   4.648   4.479
13811SOL    HW143440  33.915   4.580   4.524
13811SOL    HW243441  22.844   4.633   4.386
13812SOL     OW43442   0.234   9.279  11.849
13812SOL    HW143443  33.448   9.277 -10.224
13812SOL    HW243444  11.245  -1.752  11.940
13813SOL     OW43445   9.107   0.523   7.221
13813SOL    HW143446   9.144 -10.599   7.251
13813SOL    HW243447   9.181  22.651  18.227
13814SOL     OW43448   6.563   2.401   5.037
13814SOL    HW143449  -4.436   2.314   5.036
13814SOL    HW243450  17.579   2.418   4.946
13815SOL     OW43451   5.773  10.535   0.353
13815SOL    HW143452   5.689  10.551  11.350
13815SOL    HW243453   5.757  10.551   0.446
13816SOL     OW43454   4.513   6.262   4.946
13816SOL    HW143455   4.598   6.288  15.950
13816SOL    HW243456   4.532   6.235   5.036
13817SOL     OW43457   6.460   4.780  10.778
13817SOL    HW143458   6.451   4.812 -11.390
13817SOL    HW243459   6.375   4.795  -0.221
13818SOL     OW43460   1.870   8.059   5.378
13818SOL    HW143461  -9.258   8.031  16.442
13818SOL    HW243462   1.856   8.133   5.319
13819SOL     OW43463   7.881   4.770   4.882
13819SOL    HW143464  -3.225   4.761  -6.089
13819SOL    HW243465  -3.157 -39.294  -6.176
13820SOL     OW43466   9.044   7.630   5.111
13820SOL    HW143467   9.092   7.569   5.054
13820SOL    HW243468   9.106   7.701   5.127
13821SOL     OW43469   0.892   2.217   6.159
13821SOL    HW143470   0.915  13.349  28.247
13821SOL    HW243471   0.962   2.171  -4.835
13822SOL     OW43472   0.472   4.195   3.926
13822SOL    HW143473   0.530  15.160 -29.206
13822SOL    HW243474   0.529  15.304 -18.119
13823SOL     OW43475   0.549   1.539   5.979
13823SOL    HW143476   0.481   1.489  28.103
13823SOL    HW243477   0.503   1.608  28.012
13824SOL     OW43478   3.812  10.791   4.444
13824SOL    HW143479   3.738  21.851 -17.577
13824SOL    HW243480  25.861  -0.325 -17.685
13825SOL     OW43481   1.088   4.447   8.760
13825SOL    HW143482  12.150   4.407   8.844
13825SOL    HW243483   1.014   4.504  19.819
13826SOL     OW43484   0.213   8.636   2.832
13826SOL    HW143485   0.262   8.661   2.910
13826SOL    HW243486   0.256   8.683   2.760
13827SOL     OW43487   8.349   7.210   7.290
13827SOL    HW143488   8.391   7.139  -3.701
13827SOL    HW243489   8.421 -14.823   7.247
13828SOL     OW43490   3.017   7.332   7.207
13828SOL    HW143491   2.968  -3.744   7.133
13828SOL    HW243492   3.078  18.434  -3.872
13829SOL     OW43493  10.873  10.497  10.021
13829SOL    HW143494  10.916  10.574   9.984
13829SOL    HW243495  10.932  10.424  -1.037
13830SOL     OW43496   7.450   3.971   8.319
13830SOL    HW143497   7.509   3.935   8.252
13830SOL    HW243498  -3.532   3.996   8.391
13831SOL     OW43499   2.416   6.045  10.084
13831SOL    HW143500   2.382  -4.907  10.104
13831SOL    HW243501  -8.640   5.994  10.163
13832SOL     OW43502   5.009   9.120   7.896
13832SOL    HW143503   5.099   9.088   7.885
13832SOL    HW243504   4.974   9.067  -3.072
13833SOL     OW43505   1.793   3.804   7.429
13833SOL    HW143506   1.820   3.747   7.357
13833SOL    HW243507   1.775   3.888   7.387
13834SOL     OW43508   3.740   8.081  13.065
13834SOL    HW143509   3.730   8.086 -20.149
13834SOL    HW243510   3.831   8.106   2.042
13835SOL     OW43511   1.222   8.221   3.295
13835SOL    HW143512   1.176   8.206  14.252
13835SOL    HW243513   1.295   8.159   3.293
13836SOL     OW43514   7.956   5.810   9.370
13836SOL    HW143515   7.908  -5.148   9.353
13836SOL    HW243516   7.924  16.821   9.456
13837SOL     OW43517   2.199  10.451   6.636
13837SOL    HW143518   2.277  10.397  -4.389
13837SOL    HW243519   2.233  10.538   6.614
13838SOL     OW43520  10.354   9.774   3.726
13838SOL    HW143521  -0.734 -23.367  -7.392
13838SOL    HW243522  10.352  31.949   3.729
13839SOL     OW43523   6.643   2.548   0.591
13839SOL    HW143524   6.667   2.509  11.547
13839SOL    HW243525   6.586  -8.418   0.568
13840SOL     OW43526   4.790   4.422   4.941
13840SOL    HW143527  15.901   4.366  16.011
13840SOL    HW243528   4.776   4.395  -6.190
13841SOL     OW43529   9.820   4.497   4.802
13841SOL    HW143530   9.825  -6.449   4.821
13841SOL    HW243531   9.760   4.491   4.727
13842SOL     OW43532   0.469   6.508   7.680
13842SOL    HW143533  11.550 -15.631   7.742
13842SOL    HW243534   0.479   6.595   7.720
13843SOL     OW43535   4.166  10.589   8.573
13843SOL    HW143536   4.104  10.597   8.500
13843SOL    HW243537   4.202  10.677   8.584
13844SOL     OW43538   9.135   2.439   2.581
13844SOL    HW143539   9.207   2.424  -8.398
13844SOL    HW243540   9.056  35.543   2.632
13845SOL     OW43541   7.992   1.923   3.271
13845SOL    HW143542   7.930   1.992   3.250
13845SOL    HW243543   7.940   1.843   3.277
13846SOL     OW43544  10.072   4.852  10.577
13846SOL    HW143545  -1.016   4.776  10.611
13846SOL    HW243546  10.067  -6.123  10.647
13847SOL     OW43547   6.758   6.366   8.766
13847SOL    HW143548   6.787   6.457  -2.271
13847SOL    HW243549   6.736   6.345   8.857
13848SOL     OW43550   5.645   2.488   3.738
13848SOL    HW143551   5.700  24.646   3.732
13848SOL    HW243552   5.582   2.497   3.667
13849SOL     OW43553   5.660   5.825   9.031
13849SOL    HW143554   5.725   5.772  20.117
13849SOL    HW243555   5.657   5.787   8.943
13850SOL     OW43556   7.868   6.107   6.201
13850SOL    HW143557  -3.262   6.079   6.212
13850SOL    HW243558   7.864   6.178   6.137
13851SOL     OW43559   1.920   0.368   1.800
13851SOL    HW143560   1.902   0.316  12.918
13851SOL    HW243561  13.052   0.393   1.809
13852SOL     OW43562   3.532   3.241   4.094
13852SOL    HW143563   3.517   3.147   4.097
13852SOL    HW243564   3.444  14.319  -6.936
13853SOL     OW43565   2.514   8.603   7.225
13853SOL    HW143566  24.688  -2.444   7.230
13853SOL    HW243567  46.640   8.537 -14.792
13854SOL     OW43568   6.434  12.266   4.058
13854SOL    HW143569   6.393  -9.896   4.084
13854SOL    HW243570   6.483   1.205 -18.101
13855SOL     OW43571   8.666   2.872   9.191
13855SOL    HW143572   8.580   2.914  31.260
13855SOL    HW243573   8.673   2.853   9.284
13856SOL     OW43574   4.295  10.569   4.110
13856SOL    HW143575  -6.649  10.572   4.107
13856SOL    HW243576  -6.766  10.545   4.200
13857SOL     OW43577   0.325   9.163   7.894
13857SOL    HW143578   0.286  31.179   7.833
13857SOL    HW243579  22.420  20.280  -3.199
13858SOL     OW43580   8.705   8.386  11.370
13858SOL    HW143581  19.779  -2.685   0.414
13858SOL    HW243582   8.709  -2.558   0.337
13859SOL     OW43583   4.528   4.095   4.501
13859SOL    HW143584   4.528   3.999 -39.663
13859SOL    HW243585   4.615  -6.922   4.534
13860SOL     OW43586   6.904  10.827   0.752
13860SOL    HW143587   6.998  -0.198 -10.281
13860SOL    HW243588   6.878  -0.172   0.670
13861SOL     OW43589   9.367   9.442   4.310
13861SOL    HW143590   9.428  -1.553   4.250
13861SOL    HW243591   9.281  -1.576   4.275
13862SOL     OW43592   6.152  11.567   7.142
13862SOL    HW143593   6.068  11.613   7.143
13862SOL    HW243594  17.188 -10.570   7.218
13863SOL     OW43595   9.723   5.236   7.802
13863SOL    HW143596  20.683   5.227  -3.290
13863SOL    HW243597  -1.286  -5.715   7.785
13864SOL     OW43598  -0.375   6.516   4.519
13864SOL    HW143599  21.714  -4.602   4.573
13864SOL    HW243600  -0.290   6.525   4.475
13865SOL     OW43601   4.730   3.222  10.431
13865SOL    HW143602   4.708   3.279  -0.682
13865SOL    HW243603  -6.319   3.278  21.548
13866SOL     OW43604   2.949   9.561   1.309
13866SOL    HW143605   2.881  -1.535   1.272
13866SOL    HW243606   2.917  31.729   1.292
13867SOL     OW43607   7.863   2.394   2.523
13867SOL    HW143608   7.805  -8.706  24.647
13867SOL    HW243609   7.940   2.342  24.579
13868SOL     OW43610   1.914   7.817  10.095
13868SOL    HW143611   1.967  18.821  10.167
13868SOL    HW243612  23.964   7.739  10.046
13869SOL     OW43613   5.022  12.133   4.928
13869SOL    HW143614   5.036 -21.078   4.952
13869SOL    HW243615   4.954  12.130   4.860
13870SOL     OW43616   0.481   0.327   0.511
13870SOL    HW143617   0.422   0.294   0.579
13870SOL    HW243618   0.547   0.258   0.501
13871SOL     OW43619   9.288   6.786   5.734
13871SOL    HW143620 -12.794  28.848   5.829
13871SOL    HW243621  -1.817   6.854   5.720
13872SOL     OW43622  10.871   4.775   8.714
13872SOL    HW143623  -0.099  71.078   8.711
13872SOL    HW243624  10.888  26.803   8.793
13873SOL     OW43625   5.618   9.715   9.627
13873SOL    HW143626   5.552   9.679 -12.510
13873SOL    HW243627  16.730   9.740   9.569
13874SOL     OW43628   2.585   6.633   5.193
13874SOL    HW143629   2.642  -4.442   5.125
13874SOL    HW243630  24.718   6.631  16.312
13875SOL     OW43631   7.944   4.052   9.039
13875SOL    HW143632   7.910  26.056 -12.991
13875SOL    HW243633  18.945   4.044   8.952
13876SOL     OW43634   3.577   0.679   5.709
13876SOL    HW143635   3.599   0.769   5.686
13876SOL    HW243636   3.493  11.725  -5.285
13877SOL     OW43637   4.673   9.283   1.376
13877SOL    HW143638   4.655   9.197 -20.740
13877SOL    HW243639  15.639 -12.742   1.346
13878SOL     OW43640   9.100   5.201  11.737
13878SOL    HW143641  20.097  -5.785  11.804
13878SOL    HW243642  -1.885   5.263 -10.390
13879SOL     OW43643   3.403   0.219   8.790
13879SOL    HW143644   3.371   0.300  30.908
13879SOL    HW243645   3.389  33.271   8.858
13880SOL     OW43646   6.232   2.904   3.977
13880SOL    HW143647   6.226   2.867   3.889
13880SOL    HW243648  28.253   2.849   4.030
13881SOL     OW43649   8.697   8.526   2.225
13881SOL    HW143650  -2.374   8.538   2.315
13881SOL    HW243651 -13.288  19.550   2.234
13882SOL     OW43652   2.887   1.847  10.280
13882SOL    HW143653  14.019  -9.186  10.306
13882SOL    HW243654   2.882   1.764  10.233
13883SOL     OW43655   3.089   2.356   8.928
13883SOL    HW143656  -7.945 -19.752  -2.203
13883SOL    HW243657   3.028  13.469   8.926
13884SOL     OW43658   4.422   0.043   7.770
13884SOL    HW143659  15.454   0.138 -25.341
13884SOL    HW243660 -17.704   0.009   7.847
13885SOL     OW43661   3.588   3.617   7.423
13885SOL    HW143662   3.627  -7.450   7.506
13885SOL    HW243663 -18.452   3.703  29.485
13886SOL     OW43664   4.645   4.264   6.647
13886SOL    HW143665   4.638   4.335   6.710
13886SOL    HW243666   4.694   4.195  28.772
13887SOL     OW43667   3.222   9.608   4.355
13887SOL    HW143668   3.135 -12.464  48.552
13887SOL    HW243669   3.277   9.572  15.465
13888SOL     OW43670   5.911  11.625   1.940
13888SOL    HW143671   5.953  11.565   2.001
13888SOL    HW243672   5.879   0.529   1.869
13889SOL     OW43673   4.713   1.260   2.216
13889SOL    HW143674   4.645  23.342   2.149
13889SOL    HW243675   4.784  23.394   2.181
13890SOL     OW43676  -0.264  -0.006   1.657
13890SOL    HW143677  10.718   0.067   1.679
13890SOL    HW243678  -0.179  11.057  -9.343
13891SOL     OW43679   1.893   7.483   6.935
13891SOL    HW143680   1.831   7.419   6.898
13891SOL    HW243681  12.916  18.519   7.029
13892SOL     OW43682   2.362   0.388   7.604
13892SOL    HW143683   2.363   0.334   7.683
13892SOL    HW243684   2.438   0.445   7.612
13893SOL     OW43685   3.251   7.687   0.325
13893SOL    HW143686   3.320   7.708   0.262
13893SOL    HW243687  -7.808   7.771   0.368
13894SOL     OW43688   6.985   9.408   6.473
13894SOL    HW143689   6.951   9.342   6.413
13894SOL    HW243690 -15.065   9.357  -4.490
13895SOL     OW43691   1.130   0.459   5.004
13895SOL    HW143692   1.088  11.584   5.006
13895SOL    HW243693   1.134   0.436  -6.128
13896SOL     OW43694   8.670   2.153   4.694
13896SOL    HW143695  41.828   2.240   4.706
13896SOL    HW243696   8.578   2.166   4.718
13897SOL     OW43697   2.276   1.992   5.695
13897SOL    HW143698   2.281   1.915   5.639
13897SOL    HW243699   2.328   1.969   5.772
13898SOL     OW43700   5.475   9.442  10.294
13898SOL    HW143701   5.409  -1.664  -0.726
13898SOL    HW243702   5.434   9.498  10.228
13899SOL     OW43703   6.830   7.879  10.916
13899SOL    HW143704   6.810   7.796  10.872
13899SOL    HW243705   6.799  18.905  11.006
13900SOL     OW43706   1.132   7.590   5.131
13900SOL    HW143707   1.150  -3.359   5.108
13900SOL    HW243708   1.192   7.571   5.204
13901SOL     OW43709   1.916   4.999   0.747
13901SOL    HW143710   1.895  -6.060  11.695
13901SOL    HW243711   1.897  -6.122 -10.246
13902SOL     OW43712   2.986   5.641   8.485
13902SOL    HW143713   2.988   5.554 -35.633
13902SOL    HW243714   2.911   5.684   8.525
13903SOL     OW43715   2.715   4.185   9.608
13903SOL    HW143716   2.800   4.146  -1.455
13903SOL    HW243717  13.776  -6.768  -1.399
13904SOL     OW43718   9.388   4.203   0.345
13904SOL    HW143719  -1.741   4.177  11.364
13904SOL    HW243720   9.430   4.123  22.456
13905SOL     OW43721   6.492   1.178   8.736
13905SOL    HW143722   6.531  12.306   8.738
13905SOL    HW243723   6.563  12.160  19.801
13906SOL     OW43724   6.700   8.992   7.612
13906SOL    HW143725  -4.432  20.029   7.590
13906SOL    HW243726  50.862   8.973   7.706
13907SOL     OW43727   4.977   1.038   6.127
13907SOL    HW143728  26.985   1.056  17.105
13907SOL    HW243729   4.934   1.027   6.212
13908SOL     OW43730   2.858   6.313   9.147
13908SOL    HW143731   2.803   6.329   9.224
13908SOL    HW243732   2.902   6.396   9.131
13909SOL     OW43733   8.983  10.355   5.393
13909SOL    HW143734   9.004  10.402   5.473
13909SOL    HW243735   9.058  10.371 -27.784
13910SOL     OW43736  12.184   4.833   1.177
13910SOL    HW143737  12.227   4.831   1.091
13910SOL    HW243738  -9.982  -6.244   1.161
13911SOL     OW43739   2.890   3.969   1.965
13911SOL    HW143740  13.841   3.999 -20.134
13911SOL    HW243741   2.880   3.914  -8.997
13912SOL     OW43742   2.714   8.202   8.070
13912SOL    HW143743   2.707  -2.795   8.156
13912SOL    HW243744   2.646   8.244   8.018
13913SOL     OW43745   3.126   5.471   0.675
13913SOL    HW143746   3.160   5.488  11.802
13913SOL    HW243747   3.165   5.539   0.620
13914SOL     OW43748   0.852  11.658   6.240
13914SOL    HW143749   0.838 -10.344   6.185
13914SOL    HW243750  23.022 -10.414   6.268
13915SOL     OW43751   7.215   1.737   7.622
13915SOL    HW143752   7.299   1.782 -36.528
13915SOL    HW243753   7.188   1.722 -14.367
13916SOL     OW43754  10.193   4.580   1.224
13916SOL    HW143755  10.287   4.566   1.213
13916SOL    HW243756  -0.887  -6.513   1.155
13917SOL     OW43757   3.658   4.746   2.657
13917SOL    HW143758  14.644  15.810   2.582
13917SOL    HW243759  14.649  37.794  13.739
13918SOL     OW43760   4.773   4.602   1.955
13918SOL    HW143761  -6.255  -6.465  -9.176
13918SOL    HW243762   4.695   4.657   1.954
13919SOL     OW43763  10.129   5.369   7.270
13919SOL    HW143764  10.148  16.492   7.228
13919SOL    HW243765  10.170   5.375   7.356
13920SOL     OW43766   1.978   1.578   0.069
13920SOL    HW143767   1.893   1.539  22.128
13920SOL    HW243768  24.121  -9.528  22.123
13921SOL     OW43769   0.901   5.878  10.880
13921SOL    HW143770   0.839   5.890  10.951
13921SOL    HW243771   0.959   5.808 -11.169
13922SOL     OW43772   6.315   6.919   3.787
13922SOL    HW143773 -15.782  17.865  14.818
13922SOL    HW243774   6.410  40.043   3.794
13923SOL     OW43775   9.192   5.622   1.718
13923SOL    HW143776  -1.823   5.544   1.769
13923SOL    HW243777   9.129  -5.372   1.774
13924SOL     OW43778   4.420   1.179   0.935
13924SOL    HW143779  -6.566   1.230  12.036
13924SOL    HW243780   4.476   1.166   0.859
13925SOL     OW43781   4.341   7.547  -0.534
13925SOL    HW143782  15.461   7.498  10.523
13925SOL    HW243783   4.312   7.576  -0.447
13926SOL     OW43784   1.284   7.230   1.921
13926SOL    HW143785   1.265   7.200   1.832
13926SOL    HW243786   1.280   7.150   1.974
13927SOL     OW43787   3.307   0.864   0.560
13927SOL    HW143788   3.389   0.900  22.673
13927SOL    HW243789   3.273   0.932   0.502
13928SOL     OW43790   6.937   9.939   3.835
13928SOL    HW143791  17.960   9.845   3.823
13928SOL    HW243792  29.109   9.945   3.855
13929SOL     OW43793   7.247   3.515   8.221
13929SOL    HW143794 -14.891   3.456  30.254
13929SOL    HW243795   7.266   3.584   8.158
13930SOL     OW43796   3.289   9.288   8.463
13930SOL    HW143797  -7.746  20.422   8.446
13930SOL    HW243798  25.396   9.280   8.554
13931SOL     OW43799  10.333   4.448   9.121
13931SOL    HW143800  10.395   4.391  20.207
13931SOL    HW243801  10.266  15.427  20.127
13932SOL     OW43802   3.924   3.682   4.879
13932SOL    HW143803   3.950   3.703   4.789
13932SOL    HW243804   3.923  14.806   4.923
13933SOL     OW43805   5.029   3.379   7.724
13933SOL    HW143806  16.082   3.433  18.842
13933SOL    HW243807  -6.040   3.441   7.658
13934SOL     OW43808   3.778   6.773   2.075
13934SOL    HW143809   3.870  17.811 -20.030
13934SOL    HW243810  -7.277  28.765   2.111
13935SOL     OW43811   7.570   7.931   8.413
13935SOL    HW143812   7.598   7.860  19.511
13935SOL    HW243813   7.564  -3.151   8.327
13936SOL     OW43814  11.026   1.768   4.052
13936SOL    HW143815  11.083   1.780  15.168
13936SOL    HW243816  10.995   1.678  15.099
13937SOL     OW43817   8.709   2.560   2.560
13937SOL    HW143818 -13.345   2.641  24.684
13937SOL    HW243819   8.616   2.549   2.582
13938SOL     OW43820   8.922   1.691   5.021
13938SOL    HW143821  20.047  12.772   5.004
13938SOL    HW243822   8.871   1.711   4.943
13939SOL     OW43823   1.041   3.326   6.575
13939SOL    HW143824  12.081   3.257  17.682
13939SOL    HW243825  23.051   3.300   6.515
13940SOL     OW43826  10.921   3.821   4.475
13940SOL    HW143827  -0.112   3.756   4.404
13940SOL    HW243828  -0.212   3.835   4.486
13941SOL     OW43829   3.032   6.211  10.314
13941SOL    HW143830   2.972   6.179  -0.657
13941SOL    HW243831   3.114   6.227  -0.679
13942SOL     OW43832   8.025  10.501   2.092
13942SOL    HW143833   8.018  21.635   2.105
13942SOL    HW243834  30.150 -33.667   2.009
13943SOL     OW43835   4.419   1.797  10.916
13943SOL    HW143836   4.424   1.892  10.905
13943SOL    HW243837   4.508   1.766  10.899
13944SOL     OW43838   5.431   7.794   8.727
13944SOL    HW143839 -16.687   7.708   8.741
13944SOL    HW243840   5.432   7.834  -2.225
13945SOL     OW43841   5.241   4.247   5.938
13945SOL    HW143842  16.215   4.308   5.906
13945SOL    HW243843  16.250   4.161   5.910
13946SOL     OW43844  10.140   1.512  12.260
13946SOL    HW143845  10.198   1.559  -9.879
13946SOL    HW243846  10.134  -9.471   1.297
13947SOL     OW43847   1.303   4.695   2.618
13947SOL    HW143848  12.263 -17.435   2.631
13947SOL    HW243849   1.348   4.651  24.625
13948SOL     OW43850   6.019   7.197   9.056
13948SOL    HW143851  17.100   7.153   9.130
13948SOL    HW243852   5.957   7.132  31.101
13949SOL     OW43853   9.162   0.301   3.011
13949SOL    HW143854   9.142   0.389  14.082
13949SOL    HW243855  31.329   0.307   2.974
13950SOL     OW43856   8.179   7.003  10.246
13950SOL    HW143857  -2.826   6.971  10.330
13950SOL    HW243858   8.096  29.036  10.236
13951SOL     OW43859   8.613   8.157  11.146
13951SOL    HW143860   8.677   8.130   0.041
13951SOL    HW243861   8.538   8.098  11.132
13952SOL     OW43862   8.581  10.885   7.062
13952SOL    HW143863  19.642  -0.062   7.048
13952SOL    HW243864  -2.438  -0.170   7.154
13953SOL     OW43865   3.580   4.175   5.862
13953SOL    HW143866   3.638  37.369   5.847
13953SOL    HW243867   3.556   4.181   5.954
13954SOL     OW43868   2.140  10.962   1.080
13954SOL    HW143869  -8.857  10.985   1.162
13954SOL    HW243870   2.194  10.892   1.044
13955SOL     OW43871   9.323   2.085   4.989
13955SOL    HW143872   9.267   2.021   5.033
13955SOL    HW243873   9.290 -30.948   5.019
13956SOL     OW43874   3.440   2.486   7.217
13956SOL    HW143875   3.520   2.512   7.172
13956SOL    HW243876  36.488   2.510   7.157
13957SOL     OW43877   1.322   8.865  10.695
13957SOL    HW143878   1.347   8.778  10.662
13957SOL    HW243879  -9.654  -2.155  10.764
13958SOL     OW43880   8.056   8.729   4.074
13958SOL    HW143881   8.074   8.710 -18.097
13958SOL    HW243882   7.974   8.778   4.073
13959SOL     OW43883   6.389   8.892   3.772
13959SOL    HW143884   6.324   8.891   3.843
13959SOL    HW243885  28.432   8.952   3.707
13960SOL     OW43886   1.807   7.643   4.461
13960SOL    HW143887   1.834   7.670   4.549
13960SOL    HW243888   1.878  -3.452  48.588
13961SOL     OW43889   4.065   7.024   4.690
13961SOL    HW143890   4.028   6.951   4.640
13961SOL    HW243891   4.021   7.020  15.814
13962SOL     OW43892   4.067   7.207   7.988
13962SOL    HW143893   4.053 -25.965 -25.209
13962SOL    HW243894   4.086  -3.896 -14.022
13963SOL     OW43895   5.107  10.990   4.364
13963SOL    HW143896   5.176 -11.149   4.391
13963SOL    HW243897  27.188 -11.018  15.469
13964SOL     OW43898   1.933   9.002   3.630
13964SOL    HW143899   2.019  -2.002   3.608
13964SOL    HW243900   1.916  -2.102   3.562
13965SOL     OW43901   7.461   5.470   9.280
13965SOL    HW143902   7.465   5.534  31.430
13965SOL    HW243903   7.484   5.387   9.322
13966SOL     OW43904   8.542  -0.071  12.870
13966SOL    HW143905  19.532   0.005   1.862
13966SOL    HW243906   8.509  21.992  -9.297
13967SOL     OW43907   3.451   3.867   8.405
13967SOL    HW143908   3.390   3.847   8.476
13967SOL    HW243909 -18.580   3.944   8.436
13968SOL     OW43910   5.788   1.979   8.537
13968SOL    HW143911   5.793  46.172  -2.413
13968SOL    HW243912  16.820  12.924   8.549
13969SOL     OW43913   5.886   0.126   8.842
13969SOL    HW143914   5.974   0.159   8.861
13969SOL    HW243915   5.833   0.153   8.917
13970SOL     OW43916   2.457   1.680   9.637
13970SOL    HW143917   2.427  23.849   9.624
13970SOL    HW243918   2.390   1.641   9.694
13971SOL     OW43919   9.427   8.052   2.537
13971SOL    HW143920   9.471   8.073   2.619
13971SOL    HW243921   9.413   8.137   2.495
13972SOL     OW43922   6.066   9.474   5.750
13972SOL    HW143923   6.065   9.411  27.758
13972SOL    HW243924  -4.992   9.422 -16.251
13973SOL     OW43925   0.639   0.310   6.697
13973SOL    HW143926   0.554   0.296   6.656
13973SOL    HW243927   0.700   0.319   6.624
13974SOL     OW43928   4.030   9.309   4.274
13974SOL    HW143929   4.056  -1.794   4.341
13974SOL    HW243930   4.055   9.394   4.310
13975SOL     OW43931   7.238   6.577   8.752
13975SOL    HW143932  18.201   6.621  41.832
13975SOL    HW243933   7.210   6.554  -2.199
13976SOL     OW43934  10.565   3.317   6.231
13976SOL    HW143935  21.654   3.351   6.156
13976SOL    HW243936  -0.556  -7.756  17.233
13977SOL     OW43937   0.806   1.578   6.121
13977SOL    HW143938   0.826   1.488   6.146
13977SOL    HW243939 -10.312   1.572   6.067
13978SOL     OW43940   5.247   0.424   5.244
13978SOL    HW143941   5.161   0.383  27.332
13978SOL    HW243942   5.291   0.406   5.327
13979SOL     OW43943   4.149  -1.159   3.593
13979SOL    HW143944  -6.932  -1.231  25.720
13979SOL    HW243945  15.223  31.918  69.751
13980SOL     OW43946   5.735   7.734   2.149
13980SOL    HW143947 -16.379   7.807   2.099
13980SOL    HW243948   5.801 -36.386  35.326
13981SOL     OW43949   4.984   1.095   6.973
13981SOL    HW143950  27.013   1.056   7.045
13981SOL    HW243951  -5.980   1.038  18.002
13982SOL     OW43952  -0.852   3.253   8.829
13982SOL    HW143953  21.263   3.266 -13.162
13982SOL    HW243954  10.213   3.332   8.781
13983SOL     OW43955  -0.489   3.322   1.355
13983SOL    HW143956  10.525   3.388  -9.749
13983SOL    HW243957  -0.494 -29.753   1.439
13984SOL     OW43958   1.814  11.300  12.053
13984SOL    HW143959   1.833  11.351  11.975
13984SOL    HW243960  23.977   0.250  -9.982
13985SOL     OW43961   3.179   6.283   6.549
13985SOL    HW143962 -18.837   6.354   6.535
13985SOL    HW243963   3.198   6.220   6.480
13986SOL     OW43964  -0.201  -0.377   8.987
13986SOL    HW143965  -0.147  10.700   9.056
13986SOL    HW243966  10.748  -0.360   9.015
13987SOL     OW43967   8.738   3.601   1.208
13987SOL    HW143968 -13.330 -18.447  -9.922
13987SOL    HW243969 -13.361   3.680   1.258
13988SOL     OW43970   6.348   0.487   9.044
13988SOL    HW143971  -4.766   0.520  20.135
13988SOL    HW243972  -4.704   0.524   8.957
13989SOL     OW43973   8.667  -0.307   6.690
13989SOL    HW143974  19.737  -0.218   6.673
13989SOL    HW243975  30.807  32.756   6.641
13990SOL     OW43976   9.584  11.011  11.996
13990SOL    HW143977   9.612   0.009   1.040
13990SOL    HW243978  -1.375  22.015   0.917
13991SOL     OW43979   5.291   5.888   4.833
13991SOL    HW143980   5.380   5.906 -28.256
13991SOL    HW243981   5.247   5.973 -17.244
13992SOL     OW43982   0.746   0.428   5.441
13992SOL    HW143983   0.699  22.441   5.390
13992SOL    HW243984   0.760   0.387   5.526
13993SOL     OW43985   3.748   9.838   7.837
13993SOL    HW143986  14.832   9.827   7.754
13993SOL    HW243987   3.660   9.804   7.822
13994SOL     OW43988   8.963   3.501   9.810
13994SOL    HW143989  19.955   3.560   9.868
13994SOL    HW243990  20.095   3.521  20.866
13995SOL     OW43991   3.454   2.182   5.670
13995SOL    HW143992   3.509   2.125   5.725
13995SOL    HW243993   3.515   2.218   5.605
13996SOL     OW43994   4.345   6.274   8.493
13996SOL    HW143995   4.310   6.337 -13.523
13996SOL    HW243996   4.424  17.356   8.458
13997SOL     OW43997   8.936   4.717   9.686
13997SOL    HW143998   9.007  26.751   9.640
13997SOL    HW243999   8.976   4.797   9.720
13998SOL     OW44000   5.232   8.416   9.066
13998SOL    HW144001   5.261   8.362   9.140
13998SOL    HW244002  38.430   8.430   9.015
13999SOL     OW44003   4.203  10.681  10.557
13999SOL    HW144004   4.174  -0.434  10.506
13999SOL    HW244005  15.175  10.691  10.625
14000SOL     OW44006   8.337   0.530   6.997
14000SOL    HW144007  19.370   0.606   6.938
14000SOL    HW244008   8.394  11.509   6.951
14001SOL     OW44009   7.568   1.603   4.438
14001SOL    HW144010   7.507   1.559   4.378
14001SOL    HW244011   7.650  12.647 -17.690
14002SOL     OW44012   6.981   8.037   6.050
14002SOL    HW144013   6.913  -3.029   5.988
14002SOL    HW244014   7.033   7.958   6.065
14003SOL     OW44015   9.417   9.075  11.951
14003SOL    HW144016   9.332  -1.921   0.904
14003SOL    HW244017  31.492   9.029 -10.045
14004SOL     OW44018   1.669   8.263   2.469
14004SOL    HW144019   1.638   8.293 -19.695
14004SOL    HW244020  12.799  -2.803   2.454
14005SOL     OW44021   7.080   6.795   7.346
14005SOL    HW144022  18.142   6.712   7.388
14005SOL    HW244023   6.993   6.780   7.310
14006SOL     OW44024  10.141   8.355   9.278
14006SOL    HW144025  10.057   8.386  -1.794
14006SOL    HW244026  10.163  -2.759   9.221
14007SOL     OW44027  12.448   6.052  -1.391
14007SOL    HW144028 -20.577  17.075   9.638
14007SOL    HW244029  12.415   5.975  20.734
14008SOL     OW44030  -0.261   2.810   0.242
14008SOL    HW144031  10.768   2.798  22.227
14008SOL    HW244032  -0.267   2.905   0.255
14009SOL     OW44033   0.699   8.374   2.798
14009SOL    HW144034 -10.325  -2.738  -8.303
14009SOL    HW244035   0.605  19.431   2.789
14010SOL     OW44036   2.655   6.252   8.078
14010SOL    HW144037   2.579   6.194   8.083
14010SOL    HW244038  -8.423  17.378   8.061
14011SOL     OW44039   2.987   9.128   2.906
14011SOL    HW144040   3.007   9.198  -8.071
14011SOL    HW244041   3.053   9.138   2.837
14012SOL     OW44042   7.763  -0.402   7.678
14012SOL    HW144043  40.796  10.611   7.647
14012SOL    HW244044  18.849  -0.484   7.694
14013SOL     OW44045   7.392   9.258   5.856
14013SOL    HW144046   7.310   9.297   5.885
14013SOL    HW244047   7.460   9.316   5.891
14014SOL     OW44048   9.595   5.057   6.250
14014SOL    HW144049   9.535  16.133 -15.894
14014SOL    HW244050 -34.560   4.963  -4.810
14015SOL     OW44051   7.955   7.567   5.047
14015SOL    HW144052   7.977   7.540  15.997
14015SOL    HW244053   7.878   7.515   5.069
14016SOL     OW44054  10.018   3.220   8.040
14016SOL    HW144055   9.977   3.135  -3.017
14016SOL    HW244056  10.088   3.201 -25.016
14017SOL     OW44057   7.154   7.607   8.001
14017SOL    HW144058  -3.795 -14.495  -3.062
14017SOL    HW244059  -3.877   7.679   8.064
14018SOL     OW44060   8.028   7.326   3.331
14018SOL    HW144061  -3.093  -3.756   3.359
14018SOL    HW244062  19.060   7.416   3.362
14019SOL     OW44063   2.321  -0.386   7.106
14019SOL    HW144064  13.343  -0.459   7.165
14019SOL    HW244065  -8.722  10.731   7.162
14020SOL     OW44066   6.066   1.271   7.850
14020SOL    HW144067  17.110   1.179  -3.162
14020SOL    HW244068   6.016   1.314   7.920
14021SOL     OW44069   2.182  10.093   3.336
14021SOL    HW144070  13.171  -1.020   3.301
14021SOL    HW244071   2.146  10.108  -7.616
14022SOL     OW44072   7.008   0.022   4.821
14022SOL    HW144073   7.054   0.034 -17.341
14022SOL    HW244074 -37.187   0.108   4.840
14023SOL     OW44075   0.024   5.677   0.467
14023SOL    HW144076   0.003  -5.269  11.507
14023SOL    HW244077  -0.004   5.646  22.461
14024SOL     OW44078   3.149   1.339   9.280
14024SOL    HW144079  -7.906   1.412   9.339
14024SOL    HW244080 -18.904  -9.660   9.197
14025SOL     OW44081   0.098   6.507  10.981
14025SOL    HW144082   0.073   6.599 -22.139
14025SOL    HW244083   0.189   6.507  -0.030
14026SOL     OW44084   5.851   8.860   2.870
14026SOL    HW144085   5.792   8.833  -8.241
14026SOL    HW244086   5.907   8.784 -19.195
14027SOL     OW44087  10.516   5.945   2.656
14027SOL    HW144088  10.547   5.970  -8.470
14027SOL    HW244089  10.538   6.020 -30.407
14028SOL     OW44090   5.859   7.857   4.925
14028SOL    HW144091   5.880  -3.124  -6.042
14028SOL    HW244092   5.938   7.804  15.953
14029SOL     OW44093   3.038   8.583   5.889
14029SOL    HW144094  -7.994   8.491  16.903
14029SOL    HW244095   3.128   8.611   5.904
14030SOL     OW44096  10.730   9.942   8.914
14030SOL    HW144097  10.697 -12.227  -2.133
14030SOL    HW244098  10.742 -23.163   9.009
14031SOL     OW44099   0.669   4.289   3.572
14031SOL    HW144100   0.598  -6.748   3.508
14031SOL    HW244101   0.682   4.195  14.630
14032SOL     OW44102  13.499   4.383   4.935
14032SOL    HW144103  13.459  15.459  15.895
14032SOL    HW244104 -30.697  -6.744  27.023
14033SOL     OW44105   2.607   0.140   3.186
14033SOL    HW144106   2.589  22.311   3.163
14033SOL    HW244107  13.648  11.134   3.102
14034SOL     OW44108   1.274   7.055   4.639
14034SOL    HW144109  12.268   7.059   4.555
14034SOL    HW244110   1.240  18.015   4.681
14035SOL     OW44111   3.174   5.200   6.698
14035SOL    HW144112  14.128  -5.854   6.737
14035SOL    HW244113   3.235   5.200  17.811
14036SOL     OW44114  10.176   6.289   8.706
14036SOL    HW144115  10.113   6.241   8.760
14036SOL    HW244116  10.242   6.321   8.768
14037SOL     OW44117   6.322   4.303   4.467
14037SOL    HW144118   6.313   4.343   4.554
14037SOL    HW244119   6.413  -6.721   4.442
14038SOL     OW44120   8.120   9.775  10.856
14038SOL    HW144121   8.039   9.773  -0.235
14038SOL    HW244122   8.181   9.825  10.802
14039SOL     OW44123  10.028   6.216   1.224
14039SOL    HW144124   9.966   6.288   1.215
14039SOL    HW244125  10.090  17.267   1.152
14040SOL     OW44126   8.659   9.347  10.320
14040SOL    HW144127   8.604   9.419  10.349
14040SOL    HW244128   8.614   9.268  10.350
14041SOL     OW44129   9.215   9.589   4.876
14041SOL    HW144130  -1.744   9.561  -6.206
14041SOL    HW244131   9.145  20.587  37.944
14042SOL     OW44132   2.491   7.569   1.968
14042SOL    HW144133   2.473   7.501  13.073
14042SOL    HW244134  13.501   7.531   1.885
14043SOL     OW44135   4.262   8.417   4.224
14043SOL    HW144136   4.222  19.489   4.143
14043SOL    HW244137 -28.906   8.337   4.243
14044SOL     OW44138   7.427  10.076   6.488
14044SOL    HW144139   7.427  10.118   6.574
14044SOL    HW244140  18.510  10.140   6.430
14045SOL     OW44141   7.941   8.897   4.562
14045SOL    HW144142  29.979  -2.071  37.633
14045SOL    HW244143 -14.073   8.862   4.501
14046SOL     OW44144   6.987  10.366  10.320
14046SOL    HW144145   7.070  -0.699  10.361
14046SOL    HW244146   6.935  21.442  -0.648
14047SOL     OW44147   8.013   9.558   1.736
14047SOL    HW144148   7.981   9.510  12.852
14047SOL    HW244149   8.028  -1.392   1.769
14048SOL     OW44150   5.976   7.200   8.367
14048SOL    HW144151   5.968   7.108   8.343
14048SOL    HW244152  17.109   7.212  19.424
14049SOL     OW44153   9.167   2.184   9.866
14049SOL    HW144154   9.193   2.158   9.778
14049SOL    HW244155   9.238   2.153   9.923
14050SOL     OW44156   8.132   6.862   6.002
14050SOL    HW144157   8.126   6.951   5.967
14050SOL    HW244158   8.225   6.850  17.062
14051SOL     OW44159   9.297   7.521  10.182
14051SOL    HW144160  20.332   7.574  10.262
14051SOL    HW244161   9.207  18.533  10.167
14052SOL     OW44162   3.162   1.843  10.335
14052SOL    HW144163   3.207   1.825 -11.827
14052SOL    HW244164   3.218   1.908  10.379
14053SOL     OW44165   7.378   6.946  10.235
14053SOL    HW144166 -14.791   6.926  10.260
14053SOL    HW244167   7.371  18.061  10.176
14054SOL     OW44168   8.089   5.485   3.078
14054SOL    HW144169   8.053 -27.558 -30.086
14054SOL    HW244170   8.063   5.409   3.025
14055SOL     OW44171  11.464   5.884   8.528
14055SOL    HW144172   0.485   5.900   8.600
14055SOL    HW244173  11.386  28.014  19.589
14056SOL     OW44174   0.083   3.741   0.368
14056SOL    HW144175  11.155   3.798   0.438
14056SOL    HW244176   0.160   3.722  11.354
14057SOL     OW44177   0.688   1.763   6.434
14057SOL    HW144178   0.747   1.776  17.549
14057SOL    HW244179   0.608   1.810   6.459
14058SOL     OW44180   9.998   7.772   6.664
14058SOL    HW144181  21.041  18.837   6.571
14058SOL    HW244182  10.050  18.731  28.747
14059SOL     OW44183   9.445   4.230   1.114
14059SOL    HW144184   9.409  -6.760   1.187
14059SOL    HW244185   9.503 -17.788   1.068
14060SOL     OW44186   8.932   2.483   3.365
14060SOL    HW144187   8.860   2.471  14.467
14060SOL    HW244188   8.947   2.578  25.443
14061SOL     OW44189   4.323   1.106   5.631
14061SOL    HW144190  15.364   1.027   5.577
14061SOL    HW244191  15.273  12.177   5.625
14062SOL     OW44192   3.857   8.175   9.647
14062SOL    HW144193  36.894  -2.818 -12.447
14062SOL    HW244194  -7.141   8.171   9.561
14063SOL     OW44195  10.981   8.082   1.334
14063SOL    HW144196  11.072  19.129  23.442
14063SOL    HW244197  10.972   7.990   1.306
14064SOL     OW44198   2.303   7.497  11.052
14064SOL    HW144199   2.369   7.456 -11.083
14064SOL    HW244200   2.353   7.559  11.106
14065SOL     OW44201   8.137   1.712   2.050
14065SOL    HW144202   8.210   1.677   2.101
14065SOL    HW244203   8.158  12.845   2.039
14066SOL     OW44204  -0.693   0.422  10.850
14066SOL    HW144205  -0.749  11.493  10.921
14066SOL    HW244206  21.351  22.544  -0.268
14067SOL     OW44207   7.891   5.580  10.049
14067SOL    HW144208   7.877  -5.552  10.030
14067SOL    HW244209   7.810   5.609  10.091
14068SOL     OW44210   5.597   0.795   4.058
14068SOL    HW144211  27.764   0.811   4.093
14068SOL    HW244212   5.592   0.700   4.046
14069SOL     OW44213   6.967   7.464   2.405
14069SOL    HW144214  -3.996 -14.587 -19.724
14069SOL    HW244215   6.992  -3.565   2.497
14070SOL     OW44216   6.678  10.334   7.879
14070SOL    HW144217  17.801  21.348   7.840
14070SOL    HW244218   6.695  10.336   7.973
14071SOL     OW44219   8.733   7.867   3.138
14071SOL    HW144220   8.668   7.883  14.246
14071SOL    HW244221   8.712  -3.259   3.103
14072SOL     OW44222  11.402   1.132   9.647
14072SOL    HW144223 -21.787   1.076   9.613
14072SOL    HW244224  11.471   1.071   9.671
14073SOL     OW44225   3.933   4.515  10.084
14073SOL    HW144226  14.927   4.460  21.187
14073SOL    HW244227   3.906   4.604  10.107
14074SOL     OW44228   8.446   2.768   6.907
14074SOL    HW144229   8.387   2.830  -4.174
14074SOL    HW244230   8.531   2.812   6.907
14075SOL     OW44231   7.643   0.532   6.043
14075SOL    HW144232   7.665  11.504   6.107
14075SOL    HW244233  -3.489   0.517   6.022
14076SOL     OW44234   4.418   1.174   1.548
14076SOL    HW144235  48.486   1.196   1.569
14076SOL    HW244236  15.504   1.182   1.632
14077SOL     OW44237   8.653   9.987   0.600
14077SOL    HW144238   8.683  21.035  11.549
14077SOL    HW244239  -2.333   9.917   0.636
14078SOL     OW44240   2.662   1.564   2.094
14078SOL    HW144241   2.601   1.616   2.041
14078SOL    HW244242   2.667   1.610   2.177
14079SOL     OW44243   4.517   5.279   7.915
14079SOL    HW144244 -17.546   5.369  -3.152
14079SOL    HW244245   4.434   5.283   7.962
14080SOL     OW44246   2.338   3.456   4.753
14080SOL    HW144247  13.357   3.493   4.839
14080SOL    HW244248  35.372   3.453   4.708
14081SOL     OW44249   1.717   2.951   3.944
14081SOL    HW144250   1.799   2.957  15.033
14081SOL    HW244251   1.737   2.889  25.952
14082SOL     OW44252   4.698   6.275   9.002
14082SOL    HW144253   4.625  -4.733   8.950
14082SOL    HW244254  26.736   6.229   9.076
14083SOL     OW44255   7.746   7.906   5.976
14083SOL    HW144256  18.691   7.895   5.974
14083SOL    HW244257   7.760   7.989   6.021
14084SOL     OW44258   8.482   2.454   9.710
14084SOL    HW144259  19.535   2.359   9.706
14084SOL    HW244260   8.501   2.477   9.801
14085SOL     OW44261   1.822   2.836   3.719
14085SOL    HW144262   1.837  -8.297   3.702
14085SOL    HW244263   1.830  -8.162   3.633
14086SOL     OW44264   8.705   0.189  10.423
14086SOL    HW144265   8.765   0.139  10.478
14086SOL    HW244266   8.680   0.128  10.353
14087SOL     OW44267   7.375   3.058   9.708
14087SOL    HW144268   7.395   3.026  -1.419
14087SOL    HW244269  18.418   3.154   9.701
14088SOL     OW44270   6.737   3.958   5.268
14088SOL    HW144271 -15.276   4.024  -5.795
14088SOL    HW244272   6.709   3.982 -16.723
14089SOL     OW44273   1.148   8.997   5.316
14089SOL    HW144274   1.189  19.982  38.368
14089SOL    HW244275   1.067  20.067  16.316
14090SOL     OW44276   8.683   0.793   3.094
14090SOL    HW144277   8.733   0.872   3.118
14090SOL    HW244278   8.592   0.822  -7.950
14091SOL     OW44279   9.627   9.069   1.699
14091SOL    HW144280   9.622  42.237   1.781
14091SOL    HW244281   9.563   9.111  12.681
14092SOL     OW44282   6.002   7.913   5.454
14092SOL    HW144283  -4.977   7.965   5.402
14092SOL    HW244284   5.977   7.970   5.527
14093SOL     OW44285   1.373   1.989   2.213
14093SOL    HW144286   1.458  -9.010   2.196
14093SOL    HW244287   1.312   2.063 -19.857
14094SOL     OW44288   5.199   2.220   3.256
14094SOL    HW144289   5.290   2.223   3.286
14094SOL    HW244290  16.223  -8.912 -18.843
14095SOL     OW44291   8.679   9.179  12.447
14095SOL    HW144292   8.638   9.235  12.381
14095SOL    HW244293   8.759 -12.853 -20.647
14096SOL     OW44294   2.752   0.101  -0.770
14096SOL    HW144295   2.703   0.096  21.390
14096SOL    HW244296   2.842   0.122  21.336
14097SOL     OW44297   8.808   5.521   2.341
14097SOL    HW144298   8.750   5.445   2.349
14097SOL    HW244299   8.749   5.594   2.326
14098SOL     OW44300   1.130   2.919   9.212
14098SOL    HW144301   1.085   2.874   9.140
14098SOL    HW244302   1.219  13.923   9.211
14099SOL     OW44303  11.309   5.403  -1.201
14099SOL    HW144304  11.255  -5.701  20.832
14099SOL    HW244305   0.208   5.450  -1.145
14100SOL     OW44306   5.706   9.122   5.472
14100SOL    HW144307   5.617  20.128  16.502
14100SOL    HW244308   5.725 -12.966   5.566
14101SOL     OW44309  10.603   5.401   4.162
14101SOL    HW144310  10.540   5.473   4.176
14101SOL    HW244311  10.684   5.433   4.202
14102SOL     OW44312  11.194   4.656   2.635
14102SOL    HW144313  11.282   4.685   2.611
14102SOL    HW244314   0.114   4.733   2.675
14103SOL     OW44315   7.407   3.490   9.508
14103SOL    HW144316   7.463  25.510   9.457
14103SOL    HW244317   7.391   3.564   9.449
14104SOL     OW44318   6.607  10.172   8.384
14104SOL    HW144319  -4.424  10.254  -2.607
14104SOL    HW244320   6.693  10.131  -2.651
14105SOL     OW44321   4.361   1.220   5.190
14105SOL    HW144322  15.460   1.294   5.201
14105SOL    HW244323  15.451   1.157   5.138
14106SOL     OW44324   0.838   4.823   7.551
14106SOL    HW144325  33.884  37.883   7.532
14106SOL    HW244326   0.817   4.903   7.503
14107SOL     OW44327   3.964   9.918   9.394
14107SOL    HW144328   3.903   9.944   9.325
14107SOL    HW244329  -7.037   9.836 -12.717
14108SOL     OW44330  10.243   3.686   7.189
14108SOL    HW144331  -0.872   3.742 -14.870
14108SOL    HW244332  10.262  -7.398  -3.768
14109SOL     OW44333   5.041   5.076   5.863
14109SOL    HW144334   5.013   5.097  -5.087
14109SOL    HW244335   5.099   5.148  -5.201
14110SOL     OW44336   1.275   0.381   7.269
14110SOL    HW144337   1.342   0.325   7.228
14110SOL    HW244338   1.311   0.402   7.355
14111SOL     OW44339  10.663  10.452   1.718
14111SOL    HW144340  10.751  10.470  12.723
14111SOL    HW244341  10.649  10.522  23.861
14112SOL     OW44342   6.075   8.867  10.311
14112SOL    HW144343   6.032   8.935  10.258
14112SOL    HW244344   6.169   8.885  21.343
14113SOL     OW44345  10.993   7.093   4.024
14113SOL    HW144346  -0.118   7.029   4.018
14113SOL    HW244347  10.986   7.145  -7.096
14114SOL     OW44348  10.098   3.940   1.397
14114SOL    HW144349  10.129   3.885  12.508
14114SOL    HW244350  10.005   3.919  12.429
14115SOL     OW44351   6.175   7.463   6.216
14115SOL    HW144352   6.229   7.529   6.260
14115SOL    HW244353   6.149  -3.637   6.286
14116SOL     OW44354   6.560  10.743   3.161
14116SOL    HW144355   6.648  10.781   3.157
14116SOL    HW244356  -4.509 -11.337   3.070
14117SOL     OW44357   0.719   6.532   9.249
14117SOL    HW144358  22.791   6.563   9.159
14117SOL    HW244359   0.745   6.609   9.300
14118SOL     OW44360  10.789   4.974   0.143
14118SOL    HW144361  10.759   4.922   0.068
14118SOL    HW244362  10.879   4.945  22.237
14119SOL     OW44363   7.485   1.715   0.861
14119SOL    HW144364   7.557  23.855   0.876
14119SOL    HW244365   7.475   1.713 -10.274
14120SOL     OW44366   5.833   2.893   3.689
14120SOL    HW144367  49.969   2.978   3.650
14120SOL    HW244368   5.895   2.915   3.758
14121SOL     OW44369   7.467   6.164  10.055
14121SOL    HW144370   7.422  28.160  21.106
14121SOL    HW244371   7.555   6.148  10.086
14122SOL     OW44372   8.205  10.288   7.175
14122SOL    HW144373   8.249  -0.810  -3.802
14122SOL    HW244374   8.276  10.329   7.127
14123SOL     OW44375   3.390   6.209   2.838
14123SOL    HW144376  14.436   6.185  -8.109
14123SOL    HW244377   3.407 -38.030   2.791
14124SOL     OW44378   5.721   6.377   1.482
14124SOL    HW144379   5.781   6.335   1.543
14124SOL    HW244380   5.772   6.385   1.401
14125SOL     OW44381   6.992   4.405   3.619
14125SOL    HW144382   6.935  15.436   3.542
14125SOL    HW244383   7.028   4.494   3.612
14126SOL     OW44384  14.426   1.230   7.819
14126SOL    HW144385  -7.700   1.246   7.901
14126SOL    HW244386 -29.683  12.190 -14.244
14127SOL     OW44387  10.735   3.672   9.714
14127SOL    HW144388  -0.400  14.697   9.713
14127SOL    HW244389  10.753   3.704  -1.237
14128SOL     OW44390   6.577   7.607  10.181
14128SOL    HW144391   6.645  -3.473  10.128
14128SOL    HW244392   6.587   7.701  10.165
14129SOL     OW44393   5.536   8.666   1.175
14129SOL    HW144394  27.661  19.624   1.153
14129SOL    HW244395   5.539  19.757   1.094
14130SOL     OW44396  11.651   8.895   0.066
14130SOL    HW144397  11.691   8.980   0.080
14130SOL    HW244398   0.646  19.880   0.137
14131SOL     OW44399   1.975   3.393   4.251
14131SOL    HW144400   2.010   3.347   4.327
14131SOL    HW244401   1.992   3.486  15.309
14132SOL     OW44402   9.302   1.863   5.326
14132SOL    HW144403   9.227   1.894 -16.804
14132SOL    HW244404   9.344  23.878  -5.770
14133SOL     OW44405   9.662   5.235   3.981
14133SOL    HW144406  20.735   5.317   3.943
14133SOL    HW244407   9.643   5.257   4.072
14134SOL     OW44408   2.290   6.380  -1.809
14134SOL    HW144409   2.329  -4.709  31.238
14134SOL    HW244410   2.297   6.472  31.283
14135SOL     OW44411   2.628   6.169   1.427
14135SOL    HW144412   2.714   6.191  23.471
14135SOL    HW244413   2.567  -4.816  23.456
14136SOL     OW44414   9.948   1.209   6.988
14136SOL    HW144415   9.972   1.297   6.957
14136SOL    HW244416   9.930  -9.880   6.908
14137SOL     OW44417   1.281   4.687  10.217
14137SOL    HW144418  12.331  15.821  10.207
14137SOL    HW244419  45.525  15.696  10.247
14138SOL     OW44420   9.456   8.797   9.865
14138SOL    HW144421   9.437   8.876   9.915
14138SOL    HW244422   9.551   8.788  -1.169
14139SOL     OW44423   9.175   5.884  11.557
14139SOL    HW144424   9.107   5.850  11.498
14139SOL    HW244425   9.215   5.806   0.556
14140SOL     OW44426   8.764   3.120   8.293
14140SOL    HW144427   8.679   3.115   8.336
14140SOL    HW244428 -13.263  14.217   8.350
14141SOL     OW44429   4.313   3.417   2.316
14141SOL    HW144430   4.235  14.411   2.286
14141SOL    HW244431  -6.678   3.352  35.486
14142SOL     OW44432  11.377   5.948   2.313
14142SOL    HW144433   0.245  16.991   2.336
14142SOL    HW244434  11.419   6.009   2.373
14143SOL     OW44435   3.982  11.333   3.924
14143SOL    HW144436   4.073   0.273   3.900
14143SOL    HW244437   3.930  11.275  25.948
14144SOL     OW44438   6.690   8.747   4.705
14144SOL    HW144439   6.600   8.761   4.678
14144SOL    HW244440   6.684   8.700  -6.252
14145SOL     OW44441   3.503   8.333   4.772
14145SOL    HW144442   3.562   8.297   4.838
14145SOL    HW244443   3.483   8.422   4.803
14146SOL     OW44444   5.723   4.388   6.548
14146SOL    HW144445  -5.266  15.347   6.535
14146SOL    HW244446   5.707   4.391   6.643
14147SOL     OW44447   5.465   3.007   3.716
14147SOL    HW144448  16.517  -7.993  -7.410
14147SOL    HW244449   5.385   2.955   3.708
14148SOL     OW44450   6.760   0.321   8.894
14148SOL    HW144451 -15.389   0.268   8.934
14148SOL    HW244452   6.837   0.266  -2.141
14149SOL     OW44453   5.921   5.643   7.748
14149SOL    HW144454   5.859   5.629   7.677
14149SOL    HW244455  -5.165  -5.425   7.827
14150SOL     OW44456   1.919   6.179   0.028
14150SOL    HW144457   1.840   6.144  11.111
14150SOL    HW244458  13.031   6.135   0.072
14151SOL     OW44459   8.272   6.079   6.447
14151SOL    HW144460  19.281   5.990   6.466
14151SOL    HW244461 -13.712   6.072   6.445
14152SOL     OW44462  10.110   5.666   7.679
14152SOL    HW144463  -0.908   5.710   7.597
14152SOL    HW244464 -11.945  -5.311   7.747
14153SOL     OW44465   2.698  10.084   7.398
14153SOL    HW144466   2.793  21.133   7.407
14153SOL    HW244467  -8.372  10.170  29.449
14154SOL     OW44468   3.664   2.283   3.157
14154SOL    HW144469   3.629   2.366   3.126
14154SOL    HW244470   3.677   2.231   3.078
14155SOL     OW44471   3.371   7.708   2.282
14155SOL    HW144472   3.320   7.770   2.231
14155SOL    HW244473   3.442   7.680   2.224
14156SOL     OW44474  10.898   5.732   6.123
14156SOL    HW144475  10.988   5.708   6.100
14156SOL    HW244476  10.844   5.681   6.063
14157SOL     OW44477   2.859   7.329   5.963
14157SOL    HW144478   2.945   7.371   5.967
14157SOL    HW244479   2.833   7.336   5.871
14158SOL     OW44480   3.171   1.160   2.803
14158SOL    HW144481  -7.789  -9.932   2.799
14158SOL    HW244482   3.124   1.126  47.038
14159SOL     OW44483   3.872  10.671   5.609
14159SOL    HW144484  14.956  10.714   5.681
14159SOL    HW244485  25.909  10.594   5.648
14160SOL     OW44486   5.207   5.829   2.719
14160SOL    HW144487   5.142   5.830   2.789
14160SOL    HW244488   5.267   5.757   2.742
14161SOL     OW44489   9.888  10.864   8.799
14161SOL    HW144490  31.904  10.875  30.949
14161SOL    HW244491  -1.173  10.932   8.735
14162SOL     OW44492  10.018   3.330  -0.432
14162SOL    HW144493  10.104   3.287  32.685
14162SOL    HW244494  10.005   3.361  -0.521
14163SOL     OW44495  10.786  10.847   8.097
14163SOL    HW144496  10.805  -0.268  -2.998
14163SOL    HW244497  -0.266  10.810   8.185
14164SOL     OW44498   3.042   8.803   3.115
14164SOL    HW144499   2.996  -2.287   3.182
14164SOL    HW244500  -8.066   8.853   3.071
14165SOL     OW44501   0.279   9.553   8.372
14165SOL    HW144502 -10.682  20.645   8.362
14165SOL    HW244503  55.460 -12.527   8.466
14166SOL     OW44504   5.650   2.493   4.006
14166SOL    HW144505   5.633  24.573   3.912
14166SOL    HW244506   5.628   2.582  26.114
14167SOL     OW44507   2.587  11.365   0.152
14167SOL    HW144508  13.581   0.410  11.194
14167SOL    HW244509  24.734  11.376   0.086
14168SOL     OW44510   9.588  10.859   1.986
14168SOL    HW144511  31.738  10.795   1.989
14168SOL    HW244512   9.602  10.907  12.944
14169SOL     OW44513  10.168   8.691  12.582
14169SOL    HW144514  10.182   8.661  12.672
14169SOL    HW244515  10.114   8.770 -20.528
14170SOL     OW44516   0.219   0.478   4.109
14170SOL    HW144517   0.311   0.454   4.114
14170SOL    HW244518   0.173  22.474 -17.987
14171SOL     OW44519   7.115   2.757  10.404
14171SOL    HW144520   7.157   2.705  10.336
14171SOL    HW244521   7.025  13.767  10.405
14172SOL     OW44522   8.210  10.370   1.666
14172SOL    HW144523   8.130  10.333   1.705
14172SOL    HW244524   8.214  10.331   1.579
14173SOL     OW44525   8.275   4.793   5.175
14173SOL    HW144526   8.181  15.848   5.174
14173SOL    HW244527   8.308   4.858  -5.802
14174SOL     OW44528   9.545   4.721   1.691
14174SOL    HW144529   9.505   4.635   1.702
14174SOL    HW244530   9.626  -6.335   1.642
14175SOL     OW44531   2.730   6.048   0.588
14175SOL    HW144532   2.671   6.036   0.514
14175SOL    HW244533   2.766   6.136   0.576
14176SOL     OW44534  11.896  -1.479   7.980
14176SOL    HW144535 -10.179  -1.574   7.995
14176SOL    HW244536  11.805  31.663  -3.042
14177SOL     OW44537   0.481   1.561  11.239
14177SOL    HW144538  11.594   1.612  11.203
14177SOL    HW244539  22.493  34.683   0.132
14178SOL     OW44540  11.448   8.648   0.713
14178SOL    HW144541  11.416   8.737   0.706
14178SOL    HW244542 -21.624 -13.433   0.797
14179SOL     OW44543   8.599  10.474   5.889
14179SOL    HW144544  30.692  10.422   5.969
14179SOL    HW244545   8.507  -0.578   5.868
14180SOL     OW44546   6.327  11.268   6.554
14180SOL    HW144547   6.356  11.260  17.684
14180SOL    HW244548  -4.675 -21.928  61.708
14181SOL     OW44549   7.261   7.065  11.653
14181SOL    HW144550   7.190  29.198  11.617
14181SOL    HW244551  -3.764   6.998 -21.532
14182SOL     OW44552   2.428  10.243  -0.409
14182SOL    HW144553 -19.586  10.189  10.585
14182SOL    HW244554   2.406  10.193  -0.330
14183SOL     OW44555   1.571  10.643   1.264
14183SOL    HW144556   1.532  -0.476   1.226
14183SOL    HW244557   1.496  10.695   1.292
14184SOL     OW44558   2.487   3.213  -0.660
14184SOL    HW144559   2.431   3.206  21.342
14184SOL    HW244560   2.541  -7.906  -0.662
14185SOL     OW44561  10.174   4.700   3.344
14185SOL    HW144562 -22.948  -6.343   3.248
14185SOL    HW244563  10.259   4.738   3.364
14186SOL     OW44564   2.055   1.645   1.756
14186SOL    HW144565  13.047   1.688  -9.354
14186SOL    HW244566  -8.965   1.558   1.722
14187SOL     OW44567   8.708   2.971   7.227
14187SOL    HW144568   8.770   3.005   7.162
14187SOL    HW244569   8.727   2.877   7.231
14188SOL     OW44570  10.152   6.375   6.431
14188SOL    HW144571  10.112   6.417   6.355
14188SOL    HW244572  10.082  28.452   6.497
14189SOL     OW44573   1.120   0.917   3.640
14189SOL    HW144574   1.129   0.825  25.697
14189SOL    HW244575   1.037 -10.096   3.601
14190SOL     OW44576  11.698   4.197  11.313
14190SOL    HW144577 -10.364   4.215  11.221
14190SOL    HW244578  11.708   4.281   0.318
14191SOL     OW44579   5.070  11.227  10.622
14191SOL    HW144580   5.089  11.199  10.711
14191SOL    HW244581   5.084 -10.757  10.623
14192SOL     OW44582  11.004   3.404   5.116
14192SOL    HW144583  10.981  36.528   5.209
14192SOL    HW244584 -11.135   3.465   5.073
14193SOL     OW44585   6.250   8.721   4.968
14193SOL    HW144586   6.318   8.654   4.966
14193SOL    HW244587   6.223  -2.309  37.995
14194SOL     OW44588   0.940   0.664   8.978
14194SOL    HW144589   1.007   0.624  19.962
14194SOL    HW244590   0.988   0.700  20.092
14195SOL     OW44591   8.270   9.372   7.997
14195SOL    HW144592   8.356   9.386   8.038
14195SOL    HW244593   8.213   9.346  19.109
14196SOL     OW44594   3.658   5.942   8.289
14196SOL    HW144595   3.741   5.974  30.404
14196SOL    HW244596   3.596  16.986   8.362
14197SOL     OW44597   8.105  10.090   5.987
14197SOL    HW144598  -2.964  10.174   6.021
14197SOL    HW244599  -3.015  21.076  17.023
14198SOL     OW44600   1.579   2.746   1.243
14198SOL    HW144601   1.590   2.831  -9.753
14198SOL    HW244602   1.666   2.707   1.244
14199SOL     OW44603  10.353  10.926   0.747
14199SOL    HW144604  10.394  -0.130   0.832
14199SOL    HW244605  10.424  10.917   0.684
14200SOL     OW44606  10.347   7.120   3.670
14200SOL    HW144607  10.282  18.202   3.726
14200SOL    HW244608  10.309  18.076   3.647
14201SOL     OW44609   6.203   4.223   5.295
14201SOL    HW144610   6.187  -6.728   5.265
14201SOL    HW244611   6.225   4.233   5.388
14202SOL     OW44612   8.722   6.905   6.393
14202SOL    HW144613 -13.333   6.944   6.477
14202SOL    HW244614   8.790   6.840  17.416
14203SOL     OW44615   7.993   2.042   5.230
14203SOL    HW144616  -3.036   1.950   5.205
14203SOL    HW244617  -2.960   2.069   5.260
14204SOL     OW44618   2.291   0.958   6.536
14204SOL    HW144619   2.199   0.962   6.510
14204SOL    HW244620  13.376   0.930   6.456
14205SOL     OW44621   0.065   0.170   1.589
14205SOL    HW144622   0.014   0.179   1.670
14205SOL    HW244623  11.165  11.138  -9.433
14206SOL     OW44624   0.913  10.260   5.760
14206SOL    HW144625   0.944  10.335  16.851
14206SOL    HW244626   0.900  21.230  27.903
14207SOL     OW44627  13.292   7.900   8.721
14207SOL    HW144628   2.181   7.863   8.669
14207SOL    HW244629 -19.861   7.902   8.811
14208SOL     OW44630   0.927   6.571  10.392
14208SOL    HW144631   0.869   6.565  10.317
14208SOL    HW244632 -10.051   6.499  21.420
14209SOL     OW44633   3.683   3.977   3.643
14209SOL    HW144634  -7.267  26.024   3.648
14209SOL    HW244635   3.666   3.987  36.668
14210SOL     OW44636  10.408   1.542   0.037
14210SOL    HW144637  10.384   1.528  -0.055
14210SOL    HW244638  10.327  12.568   0.086
14211SOL     OW44639   9.128   3.475   2.697
14211SOL    HW144640   9.218   3.505  13.726
14211SOL    HW244641   9.135   3.388   2.735
14212SOL     OW44642   8.539   3.621   6.001
14212SOL    HW144643   8.501   3.709   5.992
14212SOL    HW244644  30.582   3.572   5.927
14213SOL     OW44645  10.988  10.057   3.482
14213SOL    HW144646  10.934   9.989   3.523
14213SOL    HW244647  10.925  10.120   3.448
14214SOL     OW44648   5.507   4.045   3.966
14214SOL    HW144649   5.487   4.138   3.960
14214SOL    HW244650   5.428   4.001   3.936
14215SOL     OW44651   4.124   6.672   0.684
14215SOL    HW144652 -17.941  17.805   0.671
14215SOL    HW244653   4.212   6.633  11.721
14216SOL     OW44654   1.240   5.027   6.583
14216SOL    HW144655  -9.855   4.981   6.519
14216SOL    HW244656  12.260   5.120 -15.512
14217SOL     OW44657   8.095   4.131   2.254
14217SOL    HW144658   8.176   4.106   2.298
14217SOL    HW244659   8.025  15.135   2.309
14218SOL     OW44660   9.065   4.872   4.453
14218SOL    HW144661   9.125   4.806   4.488
14218SOL    HW244662   8.979   4.848   4.489
14219SOL     OW44663  -0.618   8.032   5.546
14219SOL    HW144664  21.529   8.085  -5.453
14219SOL    HW244665  -0.698   8.052   5.595
14220SOL     OW44666   3.971   2.895   8.053
14220SOL    HW144667   4.041  24.990   8.116
14220SOL    HW244668   3.894   2.875   8.107
14221SOL     OW44669  11.686   1.431   2.285
14221SOL    HW144670 -10.354   1.463   2.366
14221SOL    HW244671  11.603   1.391  35.432
14222SOL     OW44672   0.869   8.967   5.124
14222SOL    HW144673   0.813  20.021   5.200
14222SOL    HW244674   0.913  -2.156   5.142
14223SOL     OW44675   6.004   4.002   2.220
14223SOL    HW144676  28.013   3.982   2.282
14223SOL    HW244677   6.032   4.090   2.244
14224SOL     OW44678   9.044   5.475   5.088
14224SOL    HW144679   9.045   5.566  -5.982
14224SOL    HW244680  -1.987   5.481   5.184
14225SOL     OW44681   8.876   0.450   8.563
14225SOL    HW144682   8.823   0.370   8.564
14225SOL    HW244683  19.887   0.497   8.485
14226SOL     OW44684   4.357  -0.150   7.544
14226SOL    HW144685   4.444  10.854  -3.518
14226SOL    HW244686 -17.705  10.960   7.606
14227SOL     OW44687   3.643   4.714   9.884
14227SOL    HW144688   3.678 -17.347   9.971
14227SOL    HW244689   3.642   4.799   9.840
14228SOL     OW44690  11.240   1.659   5.492
14228SOL    HW144691   0.182   1.565   5.496
14228SOL    HW244692  11.285   1.678   5.574
14229SOL     OW44693   3.434   9.781   9.283
14229SOL    HW144694   3.444   9.806   9.191
14229SOL    HW244695  -7.674   9.839  20.355
14230SOL     OW44696   1.853   8.777  -0.273
14230SOL    HW144697   1.817  -2.190  10.716
14230SOL    HW244698  -9.155   8.816  -0.192
14231SOL     OW44699  10.454   8.947   0.176
14231SOL    HW144700  10.485   8.860   0.152
14231SOL    HW244701  10.518   9.007   0.137
14232SOL     OW44702   1.571   2.963   0.991
14232SOL    HW144703   1.612   2.930  22.990
14232SOL    HW244704  -9.524   2.891 -10.019
14233SOL     OW44705  10.172   4.203   3.918
14233SOL    HW144706  10.219   4.272   3.964
14233SOL    HW244707  10.219   4.123   3.941
14234SOL     OW44708   2.546   2.469   6.174
14234SOL    HW144709   2.580  13.437   6.120
14234SOL    HW244710   2.456  13.483   6.193
14235SOL     OW44711   4.065   4.330   0.279
14235SOL    HW144712 -17.971   4.392   0.337
14235SOL    HW244713  26.204  26.400   0.204
14236SOL     OW44714   6.710   1.313   4.334
14236SOL    HW144715   6.718   1.402   4.299
14236SOL    HW244716  -4.290   1.257   4.267
14237SOL     OW44717   4.302   9.447   9.982
14237SOL    HW144718   4.327   9.401  10.063
14237SOL    HW244719  -6.677   9.413   9.916
14238SOL     OW44720  12.321   7.683   2.162
14238SOL    HW144721   1.361 -14.347   2.142
14238SOL    HW244722 -20.799   7.611   2.099
14239SOL     OW44723  -0.975   8.631   1.794
14239SOL    HW144724  21.015  19.698   1.772
14239SOL    HW244725  -0.983  19.632 -20.198
14240SOL     OW44726   5.953   2.180   9.396
14240SOL    HW144727   6.003 -19.954  -1.703
14240SOL    HW244728   5.905  -8.921   9.451
14241SOL     OW44729   6.156  -0.251   9.683
14241SOL    HW144730  28.183  -0.319   9.640
14241SOL    HW244731  17.136  10.863   9.691
14242SOL     OW44732   9.110   8.202   2.228
14242SOL    HW144733   9.083   8.254   2.152
14242SOL    HW244734  -1.834 -13.866   2.231
14243SOL     OW44735   4.158   5.132   8.649
14243SOL    HW144736   4.180  16.203   8.737
14243SOL    HW244737 -18.016  -5.905   8.645
14244SOL     OW44738   9.706   8.103   7.458
14244SOL    HW144739  -1.240   8.098   7.439
14244SOL    HW244740   9.663  19.135  -3.667
14245SOL     OW44741   7.346   2.468   2.116
14245SOL    HW144742   7.356   2.399   2.050
14245SOL    HW244743   7.304   2.540   2.070
14246SOL     OW44744   7.596   9.336  10.883
14246SOL    HW144745   7.605   9.321  -0.063
14246SOL    HW244746   7.503  20.392 -11.210
14247SOL     OW44747   4.826   7.372   0.729
14247SOL    HW144748   4.732   7.380   0.745
14247SOL    HW244749  -6.203  -3.756   0.693
14248SOL     OW44750   3.849   4.018   8.823
14248SOL    HW144751  14.801   4.009 -13.218
14248SOL    HW244752   3.876   4.107   8.845
14249SOL     OW44753   7.595   2.110   4.839
14249SOL    HW144754   7.641  13.168  -6.283
14249SOL    HW244755   7.643  -9.003   4.877
14250SOL     OW44756   0.025   0.261   0.667
14250SOL    HW144757   0.026   0.327   0.597
14250SOL    HW244758   0.117   0.250   0.691
14251SOL     OW44759   7.673   8.364   8.638
14251SOL    HW144760   7.621   8.334   8.713
14251SOL    HW244761   7.714   8.284   8.604
14252SOL     OW44762   8.951   8.505   2.336
14252SOL    HW144763   9.014  30.524   2.376
14252SOL    HW244764   8.984   8.520   2.248
14253SOL     OW44765   5.260   4.709   4.565
14253SOL    HW144766   5.325  15.754   4.495
14253SOL    HW244767   5.190   4.655   4.529
14254SOL     OW44768   7.538   4.888  11.365
14254SOL    HW144769 -25.580   4.984   0.329
14254SOL    HW244770   7.600   4.867  11.296
14255SOL     OW44771   2.243  -0.328   8.696
14255SOL    HW144772   2.273  10.791   8.652
14255SOL    HW244773  -8.826  -0.385  -2.415
14256SOL     OW44774   2.930   2.043   4.965
14256SOL    HW144775   2.981  13.163   4.976
14256SOL    HW244776   2.851   2.071   4.919
14257SOL     OW44777   9.022   8.095   1.957
14257SOL    HW144778   8.953  19.198  -9.062
14257SOL    HW244779   9.100  -2.891  -9.095
14258SOL     OW44780   4.694   7.520   2.816
14258SOL    HW144781  26.751   7.612   2.833
14258SOL    HW244782   4.775   7.505   2.865
14259SOL     OW44783   6.280   8.332   5.713
14259SOL    HW144784   6.297   8.381  -5.407
14259SOL    HW244785   6.322 -24.872   5.699
14260SOL     OW44786   2.239   1.390   9.350
14260SOL    HW144787   2.193   1.470   9.326
14260SOL    HW244788  46.484   1.420  20.418
14261SOL     OW44789   0.709   8.062  10.808
14261SOL    HW144790   0.793  41.219 -11.246
14261SOL    HW244791   0.668  -3.001  10.891
14262SOL     OW44792   1.837   2.095   8.157
14262SOL    HW144793   1.896   2.070   8.086
14262SOL    HW244794   1.878   2.173   8.196
14263SOL     OW44795  10.498  10.161   7.542
14263SOL    HW144796 -33.730  10.095   7.548
14263SOL    HW244797 -11.617  10.236  -3.451
14264SOL     OW44798   8.055   3.268   3.018
14264SOL    HW144799  19.184  -7.765  14.024
14264SOL    HW244800  -2.975   3.228  14.144
14265SOL     OW44801   5.567   8.424   0.067
14265SOL    HW144802   5.621  19.521   0.013
14265SOL    HW244803  -5.410   8.367   0.112
14266SOL     OW44804  11.083   7.636   8.330
14266SOL    HW144805 -11.069  18.642   8.383
14266SOL    HW244806   0.067  29.642   8.274
14267SOL     OW44807   9.855  -1.062   0.953
14267SOL    HW144808   9.875  21.018 -10.181
14267SOL    HW244809   9.814  -0.977   0.969
14268SOL     OW44810  10.010   2.008   4.913
14268SOL    HW144811  10.089   1.954   4.912
14268SOL    HW244812  -1.102   1.946   4.925
14269SOL     OW44813   5.321  10.131   0.934
14269SOL    HW144814   5.254  -0.852 -10.066
14269SOL    HW244815   5.385  10.118   1.004
14270SOL     OW44816  11.493   1.411   7.460
14270SOL    HW144817   0.418  -9.581  -3.655
14270SOL    HW244818  11.477   1.469  18.574
14271SOL     OW44819   1.698   8.473  10.033
14271SOL    HW144820   1.696   8.535  -1.079
14271SOL    HW244821  34.828   8.388 -12.088
14272SOL     OW44822   8.220   4.973   5.393
14272SOL    HW144823  19.354   4.988   5.395
14272SOL    HW244824  30.274  16.000   5.484
14273SOL     OW44825   0.400   9.193  10.064
14273SOL    HW144826   0.490   9.210  10.036
14273SOL    HW244827   0.352   9.173   9.984
14274SOL     OW44828   4.017  10.653   8.348
14274SOL    HW144829   3.937  10.706  19.383
14274SOL    HW244830  15.099 -22.454   8.263
14275SOL     OW44831   5.327   3.569   6.836
14275SOL    HW144832   5.363   3.612  -4.280
14275SOL    HW244833 -16.736 -18.450 -15.171
14276SOL     OW44834   2.807   6.687   9.305
14276SOL    HW144835   2.799   6.704  20.438
14276SOL    HW244836   2.761  -4.435   9.291
14277SOL     OW44837   5.119   3.009   9.667
14277SOL    HW144838   5.101   3.020   9.760
14277SOL    HW244839   5.169   2.928   9.661
14278SOL     OW44840   9.653   5.141  10.977
14278SOL    HW144841   9.562  16.205  10.960
14278SOL    HW244842   9.650   5.048  -0.042
14279SOL     OW44843   2.882   1.867   8.308
14279SOL    HW144844   2.813   1.802  -2.739
14279SOL    HW244845   2.853   1.940  -2.787
14280SOL     OW44846   1.122   3.890   9.813
14280SOL    HW144847   1.102  -7.082   9.878
14280SOL    HW244848  12.257   3.891   9.807
14281SOL     OW44849  10.872   2.798   1.013
14281SOL    HW144850  -0.225   2.784   1.089
14281SOL    HW244851 -11.262   2.845  11.990
14282SOL     OW44852   1.033   1.612   5.427
14282SOL    HW144853   1.084   1.579   5.352
14282SOL    HW244854   0.967 -20.535  -5.597
14283SOL     OW44855   2.376   5.090   6.767
14283SOL    HW144856   2.331   5.015  17.768
14283SOL    HW244857   2.306   5.151   6.791
14284SOL     OW44858   4.191  10.839  11.714
14284SOL    HW144859   4.150  -0.131  11.766
14284SOL    HW244860   4.120 -22.341 -10.384
14285SOL     OW44861   4.703   0.896   4.936
14285SOL    HW144862 -17.346   0.947  -6.179
14285SOL    HW244863   4.723   0.805   4.913
14286SOL     OW44864   9.005  10.068   6.935
14286SOL    HW144865  -2.090 -11.973   6.866
14286SOL    HW244866  -1.966  10.133   6.949
14287SOL     OW44867   9.460   5.903   6.871
14287SOL    HW144868   9.462   5.873   6.780
14287SOL    HW244869  20.573  16.898   6.913
14288SOL     OW44870   5.496  10.979   9.558
14288SOL    HW144871   5.551  10.944   9.488
14288SOL    HW244872  27.498  10.922   9.558
14289SOL     OW44873   1.829   7.392  10.479
14289SOL    HW144874  12.904  18.354  10.437
14289SOL    HW244875   1.865   7.391  10.567
14290SOL     OW44876   3.009   6.229   8.679
14290SOL    HW144877   3.090   6.178   8.687
14290SOL    HW244878   3.028  28.389   8.726
14291SOL     OW44879   4.631   5.204   0.212
14291SOL    HW144880   4.602   5.170   0.296
14291SOL    HW244881  -6.364   5.286   0.232
14292SOL     OW44882   9.010   6.650   7.213
14292SOL    HW144883  -1.961 -15.386   7.265
14292SOL    HW244884  20.013   6.584  -3.768
14293SOL     OW44885  10.368   8.433  11.062
14293SOL    HW144886  -0.683 -35.819   0.009
14293SOL    HW244887  10.407  -2.575  10.981
14294SOL     OW44888   2.294   6.452   7.577
14294SOL    HW144889   2.268  17.488   7.485
14294SOL    HW244890   2.293   6.546  18.637
14295SOL     OW44891   7.126   1.409   4.957
14295SOL    HW144892   7.198   1.420   4.894
14295SOL    HW244893   7.063  -9.685   4.911
14296SOL     OW44894   2.565   0.337   1.303
14296SOL    HW144895   2.492   0.302   1.353
14296SOL    HW244896   2.622   0.377  -9.672
14297SOL     OW44897   3.073   4.766   1.461
14297SOL    HW144898   3.015  15.875   1.432
14297SOL    HW244899  -8.022   4.708   1.512
14298SOL     OW44900   2.771   0.442   1.447
14298SOL    HW144901   2.821   0.372   1.489
14298SOL    HW244902   2.836   0.506  12.461
14299SOL     OW44903   7.434  10.585   2.892
14299SOL    HW144904  18.411  10.553  -8.213
14299SOL    HW244905   7.417  10.679   2.897
14300SOL     OW44906   5.941   7.909   9.599
14300SOL    HW144907  -5.177   7.946   9.640
14300SOL    HW244908   6.004   7.981   9.601
14301SOL     OW44909   6.679   5.441   5.416
14301SOL    HW144910   6.615   5.482   5.474
14301SOL    HW244911   6.687  -5.539   5.342
14302SOL     OW44912   4.451  11.603   5.423
14302SOL    HW144913   4.401   0.533   5.499
14302SOL    HW244914  15.429  11.598  16.390
14303SOL     OW44915   3.494   9.503   9.207
14303SOL    HW144916  -7.600  20.619   9.222
14303SOL    HW244917   3.437   9.428   9.226
14304SOL     OW44918   1.662   0.991   2.549
14304SOL    HW144919   1.639   1.039   2.629
14304SOL    HW244920  -9.463   0.964   2.514
14305SOL     OW44921   9.257   0.912   9.577
14305SOL    HW144922  20.309   0.994  -1.510
14305SOL    HW244923   9.176   0.876  31.621
14306SOL     OW44924   0.844  10.153   5.151
14306SOL    HW144925 -10.225 -11.956   5.066
14306SOL    HW244926   0.915  10.094   5.175
14307SOL     OW44927   3.363   3.260   2.449
14307SOL    HW144928   3.393   3.179   2.409
14307SOL    HW244929   3.268   3.249   2.458
14308SOL     OW44930   7.386   0.161   0.467
14308SOL    HW144931   7.364   0.068  11.510
14308SOL    HW244932   7.417  11.215   0.378
14309SOL     OW44933   0.644   4.114   8.958
14309SOL    HW144934   0.645 -17.871   8.976
14309SOL    HW244935   0.621   4.108   8.865
14310SOL     OW44936   2.395   2.105   3.391
14310SOL    HW144937   2.431   2.180 -18.640
14310SOL    HW244938   2.375   2.040   3.459
14311SOL     OW44939   3.774   9.527  10.867
14311SOL    HW144940   3.737   9.464  10.806
14311SOL    HW244941  -7.173   9.533  10.842
14312SOL     OW44942  11.309   1.531   2.441
14312SOL    HW144943  11.346   1.583   2.370
14312SOL    HW244944   0.177  -9.520   2.417
14313SOL     OW44945   0.588   4.372   6.861
14313SOL    HW144946   0.514 -28.806   6.877
14313SOL    HW244947  22.716 -17.749   6.790
14314SOL     OW44948   9.499   8.753   2.943
14314SOL    HW144949  20.490   8.708  14.052
14314SOL    HW244950   9.572   8.796   2.989
14315SOL     OW44951   2.615   1.765   7.908
14315SOL    HW144952   2.566   1.807   7.978
14315SOL    HW244953  24.688   1.826   7.834
14316SOL     OW44954   5.472   5.373   8.873
14316SOL    HW144955  -5.624  -5.683   8.798
14316SOL    HW244956   5.538  -5.736   8.870
14317SOL     OW44957  10.890   8.981   8.390
14317SOL    HW144958  -0.167   9.060  -2.599
14317SOL    HW244959  -0.095   8.927   8.448
14318SOL     OW44960   3.235   0.345   2.556
14318SOL    HW144961   3.158   0.394 -19.494
14318SOL    HW244962 -18.879   0.264   2.520
14319SOL     OW44963   3.522   9.446   1.216
14319SOL    HW144964   3.468 -12.702   1.254
14319SOL    HW244965   3.461  -1.541   1.165
14320SOL     OW44966   5.858   7.047   7.462
14320SOL    HW144967  -5.265   7.087   7.488
14320SOL    HW244968  16.886   6.954   7.480
14321SOL     OW44969   8.871  11.394   1.324
14321SOL    HW144970  19.990   0.382  -9.670
14321SOL    HW244971   8.898   0.350  -9.808
14322SOL     OW44972   8.161   7.088   9.724
14322SOL    HW144973   8.251  18.142   9.751
14322SOL    HW244974  -2.879  18.039  20.729
14323SOL     OW44975   8.924   6.418   2.942
14323SOL    HW144976   8.885  -4.561   3.005
14323SOL    HW244977  20.035   6.376   2.990
14324SOL     OW44978   0.950   2.775   1.582
14324SOL    HW144979   1.038   2.810   1.595
14324SOL    HW244980   0.959   2.681   1.595
14325SOL     OW44981   6.457   3.221   8.218
14325SOL    HW144982   6.462   3.126   8.203
14325SOL    HW244983   6.548   3.248  19.270
14326SOL     OW44984   9.304   4.827   7.715
14326SOL    HW144985   9.227   4.880   7.695
14326SOL    HW244986 -12.749   4.790   7.630
14327SOL     OW44987   2.159   6.905   7.486
14327SOL    HW144988   2.116   6.976   7.534
14327SOL    HW244989   2.087  -4.184   7.447
14328SOL     OW44990   2.457   5.167   4.799
14328SOL    HW144991   2.429 -16.823 -17.260
14328SOL    HW244992   2.399   5.139  -6.312
14329SOL     OW44993   3.608   6.368   8.424
14329SOL    HW144994   3.589   6.299   8.362
14329SOL    HW244995  -7.502  17.471   8.412
14330SOL     OW44996   3.817   1.754   9.002
14330SOL    HW144997  14.928   1.712   8.954
14330SOL    HW244998   3.859   1.815  -1.978
14331SOL     OW44999   9.606   0.860   3.799
14331SOL    HW145000  -1.453   0.787 -18.221
14331SOL    HW245001   9.520 -10.143   3.777
14332SOL     OW45002   3.931   0.204   7.000
14332SOL    HW145003 -18.166   0.110   7.001
14332SOL    HW245004   4.024   0.211   7.022
14333SOL     OW45005   2.448   4.036  11.015
14333SOL    HW145006   2.468   4.054   0.068
14333SOL    HW245007   2.402 -29.004 -11.094
14334SOL     OW45008   2.095   6.985   3.764
14334SOL    HW145009   2.190   6.989   3.752
14334SOL    HW245010   2.059   6.984   3.676
14335SOL     OW45011  10.939   5.491   7.862
14335SOL    HW145012  11.026   5.465   7.891
14335SOL    HW245013  10.910  -5.484  18.967
14336SOL     OW45014   0.698   9.100   8.235
14336SOL    HW145015  11.785   9.020  19.253
14336SOL    HW245016  11.691   9.080   8.316
14337SOL     OW45017   9.231   9.917   9.268
14337SOL    HW145018  -1.811   9.879  -1.859
14337SOL    HW245019   9.192  10.004  -1.781
14338SOL     OW45020   6.400   3.144  10.038
14338SOL    HW145021   6.494   3.130 -12.036
14338SOL    HW245022  -4.676   3.094  10.111
14339SOL     OW45023   9.637   6.161  10.325
14339SOL    HW145024 -23.442  -4.964  10.341
14339SOL    HW245025   9.631 -15.878  10.412
14340SOL     OW45026   8.041   4.170   5.821
14340SOL    HW145027   7.995   4.211   5.894
14340SOL    HW245028   7.975  15.201   5.753
14341SOL     OW45029   6.146   0.383   4.147
14341SOL    HW145030   6.159 -10.668   4.052
14341SOL    HW245031   6.225  11.469   4.176
14342SOL     OW45032   0.632   7.383  10.997
14342SOL    HW145033   0.555   7.331  11.022
14342SOL    HW245034   0.640  40.567  11.067
14343SOL     OW45035   9.191  11.037   7.129
14343SOL    HW145036   9.133  22.011   7.166
14343SOL    HW245037  20.317 -11.064   7.164
14344SOL     OW45038   8.705   3.317   0.598
14344SOL    HW145039   8.673   3.229   0.620
14344SOL    HW245040   8.703  -7.719   0.503
14345SOL     OW45041   4.435  11.560   1.321
14345SOL    HW145042  15.484  11.630  -9.653
14345SOL    HW245043  26.484   0.445  23.451
14346SOL     OW45044   0.769   6.536   3.791
14346SOL    HW145045   0.752   6.567   3.702
14346SOL    HW245046   0.703   6.469   3.807
14347SOL     OW45047   0.696   3.594   6.989
14347SOL    HW145048   0.618   3.645  -4.029
14347SOL    HW245049   0.728  25.641   7.073
14348SOL     OW45050   5.828   4.854   8.441
14348SOL    HW145051  27.922   4.942  -2.563
14348SOL    HW245052 -16.239   4.864   8.347
14349SOL     OW45053   9.761   9.741   7.439
14349SOL    HW145054   9.746   9.749   7.533
14349SOL    HW245055  20.824   9.649   7.426
14350SOL     OW45056   6.795   7.455   9.417
14350SOL    HW145057   6.861   7.387   9.423
14350SOL    HW245058   6.712   7.408   9.418
14351SOL     OW45059   9.396  10.656   4.657
14351SOL    HW145060   9.481  10.657   4.613
14351SOL    HW245061   9.407  10.714 -17.347
14352SOL     OW45062   3.978   7.855   4.027
14352SOL    HW145063   3.923  18.834   4.077
14352SOL    HW245064   3.946  -3.097   4.051
14353SOL     OW45065   4.243   7.382   6.702
14353SOL    HW145066   4.173   7.376   6.637
14353SOL    HW245067   4.291   7.461   6.678
14354SOL     OW45068   1.321   0.959   3.388
14354SOL    HW145069  -9.759  12.064   3.444
14354SOL    HW245070   1.397   0.928   3.438
14355SOL     OW45071   3.522   6.456   3.661
14355SOL    HW145072   3.595  -4.551   3.714
14355SOL    HW245073  14.579  17.403   3.650
14356SOL     OW45074   6.448   6.259   7.841
14356SOL    HW145075  17.448   6.338   7.804
14356SOL    HW245076   6.532  39.369  -3.244
14357SOL     OW45077   1.252   3.388   7.250
14357SOL    HW145078   1.205   3.462   7.288
14357SOL    HW245079   1.328   3.427   7.208
14358SOL     OW45080   5.511  10.484   9.555
14358SOL    HW145081   5.469  10.455   9.636
14358SOL    HW245082   5.475  10.427  -1.552
14359SOL     OW45083   7.859   3.913   8.763
14359SOL    HW145084   7.951   3.887  -2.286
14359SOL    HW245085  -3.229   3.838  -2.311
14360SOL     OW45086   1.256   3.586  12.176
14360SOL    HW145087   1.165   3.617  23.211
14360SOL    HW245088   1.248   3.491 -20.933
14361SOL     OW45089   4.782   2.966   9.910
14361SOL    HW145090  -6.289   3.055   9.893
14361SOL    HW245091 -17.367   2.909  20.918
14362SOL     OW45092   5.712   6.652   1.625
14362SOL    HW145093   5.710   6.684   1.535
14362SOL    HW245094   5.768   6.575 -20.457
14363SOL     OW45095   3.041   4.545  10.782
14363SOL    HW145096  25.182   4.497  10.836
14363SOL    HW245097  14.035   4.477  10.731
14364SOL     OW45098   9.357   1.737   1.361
14364SOL    HW145099   9.355   1.773   1.450
14364SOL    HW245100   9.449   1.743   1.336
14365SOL     OW45101  11.671   1.338   3.506
14365SOL    HW145102   0.688   1.347   3.582
14365SOL    HW245103   0.557   1.396   3.523
14366SOL     OW45104   9.331   7.084   7.905
14366SOL    HW145105   9.354   7.177  18.943
14366SOL    HW245106   9.405 -15.039   7.863
14367SOL     OW45107   5.168   9.581   6.818
14367SOL    HW145108  -5.887 -12.412   6.778
14367SOL    HW245109   5.198  20.640   6.907
14368SOL     OW45110   4.950   3.190   0.740
14368SOL    HW145111 -17.040   3.158 -21.354
14368SOL    HW245112   4.940   3.264  11.720
14369SOL     OW45113  10.866   4.510   7.134
14369SOL    HW145114  10.863   4.534   7.226
14369SOL    HW245115  -0.225  -6.461  18.129
14370SOL     OW45116   2.739   7.187   3.139
14370SOL    HW145117   2.750   7.122   3.209
14370SOL    HW245118   2.721   7.269  14.224
14371SOL     OW45119   3.848   5.127   3.162
14371SOL    HW145120   3.832   5.049   3.214
14371SOL    HW245121  -7.096   5.137   3.165
14372SOL     OW45122   4.606   8.578   9.637
14372SOL    HW145123   4.530  19.662   9.598
14372SOL    HW245124   4.597   8.596   9.731
14373SOL     OW45125   3.399   2.172  10.808
14373SOL    HW145126   3.402  -8.911  10.723
14373SOL    HW245127   3.487   2.210 -11.260
14374SOL     OW45128   5.886  -0.105   1.134
14374SOL    HW145129   5.804 -11.114   1.094
14374SOL    HW245130  28.026  21.966  -9.979
14375SOL     OW45131   3.437   8.802   9.177
14375SOL    HW145132  -7.557   8.807   9.093
14375SOL    HW245133   3.362  -2.178   9.167
14376SOL     OW45134   4.720  10.362   0.068
14376SOL    HW145135  15.843  10.328   0.037
14376SOL    HW245136   4.717  10.451   0.034
14377SOL     OW45137   6.120  11.580   4.809
14377SOL    HW145138   6.028  11.585   4.784
14377SOL    HW245139 -15.922   0.624   4.780
14378SOL     OW45140   5.237   9.021  12.061
14378SOL    HW145141   5.164 -24.074   0.965
14378SOL    HW245142  -5.819   9.067   1.104
14379SOL     OW45143   6.901   4.756   7.163
14379SOL    HW145144  -4.156   4.678   7.216
14379SOL    HW245145   6.847  15.864  -3.837
14380SOL     OW45146  11.263   6.128   7.172
14380SOL    HW145147  11.178  17.140   7.205
14380SOL    HW245148 -10.765   6.047 -25.954
14381SOL     OW45149  11.226   5.784   9.763
14381SOL    HW145150 -10.869   5.712   9.824
14381SOL    HW245151  11.196  16.790   9.678
14382SOL     OW45152   9.121   7.895   7.624
14382SOL    HW145153   9.166  -3.224   7.654
14382SOL    HW245154 -12.894   7.940   7.571
14383SOL     OW45155   1.695   9.439   7.058
14383SOL    HW145156   1.608  -1.636   7.076
14383SOL    HW245157   1.678 -12.564   7.002
14384SOL     OW45158   3.912   7.448   1.005
14384SOL    HW145159   3.957   7.517   1.053
14384SOL    HW245160  -7.220 -25.661   1.029
14385SOL     OW45161   7.170   4.427   3.289
14385SOL    HW145162  -3.898   4.342   3.255
14385SOL    HW245163   7.138   4.491   3.225
14386SOL     OW45164   7.322  10.160   3.999
14386SOL    HW145165   7.255  10.106  26.120
14386SOL    HW245166   7.283  21.226   3.915
14387SOL     OW45167   0.653   8.271   8.759
14387SOL    HW145168   0.630   8.354  -2.322
14387SOL    HW245169   0.739   8.248   8.724
14388SOL     OW45170   5.089  10.076   7.835
14388SOL    HW145171  16.160  -1.022   7.766
14388SOL    HW245172  16.205  10.093   7.889
14389SOL     OW45173   8.703   6.006   7.506
14389SOL    HW145174   8.675  17.112  18.482
14389SOL    HW245175  -2.243   5.996   7.491
14390SOL     OW45176  10.059  -2.129   5.931
14390SOL    HW145177  10.083  42.108   5.882
14390SOL    HW245178  10.135  -2.186  -5.115
14391SOL     OW45179   6.149   7.969   2.070
14391SOL    HW145180   6.106  29.969  -8.938
14391SOL    HW245181   6.187  19.048  -8.891
14392SOL     OW45182   0.174   1.735   0.410
14392SOL    HW145183  22.213   1.775   0.487
14392SOL    HW245184   0.209   1.809  11.400
14393SOL     OW45185   0.449   5.926   2.065
14393SOL    HW145186  33.537 -16.160   2.156
14393SOL    HW245187  11.533   5.843   2.048
14394SOL     OW45188   5.289   5.515   0.623
14394SOL    HW145189   5.227 -16.609   0.680
14394SOL    HW245190  16.413   5.508   0.668
14395SOL     OW45191  11.299   1.996  11.315
14395SOL    HW145192  11.207 -20.068  11.294
14395SOL    HW245193   0.278  -8.986 -10.691
14396SOL     OW45194   6.483   6.951   4.155
14396SOL    HW145195 -15.608  -4.146   4.079
14396SOL    HW245196   6.574   6.982   4.147
14397SOL     OW45197   9.163  10.523   2.056
14397SOL    HW145198  -1.952  10.479   2.016
14397SOL    HW245199  20.279  10.483  35.132
14398SOL     OW45200   0.113   0.368   8.832
14398SOL    HW145201   0.146   0.338   8.917
14398SOL    HW245202   0.052   0.439  19.894
14399SOL     OW45203   1.842   5.200   0.320
14399SOL    HW145204  12.865 -16.908  11.449
14399SOL    HW245205   1.793  16.322  11.351
14400SOL     OW45206  -0.320   6.993   3.056
14400SOL    HW145207  21.675   6.954   3.033
14400SOL    HW245208  -0.259   6.919   3.053
14401SOL     OW45209  14.441  10.097   7.830
14401SOL    HW145210  -7.612  10.018  29.863
14401SOL    HW245211 -29.746 -12.012  18.956
14402SOL     OW45212   4.118   8.912   0.714
14402SOL    HW145213   4.153   8.825   0.694
14402SOL    HW245214  -6.963  19.942   0.799
14403SOL     OW45215   7.977   6.597   1.599
14403SOL    HW145216 -14.071   6.687   1.614
14403SOL    HW245217   8.057  17.584   1.600
14404SOL     OW45218   8.298   4.667   2.435
14404SOL    HW145219  41.470   4.730   2.485
14404SOL    HW245220   8.258   4.611   2.501
14405SOL     OW45221   7.448   7.017   6.741
14405SOL    HW145222 -14.723  18.049  17.754
14405SOL    HW245223   7.488   7.075   6.677
14406SOL     OW45224   8.962   5.544   8.104
14406SOL    HW145225   8.974  -5.473   8.196
14406SOL    HW245226   8.898   5.473  -2.935
14407SOL     OW45227   1.540   6.051  10.700
14407SOL    HW145228   1.561   6.114 -11.311
14407SOL    HW245229   1.624  17.066  -0.377
14408SOL     OW45230   4.735  10.446   2.902
14408SOL    HW145231   4.735 -22.600   2.839
14408SOL    HW245232   4.817  -0.585   2.949
14409SOL     OW45233  10.509   5.576   7.495
14409SOL    HW145234  10.552   5.574   7.581
14409SOL    HW245235  10.549  -5.536   7.447
14410SOL     OW45236   1.288   2.301   2.464
14410SOL    HW145237   1.261   2.384  13.542
14410SOL    HW245238   1.350  24.405   2.396
14411SOL     OW45239   2.701   5.887  -1.726
14411SOL    HW145240   2.697 -38.178   9.292
14411SOL    HW245241   2.787   5.875  20.393
14412SOL     OW45242   1.089  11.054  -0.792
14412SOL    HW145243   1.158   0.074  -0.763
14412SOL    HW245244   1.128  10.967  21.294
14413SOL     OW45245   6.113  11.804   7.977
14413SOL    HW145246  17.231 -21.345   8.022
14413SOL    HW245247   6.046  11.739  30.078
14414SOL     OW45248   8.403   5.254   4.583
14414SOL    HW145249   8.324   5.305   4.603
14414SOL    HW245250   8.390   5.226   4.492
14415SOL     OW45251   3.109   3.333   3.144
14415SOL    HW145252   3.171   3.328   3.072
14415SOL    HW245253  14.094   3.255  -7.905
14416SOL     OW45254   5.543  -1.450   5.219
14416SOL    HW145255   5.563   9.644   5.294
14416SOL    HW245256   5.448  20.634  38.329
14417SOL     OW45257   9.831   6.311   7.696
14417SOL    HW145258   9.780   6.230   7.703
14417SOL    HW245259   9.774   6.379  18.772
14418SOL     OW45260   8.925   7.821   4.355
14418SOL    HW145261   9.009   7.804   4.311
14418SOL    HW245262   8.863   7.764  -6.730
14419SOL     OW45263   4.003   4.701   0.758
14419SOL    HW145264  14.955   4.673   0.785
14419SOL    HW245265  -6.977   4.642  44.963
14420SOL     OW45266   2.610   8.260   9.464
14420SOL    HW145267  13.661   8.330  -1.512
14420SOL    HW245268   2.666  -2.755   9.390
14421SOL     OW45269   1.064   8.154   8.368
14421SOL    HW145270   1.133   8.089   8.352
14421SOL    HW245271   1.002   8.109   8.426
14422SOL     OW45272   5.589  12.228   2.301
14422SOL    HW145273   5.498  12.213   2.274
14422SOL    HW245274   5.613  -9.768   2.260
14423SOL     OW45275   0.371   7.175   8.158
14423SOL    HW145276   0.459   7.195  30.267
14423SOL    HW245277   0.347   7.248   8.101
14424SOL     OW45278   3.571   5.340   2.140
14424SOL    HW145279  14.561 -16.690   2.205
14424SOL    HW245280   3.552  -5.791 -30.960
14425SOL     OW45281   2.295   1.830   4.635
14425SOL    HW145282   2.272   1.785   4.717
14425SOL    HW245283   2.257 -20.305  -6.473
14426SOL     OW45284   0.663   6.744   7.004
14426SOL    HW145285   0.719  17.746   7.072
14426SOL    HW245286   0.722   6.767  17.973
14427SOL     OW45287   6.511   8.016   3.216
14427SOL    HW145288   6.435  30.124   3.266
14427SOL    HW245289   6.565  19.008  14.318
14428SOL     OW45290   2.871   8.923   9.009
14428SOL    HW145291  13.824   8.883   9.019
14428SOL    HW245292   2.930   8.850   8.993
14429SOL     OW45293  -0.719  10.685   1.196
14429SOL    HW145294  -0.698  10.731  12.317
14429SOL    HW245295  32.365 -11.326   1.139
14430SOL     OW45296   2.248  11.494   4.710
14430SOL    HW145297  13.266   0.451   4.803
14430SOL    HW245298  13.383   0.447  -6.332
14431SOL     OW45299   6.742   0.862   8.163
14431SOL    HW145300   6.838  11.892  -2.878
14431SOL    HW245301 -15.352   0.951   8.193
14432SOL     OW45302   1.566   7.566   8.460
14432SOL    HW145303   1.486  -3.504  -2.622
14432SOL    HW245304  12.640   7.634  30.480
14433SOL     OW45305   8.633   1.853   5.323
14433SOL    HW145306   8.578  -9.186 -16.677
14433SOL    HW245307   8.617   1.767  -5.757
14434SOL     OW45308   7.529   5.994   4.552
14434SOL    HW145309   7.523   6.014   4.645
14434SOL    HW245310   7.490   5.907   4.544
14435SOL     OW45311   5.892   2.859  10.794
14435SOL    HW145312   5.883   2.825  10.705
14435SOL    HW245313   5.859  13.988  -0.250
14436SOL     OW45314   0.576  10.012   4.345
14436SOL    HW145315   0.498  -0.974  15.397
14436SOL    HW245316   0.561  21.006   4.262
14437SOL     OW45317  13.618   5.289   5.310
14437SOL    HW145318   2.539   5.228   5.247
14437SOL    HW245319 -52.585 -16.847   5.379
14438SOL     OW45320   7.867   3.892   5.404
14438SOL    HW145321   7.884   3.950 -16.602
14438SOL    HW245322   7.953   3.876  16.405
14439SOL     OW45323   5.876   0.402   3.395
14439SOL    HW145324  -5.081   0.355 -18.693
14439SOL    HW245325 -16.251   0.353 -18.616
14440SOL     OW45326   0.257   0.403   1.228
14440SOL    HW145327  22.298   0.334   1.173
14440SOL    HW245328   0.348   0.409   1.201
14441SOL     OW45329   7.293   8.877   1.540
14441SOL    HW145330   7.278   8.867   1.634
14441SOL    HW245331   7.308  31.050   1.528
14442SOL     OW45332  11.037   1.062   9.814
14442SOL    HW145333  10.996  -9.944   9.893
14442SOL    HW245334  11.031   1.134  20.791
14443SOL     OW45335   1.371   9.772   8.502
14443SOL    HW145336   1.431  20.744  19.512
14443SOL    HW245337   1.427  20.884   8.530
14444SOL     OW45338   5.396   3.173   1.650
14444SOL    HW145339  16.383  14.292   1.642
14444SOL    HW245340  27.544  14.236   1.712
14445SOL     OW45341   8.552   7.873   8.011
14445SOL    HW145342   8.585   7.879   8.100
14445SOL    HW245343  19.593   7.780   7.990
14446SOL     OW45344   9.895   0.446   2.101
14446SOL    HW145345   9.908   0.531 -30.975
14446SOL    HW245346   9.802   0.428   2.112
14447SOL     OW45347   0.609   4.201   4.227
14447SOL    HW145348   0.522  37.333   4.189
14447SOL    HW245349   0.612   4.263  15.340
14448SOL     OW45350   4.410   6.957   8.249
14448SOL    HW145351  15.531  -4.049   8.211
14448SOL    HW245352   4.438   6.884   8.304
14449SOL     OW45353   1.347   2.161   9.603
14449SOL    HW145354   1.441   2.152   9.622
14449SOL    HW245355  -9.731   2.184 -12.391
14450SOL     OW45356  11.238   8.014   5.456
14450SOL    HW145357 -10.759   8.016  16.447
14450SOL    HW245358  11.207   7.924   5.449
14451SOL     OW45359  -0.407   0.943   3.299
14451SOL    HW145360  -0.408   0.850   3.320
14451SOL    HW245361  10.722   0.971   3.315
14452SOL     OW45362   3.037   5.955   7.228
14452SOL    HW145363  -8.006  16.946   7.311
14452SOL    HW245364  14.099 -16.035   7.253
14453SOL     OW45365   2.202   5.484   0.607
14453SOL    HW145366   2.183   5.530   0.689
14453SOL    HW245367   2.281   5.528   0.573
14454SOL     OW45368   6.720   8.037   6.222
14454SOL    HW145369   6.793   8.080   6.268
14454SOL    HW245370  28.829  30.109   6.131
14455SOL     OW45371   4.307  11.216   2.324
14455SOL    HW145372   4.269   0.094  13.393
14455SOL    HW245373 -17.735  11.256   2.402
14456SOL     OW45374   9.013   8.120   9.878
14456SOL    HW145375   9.066  19.204   9.812
14456SOL    HW245376   8.928  19.205  20.914
14457SOL     OW45377   3.634   7.445  12.130
14457SOL    HW145378   3.609   7.412  12.216
14457SOL    HW245379  -7.475 -14.572  -9.972
14458SOL     OW45380   7.556   2.805  10.740
14458SOL    HW145381   7.544   2.870  10.671
14458SOL    HW245382  18.546   2.838 -33.343
14459SOL     OW45383  11.608   5.826   4.163
14459SOL    HW145384 -10.464   5.748  -6.933
14459SOL    HW245385  11.552   5.885  -6.926
14460SOL     OW45386  10.514   9.844   5.171
14460SOL    HW145387 -11.573   9.757  38.250
14460SOL    HW245388  -0.614   9.864  -5.836
14461SOL     OW45389   4.046   4.087   4.859
14461SOL    HW145390   3.992   4.034   4.918
14461SOL    HW245391  15.134  26.102   4.807
14462SOL     OW45392   5.607   9.412   3.589
14462SOL    HW145393   5.530  -1.572   3.603
14462SOL    HW245394  16.709   9.469   3.545
14463SOL     OW45395   4.824   2.887   4.473
14463SOL    HW145396   4.792   2.926   4.392
14463SOL    HW245397   4.894  -8.212  15.486
14464SOL     OW45398   2.628  10.936   8.149
14464SOL    HW145399   2.627  10.865   8.213
14464SOL    HW245400  -8.450  11.011   8.195
14465SOL     OW45401   5.232  10.366   3.247
14465SOL    HW145402 -27.806  21.381   3.203
14465SOL    HW245403   5.185  -0.756   3.260
14466SOL     OW45404   4.155   7.664   3.174
14466SOL    HW145405   4.190   7.651  14.126
14466SOL    HW245406   4.120   7.753   3.174
14467SOL     OW45407  10.576  10.344   9.357
14467SOL    HW145408  10.596  10.256  20.363
14467SOL    HW245409  10.588  10.337   9.451
14468SOL     OW45410   6.219   6.768   1.137
14468SOL    HW145411  28.362  17.878  12.194
14468SOL    HW245412  39.331  28.800  -9.820
14469SOL     OW45413   2.095  10.940  10.995
14469SOL    HW145414   2.067  10.963  10.907
14469SOL    HW245415   2.136  11.020  11.029
14470SOL     OW45416   6.009   4.115   1.167
14470SOL    HW145417   6.092   4.104  34.332
14470SOL    HW245418   6.025   4.187  -9.933
14471SOL     OW45419   5.593   5.356   1.944
14471SOL    HW145420  16.687   5.316   2.012
14471SOL    HW245421   5.601   5.450  12.998
14472SOL     OW45422   3.926   2.321   2.652
14472SOL    HW145423  14.982 -30.777  24.823
14472SOL    HW245424   3.950   2.228   2.645
14473SOL     OW45425   6.643   9.513  11.650
14473SOL    HW145426   6.627   9.585 -10.368
14473SOL    HW245427   6.567   9.456  11.660
14474SOL     OW45428   1.676   6.525  10.284
14474SOL    HW145429   1.644   6.517  10.374
14474SOL    HW245430   1.696   6.435  10.258
14475SOL     OW45431  -0.271  11.350   6.142
14475SOL    HW145432  -0.290  11.358   6.236
14475SOL    HW245433  10.722 -10.808   6.115
14476SOL     OW45434   9.819   2.703   1.608
14476SOL    HW145435   9.800   2.629   1.665
14476SOL    HW245436  20.946   2.732   1.633
14477SOL     OW45437   0.995   7.382   5.946
14477SOL    HW145438  12.114   7.330  -5.107
14477SOL    HW245439   0.997   7.406  28.118
14478SOL     OW45440   5.916   0.544   8.316
14478SOL    HW145441   5.946   0.559   8.227
14478SOL    HW245442   5.842   0.604   8.327
14479SOL     OW45443   8.193   9.064  -0.403
14479SOL    HW145444   8.196   9.004  10.712
14479SOL    HW245445   8.271  -1.922  -0.394
14480SOL     OW45446   0.111  11.329   4.787
14480SOL    HW145447   0.083 -10.732   4.876
14480SOL    HW245448  11.106  11.248   4.763
14481SOL     OW45449   9.894   8.582   6.826
14481SOL    HW145450   9.807  -2.431   6.795
14481SOL    HW245451   9.953   8.604   6.755
14482SOL     OW45452   9.782   6.789   9.178
14482SOL    HW145453   9.716  -4.252   9.109
14482SOL    HW245454   9.741   6.744   9.252
14483SOL     OW45455   5.513  11.513  -0.035
14483SOL    HW145456   5.473 -10.487  -0.071
14483SOL    HW245457   5.604  11.538  11.023
14484SOL     OW45458   8.946   2.050   4.471
14484SOL    HW145459   8.866   2.072   4.519
14484SOL    HW245460   9.006   2.018  -6.501
14485SOL     OW45461   4.199   8.590   9.303
14485SOL    HW145462  -6.870   8.676   9.272
14485SOL    HW245463   4.254   8.556   9.232
14486SOL     OW45464   0.565   6.491   5.165
14486SOL    HW145465   0.514   6.410   5.155
14486SOL    HW245466  11.554   6.544   5.227
14487SOL     OW45467   7.355  10.385   8.003
14487SOL    HW145468  40.406  10.351  19.102
14487SOL    HW245469  18.475  10.342   8.032
14488SOL     OW45470   1.377   2.612   9.511
14488SOL    HW145471  -9.690   2.704  31.591
14488SOL    HW245472   1.340  13.615   9.591
14489SOL     OW45473   8.654   1.932   3.536
14489SOL    HW145474  41.737   1.978  25.691
14489SOL    HW245475   8.735 -20.187  25.646
14490SOL     OW45476   8.201   0.656   2.973
14490SOL    HW145477   8.252  22.699   2.901
14490SOL    HW245478   8.266   0.690   3.034
14491SOL     OW45479   4.059   9.104   1.332
14491SOL    HW145480   3.983   9.137   1.285
14491SOL    HW245481  -7.015   9.039  12.433
14492SOL     OW45482   3.415   3.112   1.446
14492SOL    HW145483   3.392   3.025   1.480
14492SOL    HW245484   3.345  -7.871   1.477
14493SOL     OW45485   7.981   1.915   8.336
14493SOL    HW145486   8.075   1.928  -2.688
14493SOL    HW245487   7.976   1.875   8.249
14494SOL     OW45488   2.185   2.530   2.054
14494SOL    HW145489   2.136  -8.478  13.169
14494SOL    HW245490   2.127  -8.495  -9.060
14495SOL     OW45491   7.983  -0.336   9.053
14495SOL    HW145492 -14.076  21.801  20.020
14495SOL    HW245493   8.060  -0.394  20.099
14496SOL     OW45494   4.498   8.435   4.382
14496SOL    HW145495   4.420   8.442   4.327
14496SOL    HW245496   4.521   8.526  -6.637
14497SOL     OW45497   4.935   7.154  11.456
14497SOL    HW145498   4.880   7.133   0.492
14497SOL    HW245499  15.919  -3.831 -21.719
14498SOL     OW45500   4.655   9.611   5.713
14498SOL    HW145501   4.715   9.544   5.678
14498SOL    HW245502   4.650  -1.448   5.807
14499SOL     OW45503   6.702   7.440   3.930
14499SOL    HW145504   6.737   7.401  15.050
14499SOL    HW245505  -4.261  18.489   3.873
14500SOL     OW45506   7.537   2.620   0.449
14500SOL    HW145507   7.559   2.627   0.356
14500SOL    HW245508   7.622  13.654   0.493
14501SOL     OW45509   8.258   0.159   1.121
14501SOL    HW145510   8.168   0.128   1.129
14501SOL    HW245511   8.295   0.149  23.288
14502SOL     OW45512   9.760   4.887   4.133
14502SOL    HW145513  -1.259   4.799   4.103
14502SOL    HW245514  -1.259   4.944  26.138
14503SOL     OW45515   0.963   6.053   6.870
14503SOL    HW145516 -10.094  17.086 -15.303
14503SOL    HW245517   1.014   5.975   6.890
14504SOL     OW45518  10.405   1.959   1.747
14504SOL    HW145519  -0.661   2.021   1.814
14504SOL    HW245520  10.462   1.897   1.792
14505SOL     OW45521   8.174  10.516  12.219
14505SOL    HW145522  19.178 -11.503  -9.927
14505SOL    HW245523 -13.883  -0.603  12.170
14506SOL     OW45524  10.895   8.190   8.461
14506SOL    HW145525  10.898   8.243 -13.538
14506SOL    HW245526  -0.190  -2.929   8.488
14507SOL     OW45527   8.850   8.789   9.034
14507SOL    HW145528   8.832   8.759   8.945
14507SOL    HW245529   8.945   8.783   9.043
14508SOL     OW45530   9.949   3.291   6.993
14508SOL    HW145531  -1.118 -18.839   7.070
14508SOL    HW245532   9.897   3.371   6.998
14509SOL     OW45533   4.342   6.350   3.712
14509SOL    HW145534   4.265   6.404   3.728
14509SOL    HW245535   4.315   6.290   3.642
14510SOL     OW45536   9.674   4.863  10.685
14510SOL    HW145537   9.767   4.850  10.699
14510SOL    HW245538   9.635  15.889  10.772
14511SOL     OW45539  10.384   9.890   8.077
14511SOL    HW145540  10.386  -1.239  19.153
14511SOL    HW245541  10.475  31.995   8.072
14512SOL     OW45542   6.516   0.287  10.812
14512SOL    HW145543   6.587   0.352 -11.276
14512SOL    HW245544   6.557   0.204 -11.291
14513SOL     OW45545   8.694   4.004   4.056
14513SOL    HW145546   8.679  15.085   4.140
14513SOL    HW245547   8.696   4.076  -7.047
14514SOL     OW45548   2.599   7.352   9.683
14514SOL    HW145549  13.547   7.333   9.664
14514SOL    HW245550  13.686 -25.800  20.646
14515SOL     OW45551  10.931   9.171  -0.564
14515SOL    HW145552  10.872  20.165  10.536
14515SOL    HW245553  -0.093  20.295  54.676
14516SOL     OW45554   5.155   7.706   4.839
14516SOL    HW145555   5.173  -3.427  -6.187
14516SOL    HW245556   5.237   7.750   4.863
14517SOL     OW45557  -0.950   1.668   8.868
14517SOL    HW145558  -1.007   1.715   8.807
14517SOL    HW245559  21.069   1.619   8.924
14518SOL     OW45560   9.442  10.252   1.393
14518SOL    HW145561   9.494  10.173  12.449
14518SOL    HW245562  -1.647  -0.807  12.353
14519SOL     OW45563   2.053   0.071   6.718
14519SOL    HW145564   2.121   0.032   6.662
14519SOL    HW245565   2.092   0.071 -26.313
14520SOL     OW45566   6.632  10.933   2.049
14520SOL    HW145567   6.671 -22.214  -8.909
14520SOL    HW245568   6.620 -11.226   1.998
14521SOL     OW45569   9.496   9.581   7.195
14521SOL    HW145570   9.535  20.546   7.241
14521SOL    HW245571  31.626   9.590   7.115
14522SOL     OW45572   4.672   9.499   9.610
14522SOL    HW145573  15.663   9.442   9.550
14522SOL    HW245574   4.642 -12.607   9.697
14523SOL     OW45575   5.693   2.209   3.775
14523SOL    HW145576   5.608   2.167   3.776
14523SOL    HW245577   5.674   2.301 -18.325
14524SOL     OW45578   8.738   1.258   4.862
14524SOL    HW145579   8.672   1.200  -6.216
14524SOL    HW245580 -13.286  -9.839   4.914
14525SOL     OW45581   0.809   6.016   7.116
14525SOL    HW145582   0.873   6.056   7.058
14525SOL    HW245583   0.844   6.030  18.243
14526SOL     OW45584   6.924   1.097   3.872
14526SOL    HW145585   7.013  12.159  36.965
14526SOL    HW245586   6.905   1.015  14.865
14527SOL     OW45587   6.948   8.399   7.168
14527SOL    HW145588   6.853   8.407   7.178
14527SOL    HW245589  29.040   8.381  18.115
14528SOL     OW45590   7.078   1.904   2.334
14528SOL    HW145591   7.121   1.979   2.293
14528SOL    HW245592  29.070   1.902   2.294
14529SOL     OW45593   5.522   1.536   8.971
14529SOL    HW145594   5.438   1.540   8.925
14529SOL    HW245595   5.507   1.582   9.054
14530SOL     OW45596   5.321   4.767   0.553
14530SOL    HW145597  -5.667   4.828   0.605
14530SOL    HW245598   5.384   4.729  11.531
14531SOL     OW45599   9.717   2.114   7.126
14531SOL    HW145600   9.669   2.176  18.111
14531SOL    HW245601   9.738   2.164   7.205
14532SOL     OW45602   0.524   1.282   5.416
14532SOL    HW145603  11.503  12.389   5.388
14532SOL    HW245604  11.594  -9.798   5.335
14533SOL     OW45605   2.741   8.951   7.200
14533SOL    HW145606   2.679   8.983   7.266
14533SOL    HW245607   2.744   8.856  29.293
14534SOL     OW45608   8.137   0.121   2.193
14534SOL    HW145609  19.253  11.153  13.289
14534SOL    HW245610 -14.007   0.168   2.246
14535SOL     OW45611   3.789   9.839   6.369
14535SOL    HW145612   3.755   9.910   6.313
14535SOL    HW245613   3.764   9.759  28.402
14536SOL     OW45614   3.829   2.053   5.487
14536SOL    HW145615   3.843  13.185   5.508
14536SOL    HW245616   3.749   2.053  16.473
14537SOL     OW45617   9.119   6.674   0.828
14537SOL    HW145618  -1.972   6.608   0.875
14537SOL    HW245619   9.079   6.679   0.741
14538SOL     OW45620   4.846   5.434   0.799
14538SOL    HW145621   4.794   5.409   0.723
14538SOL    HW245622   4.849   5.356   0.854
14539SOL     OW45623   6.519   0.396   7.977
14539SOL    HW145624   6.463   0.469  -3.035
14539SOL    HW245625 -37.550   0.430   7.986
14540SOL     OW45626   3.062   2.937   2.024
14540SOL    HW145627   3.155   2.937   2.004
14540SOL    HW245628   3.052   2.871   2.093
14541SOL     OW45629   4.872   9.473   2.741
14541SOL    HW145630   4.790  20.495   2.788
14541SOL    HW245631 -17.224   9.442  13.691
14542SOL     OW45632   2.981   7.678   5.764
14542SOL    HW145633   2.987 -25.355   5.721
14542SOL    HW245634   2.890  -3.366 -16.286
14543SOL     OW45635   3.494   8.201   1.606
14543SOL    HW145636  14.494   8.288  12.656
14543SOL    HW245637  25.506   8.150  12.599
14544SOL     OW45638   4.028   1.555  10.336
14544SOL    HW145639  -7.070   1.491  21.416
14544SOL    HW245640 -18.062  34.658  10.242
14545SOL     OW45641   8.467   2.366   6.301
14545SOL    HW145642  19.579 -30.793   6.349
14545SOL    HW245643   8.492   2.458   6.295
14546SOL     OW45644  10.953   6.061   6.684
14546SOL    HW145645  10.922  17.133   6.768
14546SOL    HW245646  -0.161   6.014   6.647
14547SOL     OW45647   3.395   0.198   0.391
14547SOL    HW145648  14.388   0.276   0.420
14547SOL    HW245649   3.423   0.156   0.472
14548SOL     OW45650   2.716   4.186   7.163
14548SOL    HW145651   2.669   4.159   7.084
14548SOL    HW245652  13.794  -6.935   7.197
14549SOL     OW45653   2.967   4.017   2.812
14549SOL    HW145654   2.960   3.932  -8.183
14549SOL    HW245655   3.008   4.075   2.876
14550SOL     OW45656   3.478   4.400   8.957
14550SOL    HW145657  36.545   4.399  20.077
14550SOL    HW245658  14.454   4.416   8.887
14551SOL     OW45659  10.237   1.933  11.651
14551SOL    HW145660  10.282  13.019 -10.499
14551SOL    HW245661  10.188   1.864  11.607
14552SOL     OW45662   0.552   4.031   4.710
14552SOL    HW145663   0.509   4.116  15.764
14552SOL    HW245664   0.496   3.986  26.726
14553SOL     OW45665   0.923   3.354   5.898
14553SOL    HW145666   0.838  -7.686  27.933
14553SOL    HW245667   0.953   3.444  27.972
14554SOL     OW45668   7.772   8.104   9.683
14554SOL    HW145669   7.772   8.010   9.699
14554SOL    HW245670  -3.288   8.143 -12.310
14555SOL     OW45671   5.640   6.477   9.849
14555SOL    HW145672   5.684   6.392   9.859
14555SOL    HW245673   5.684  17.558   9.775
14556SOL     OW45674   3.021   4.605   6.325
14556SOL    HW145675   3.087  15.650   6.256
14556SOL    HW245676 -19.098  26.771 -15.751
14557SOL     OW45677   6.760   0.386   5.706
14557SOL    HW145678   6.770   0.472  16.786
14557SOL    HW245679   6.695  33.518   5.637
14558SOL     OW45680   8.022   9.167   8.483
14558SOL    HW145681   7.972   9.086   8.488
14558SOL    HW245682   7.961   9.231   8.445
14559SOL     OW45683   1.385   1.592   6.847
14559SOL    HW145684   1.325  -9.521 -15.224
14559SOL    HW245685   1.472  -9.487   6.857
14560SOL     OW45686   9.069   2.952  10.609
14560SOL    HW145687   9.087   2.977  10.700
14560SOL    HW245688  -2.031  14.058 -11.502
14561SOL     OW45689   0.459   3.293   2.930
14561SOL    HW145690   0.411 -18.851  24.958
14561SOL    HW245691   0.394  14.368   2.990
14562SOL     OW45692   9.203   5.116   8.603
14562SOL    HW145693   9.270  -5.856   8.591
14562SOL    HW245694   9.192   5.110  41.817
14563SOL     OW45695   4.056   7.457  10.430
14563SOL    HW145696   4.036   7.526  10.493
14563SOL    HW245697  26.217   7.485  10.389
14564SOL     OW45698   4.290   1.029   8.617
14564SOL    HW145699   4.359   0.965   8.596
14564SOL    HW245700   4.306   1.051   8.709
14565SOL     OW45701   2.149  11.199   7.214
14565SOL    HW145702 -30.925 -10.945   7.270
14565SOL    HW245703   2.057 -10.886  18.278
14566SOL     OW45704  -0.376   7.070   2.461
14566SOL    HW145705  -0.313  -3.905   2.491
14566SOL    HW245706  10.712 -15.091  -8.581
14567SOL     OW45707  -2.324   9.681   5.265
14567SOL    HW145708  41.889  31.791  27.417
14567SOL    HW245709  -2.291  -1.312   5.188
14568SOL     OW45710   0.191   0.179   9.547
14568SOL    HW145711  22.273  33.229   9.613
14568SOL    HW245712  11.271  33.373   9.590
14569SOL     OW45713   9.874  10.268   7.428
14569SOL    HW145714   9.835  10.272   7.341
14569SOL    HW245715   9.906  10.178  29.515
14570SOL     OW45716   7.238  10.086   8.380
14570SOL    HW145717   7.171  -0.976   8.444
14570SOL    HW245718   7.246  10.007   8.325
14571SOL     OW45719   9.481  10.670   8.070
14571SOL    HW145720   9.439  10.644   7.988
14571SOL    HW245721  31.631  10.728   8.042
14572SOL     OW45722   5.712   3.043   2.830
14572SOL    HW145723   5.727   3.069   2.920
14572SOL    HW245724   5.616   3.043   2.820
14573SOL     OW45725   4.859   9.453   0.733
14573SOL    HW145726   4.864   9.530   0.677
14573SOL    HW245727   4.789   9.400   0.694
14574SOL     OW45728   5.577   9.145  10.031
14574SOL    HW145729   5.664   9.167   9.997
14574SOL    HW245730   5.586   9.156  10.126
14575SOL     OW45731   3.714   5.231   0.749
14575SOL    HW145732  25.750   5.292   0.690
14575SOL    HW245733  -7.244 -27.844   0.774
14576SOL     OW45734   0.496   2.955   7.428
14576SOL    HW145735   0.404  25.055   7.443
14576SOL    HW245736   0.536   2.957   7.516
14577SOL     OW45737   7.833   5.181   6.461
14577SOL    HW145738   7.851  16.195   6.552
14577SOL    HW245739   7.741  -5.832  17.501
14578SOL     OW45740   0.200   6.696   7.611
14578SOL    HW145741   0.181   6.602   7.619
14578SOL    HW245742  11.179   6.738  -3.368
14579SOL     OW45743   3.695   2.039   4.261
14579SOL    HW145744 -18.346   2.103  -6.718
14579SOL    HW245745   3.601   2.054   4.266
14580SOL     OW45746   6.189   9.290   4.803
14580SOL    HW145747  39.259   9.221   4.849
14580SOL    HW245748   6.134   9.368   4.810
14581SOL     OW45749   3.147  10.338   1.333
14581SOL    HW145750  14.231  10.364   1.253
14581SOL    HW245751  14.249  21.397   1.403
14582SOL     OW45752   8.407   7.616   8.706
14582SOL    HW145753 -24.749  18.613   8.783
14582SOL    HW245754  -2.695   7.596  -2.404
14583SOL     OW45755   8.317   0.124   3.774
14583SOL    HW145756  -2.694   0.191   3.836
14583SOL    HW245757   8.385   0.056  -7.260
14584SOL     OW45758   3.343   7.736   1.267
14584SOL    HW145759   3.404   7.809   1.272
14584SOL    HW245760   3.367   7.690   1.186
14585SOL     OW45761  -0.475   4.087   3.489
14585SOL    HW145762  21.640   4.103   3.402
14585SOL    HW245763  -0.566  15.155  25.563
14586SOL     OW45764  10.527  10.147   6.182
14586SOL    HW145765  10.515  -0.859   6.093
14586SOL    HW245766  10.444  10.167   6.226
14587SOL     OW45767   4.374   9.179   4.728
14587SOL    HW145768   4.404   9.194   4.818
14587SOL    HW245769   4.433   9.112   4.694
14588SOL     OW45770   8.393  -0.929   4.340
14588SOL    HW145771  19.437  10.193  -6.748
14588SOL    HW245772  -2.619  21.174   4.429
14589SOL     OW45773   3.746   4.656   1.872
14589SOL    HW145774   3.751   4.590   1.941
14589SOL    HW245775   3.689   4.616   1.806
14590SOL     OW45776   0.853   2.694   7.388
14590SOL    HW145777   0.775   2.740   7.357
14590SOL    HW245778   0.823   2.605  51.565
14591SOL     OW45779  -1.749   7.708   8.858
14591SOL    HW145780  20.264   7.640  30.954
14591SOL    HW245781  42.449   7.682 -24.344
14592SOL     OW45782   4.408   8.398   0.343
14592SOL    HW145783  26.404   8.370   0.306
14592SOL    HW245784  37.542   8.340   0.418
14593SOL     OW45785   1.029   8.427   9.475
14593SOL    HW145786   1.051   8.344   9.518
14593SOL    HW245787   0.937   8.418  20.490
14594SOL     OW45788   7.325   3.552   0.143
14594SOL    HW145789   7.349   3.461   0.154
14594SOL    HW245790   7.239   3.550   0.100
14595SOL     OW45791   5.420   7.929   8.974
14595SOL    HW145792  -5.563  -3.042   8.939
14595SOL    HW245793 -16.598   7.870   9.019
14596SOL     OW45794  -2.018   2.832   4.506
14596SOL    HW145795  53.204   2.866   4.420
14596SOL    HW245796  31.036  46.922   4.487
14597SOL     OW45797   4.881   0.820   2.595
14597SOL    HW145798   4.823 -10.221   2.519
14597SOL    HW245799   4.917   0.731 -19.480
14598SOL     OW45800   3.109   0.146  10.776
14598SOL    HW145801  -7.859   0.147  10.713
14598SOL    HW245802   3.151  11.169  10.860
14599SOL     OW45803   3.693   9.349   4.191
14599SOL    HW145804   3.661   9.433  15.200
14599SOL    HW245805   3.771   9.332  -6.902
14600SOL     OW45806  11.139   3.608   6.908
14600SOL    HW145807 -10.999   3.577   6.977
14600SOL    HW245808  11.215   3.550   6.915
14601SOL     OW45809  13.454  10.192   4.354
14601SOL    HW145810  -8.643  10.108  26.475
14601SOL    HW245811 -19.748  10.216   4.313
14602SOL     OW45812   7.779   1.438  -0.152
14602SOL    HW145813   7.776  12.385  -0.126
14602SOL    HW245814  18.760   1.444  43.931
14603SOL     OW45815   9.201   4.567   1.710
14603SOL    HW145816   9.289  26.624  12.782
14603SOL    HW245817   9.170   4.634   1.769
14604SOL     OW45818   0.228   9.687   9.992
14604SOL    HW145819   0.279   9.612  10.022
14604SOL    HW245820   0.142   9.677  10.033
14605SOL     OW45821   1.880   4.896   4.461
14605SOL    HW145822   1.785   4.889   4.476
14605SOL    HW245823 -20.162   4.896   4.549
14606SOL     OW45824   9.561   7.881   3.630
14606SOL    HW145825   9.483   7.839   3.665
14606SOL    HW245826  20.654   7.901  14.746
14607SOL     OW45827   2.174   2.898   4.925
14607SOL    HW145828  -8.947   2.923  16.008
14607SOL    HW245829  -8.823  13.878   4.986
14608SOL     OW45830   5.961   8.062   5.079
14608SOL    HW145831   5.883  -2.922   5.084
14608SOL    HW245832   6.018  -2.946   5.149
14609SOL     OW45833   8.457   5.747   8.727
14609SOL    HW145834   8.533   5.743   8.784
14609SOL    HW245835   8.484   5.802   8.653
14610SOL     OW45836   5.243   4.555   3.798
14610SOL    HW145837  -5.773   4.627   3.857
14610SOL    HW245838  -5.830   4.599   3.720
14611SOL     OW45839   4.538   8.853   3.223
14611SOL    HW145840   4.477  -2.146 -29.956
14611SOL    HW245841   4.570  -2.264   3.177
14612SOL     OW45842   2.059   2.797   9.043
14612SOL    HW145843   2.079   2.813  19.990
14612SOL    HW245844   1.966  13.815   9.044
14613SOL     OW45845   4.670   1.419   8.385
14613SOL    HW145846   4.728  -9.619   8.309
14613SOL    HW245847   4.583   1.403   8.348
14614SOL     OW45848   8.483   9.857   2.399
14614SOL    HW145849 -24.671   9.777   2.438
14614SOL    HW245850  -2.530   9.830   2.311
14615SOL     OW45851   7.671   5.878   8.676
14615SOL    HW145852   7.722  -5.086   8.646
14615SOL    HW245853   7.626   5.847  19.637
14616SOL     OW45854   9.433   2.428   4.055
14616SOL    HW145855 -34.810   2.384   4.043
14616SOL    HW245856 -12.665   2.520   4.036
14617SOL     OW45857   4.138   8.943   6.024
14617SOL    HW145858   4.173   8.993   5.950
14617SOL    HW245859   4.104   9.008   6.084
14618SOL     OW45860   1.465   6.258   1.361
14618SOL    HW145861   1.410   6.331  12.371
14618SOL    HW245862   1.455  17.297  34.575
14619SOL     OW45863   4.625   2.219   3.979
14619SOL    HW145864   4.554   2.259  14.969
14619SOL    HW245865  -6.411  -8.771  37.179
14620SOL     OW45866   8.693   0.800   9.725
14620SOL    HW145867  -2.338   0.762   9.812
14620SOL    HW245868   8.609   0.766   9.693
14621SOL     OW45869  12.175   1.799   6.495
14621SOL    HW145870  12.217   1.863   6.554
14621SOL    HW245871  -9.991   1.787  -4.508
14622SOL     OW45872   5.009   7.201   1.764
14622SOL    HW145873   4.917   7.177   1.752
14622SOL    HW245874   5.010   7.256   1.842
14623SOL     OW45875   1.458   0.308   6.250
14623SOL    HW145876   1.444   0.223   6.208
14623SOL    HW245877  12.414   0.354  -4.800
14624SOL     OW45878   1.690  10.425   8.347
14624SOL    HW145879   1.743  10.362  30.377
14624SOL    HW245880   1.615  10.443  19.330
14625SOL     OW45881  10.164   7.840   0.566
14625SOL    HW145882  10.210   7.773   0.616
14625SOL    HW245883  10.164   7.808   0.476
14626SOL     OW45884   8.710   5.154   7.936
14626SOL    HW145885   8.740   5.191  19.058
14626SOL    HW245886  19.830   5.122   7.893
14627SOL     OW45887   4.768   6.202   6.522
14627SOL    HW145888   4.735 -15.833   6.444
14627SOL    HW245889   4.707 -15.950  17.574
14628SOL     OW45890   3.157  11.541   8.037
14628SOL    HW145891  14.150  11.625   8.030
14628SOL    HW245892   3.104   0.441  19.025
14629SOL     OW45893   1.323   1.335   5.514
14629SOL    HW145894   1.375  45.456   5.442
14629SOL    HW245895   1.233  12.349   5.494
14630SOL     OW45896   0.456   5.536   8.735
14630SOL    HW145897   0.532  16.583   8.677
14630SOL    HW245898   0.428  -5.413   8.749
14631SOL     OW45899   9.009   2.675   7.840
14631SOL    HW145900   8.942  13.748   7.899
14631SOL    HW245901   9.082   2.737   7.849
14632SOL     OW45902  -0.385   8.478   9.999
14632SOL    HW145903  21.649   8.529  10.066
14632SOL    HW245904  10.744   8.468  10.032
14633SOL     OW45905   1.638   9.780  10.604
14633SOL    HW145906   1.560  31.805 -11.467
14633SOL    HW245907   1.683   9.746  -0.513
14634SOL     OW45908   8.404   2.385   9.398
14634SOL    HW145909  -2.572  13.496   9.404
14634SOL    HW245910  19.428   2.374  -1.735
14635SOL     OW45911   9.018   1.554   1.206
14635SOL    HW145912  -2.044  12.635   1.290
14635SOL    HW245913   8.970   1.604   1.141
14636SOL     OW45914   0.140   0.438  10.067
14636SOL    HW145915   0.179   0.474 -12.091
14636SOL    HW245916   0.187   0.355  10.081
14637SOL     OW45917   4.219   0.966   8.024
14637SOL    HW145918   4.246   0.973   8.115
14637SOL    HW245919   4.300   0.977   7.974
14638SOL     OW45920   3.788   8.853   7.209
14638SOL    HW145921   3.739  19.970   7.237
14638SOL    HW245922   3.799  30.881  18.329
14639SOL     OW45923   5.426   1.168   3.452
14639SOL    HW145924   5.380  -9.788  14.497
14639SOL    HW245925   5.388   1.124   3.376
14640SOL     OW45926   6.750   6.320   0.679
14640SOL    HW145927  -4.310   6.349  11.807
14640SOL    HW245928   6.740   6.398   0.624
14641SOL     OW45929   8.885  -0.059   5.074
14641SOL    HW145930  20.020  10.988   5.074
14641SOL    HW245931   8.854   0.030  -5.950
14642SOL     OW45932   0.962   2.589   5.582
14642SOL    HW145933   0.971  -8.542   5.609
14642SOL    HW245934   1.005   2.639  27.730
14643SOL     OW45935   6.473   4.722   2.190
14643SOL    HW145936   6.551   4.760   2.149
14643SOL    HW245937  28.563 -28.491  13.220
14644SOL     OW45938  10.022   3.691  -0.357
14644SOL    HW145939  -1.099  14.780  -0.366
14644SOL    HW245940  10.086   3.740  10.633
14645SOL     OW45941   5.246   7.440   3.499
14645SOL    HW145942  16.246   7.375  -7.599
14645SOL    HW245943  -5.868 -14.601   3.546
14646SOL     OW45944   7.332   1.772   5.387
14646SOL    HW145945   7.386   1.838   5.431
14646SOL    HW245946   7.362   1.773   5.296
14647SOL     OW45947   7.924   2.676   3.705
14647SOL    HW145948   7.881   2.734   3.643
14647SOL    HW245949   8.017   2.700  14.740
14648SOL     OW45950  -0.351   7.044   4.280
14648SOL    HW145951  -0.328  -3.905   4.302
14648SOL    HW245952  10.626  18.057   4.347
14649SOL     OW45953   3.850   9.134   7.855
14649SOL    HW145954   3.823  42.266  29.843
14649SOL    HW245955   3.941 -24.014   7.848
14650SOL     OW45956   7.527   1.768   0.358
14650SOL    HW145957  -3.477   1.857   0.368
14650SOL    HW245958   7.519   1.735  11.487
14651SOL     OW45959   2.064   1.671   6.371
14651SOL    HW145960  13.192  12.674  17.402
14651SOL    HW245961   2.020   1.613   6.433
14652SOL     OW45962   6.376   2.759   6.948
14652SOL    HW145963   6.460   2.795   6.978
14652SOL    HW245964  17.350   2.818   6.986
14653SOL     OW45965   5.493   1.213   0.814
14653SOL    HW145966  -5.635  -9.859   0.830
14653SOL    HW245967  -5.529   1.190   0.723
14654SOL     OW45968   6.644   3.171   6.892
14654SOL    HW145969  28.651 -18.933   6.949
14654SOL    HW245970   6.690   3.241  17.979
14655SOL     OW45971  11.089   0.014   0.172
14655SOL    HW145972  11.077   0.030   0.078
14655SOL    HW245973  -0.031   0.045   0.212
14656SOL     OW45974   6.253   0.316   4.913
14656SOL    HW145975   6.290   0.362   4.988
14656SOL    HW245976  17.241   0.382  -6.173
14657SOL     OW45977   7.123   2.614   5.504
14657SOL    HW145978   7.104   2.674  27.655
14657SOL    HW245979   7.207   2.645  38.588
14658SOL     OW45980   9.994   7.515   3.509
14658SOL    HW145981   9.977  29.641  -7.449
14658SOL    HW245982  10.088   7.501  14.548
14659SOL     OW45983   4.526   8.768   4.112
14659SOL    HW145984   4.549  -2.244  37.142
14659SOL    HW245985  -6.603   8.801   4.125
14660SOL     OW45986   9.844  10.215   6.702
14660SOL    HW145987   9.934  10.223  -4.306
14660SOL    HW245988   9.851  21.205  28.700
14661SOL     OW45989   3.279   8.055   8.918
14661SOL    HW145990   3.337   8.100   8.980
14661SOL    HW245991  14.264   8.000  -2.066
14662SOL     OW45992   0.417   7.892  10.877
14662SOL    HW145993   0.378  29.920  10.948
14662SOL    HW245994   0.478   7.832  10.834
14663SOL     OW45995   3.810   1.349   3.677
14663SOL    HW145996  14.811   1.432   3.648
14663SOL    HW245997   3.896   1.374  -7.328
14664SOL     OW45998   4.369  11.174   5.628
14664SOL    HW145999   4.454   0.146  -5.456
14664SOL    HW246000   4.385   0.164   5.718
14665SOL     OW46001   6.248   5.876   7.100
14665SOL    HW146002  28.289   5.948   7.152
14665SOL    HW246003   6.209   5.797   7.137
14666SOL     OW46004   7.776   7.047   4.316
14666SOL    HW146005  -3.345  40.138  15.398
14666SOL    HW246006   7.766  29.221  15.344
14667SOL     OW46007   4.461   7.301   7.959
14667SOL    HW146008   4.489   7.219 -14.080
14667SOL    HW246009   4.383  29.406   8.008
14668SOL     OW46010   6.592   8.737   2.775
14668SOL    HW146011   6.659   8.800 -19.279
14668SOL    HW246012  -4.464   8.687   2.855
14669SOL     OW46013   1.954   8.011   4.654
14669SOL    HW146014   2.031   8.069 -17.423
14669SOL    HW246015   1.903  19.077 -17.349
14670SOL     OW46016   7.498   4.819   9.291
14670SOL    HW146017  18.632   4.811  -1.733
14670SOL    HW246018  -3.557 -17.306   9.209
14671SOL     OW46019   1.482   1.186   7.263
14671SOL    HW146020   1.497   1.138 -14.897
14671SOL    HW246021   1.387  12.220   7.278
14672SOL     OW46022   2.560  12.187   7.699
14672SOL    HW146023  13.595   1.079  -3.408
14672SOL    HW246024   2.650 -20.900  -3.345
14673SOL     OW46025   2.103   5.627   5.812
14673SOL    HW146026  24.227  -5.331  16.831
14673SOL    HW246027   2.171  16.600   5.809
14674SOL     OW46028  -0.391   1.563   1.335
14674SOL    HW146029  -0.360  12.692  -9.693
14674SOL    HW246030  10.706   1.525   1.269
14675SOL     OW46031   9.246  12.170   1.900
14675SOL    HW146032   9.214   1.158  -9.053
14675SOL    HW246033   9.226  -9.836   1.842
14676SOL     OW46034   0.903   3.111   4.189
14676SOL    HW146035   0.906  14.169   4.095
14676SOL    HW246036 -10.046   3.125   4.219
14677SOL     OW46037   1.933   0.131  10.890
14677SOL    HW146038   1.954   0.065  -0.216
14677SOL    HW246039   1.956   0.215  10.848
14678SOL     OW46040  10.016   8.484   0.433
14678SOL    HW146041  10.046  30.561   0.342
14678SOL    HW246042   9.930   8.442   0.431
14679SOL     OW46043   5.011   3.366  -1.151
14679SOL    HW146044   4.936   3.311  20.950
14679SOL    HW246045   4.997   3.446  -1.099
14680SOL     OW46046   2.042   6.824   4.377
14680SOL    HW146047   1.969   6.882   4.399
14680SOL    HW246048  -8.975   6.846   4.287
14681SOL     OW46049   0.551   6.296   9.267
14681SOL    HW146050   0.568  17.429  31.353
14681SOL    HW246051   0.599  -4.783   9.339
14682SOL     OW46052   9.924   9.124   0.244
14682SOL    HW146053   9.938  20.238   0.186
14682SOL    HW246054  10.001  31.147  11.269
14683SOL     OW46055   2.845   6.755  10.258
14683SOL    HW146056   2.893  17.831  21.372
14683SOL    HW246057  -8.203   6.662  10.278
14684SOL     OW46058   2.739   0.836   5.196
14684SOL    HW146059   2.768  22.924   5.287
14684SOL    HW246060   2.661   0.781   5.201
14685SOL     OW46061   8.633   1.550   1.713
14685SOL    HW146062   8.541   1.566   1.734
14685SOL    HW246063   8.681   1.573   1.793
14686SOL     OW46064   7.081   7.086   5.911
14686SOL    HW146065   7.053   7.098   5.820
14686SOL    HW246066   7.115   6.997   5.914
14687SOL     OW46067   2.783   7.865   4.433
14687SOL    HW146068   2.866   7.888   4.391
14687SOL    HW246069  13.769   7.829   4.362
14688SOL     OW46070   3.697   6.140   7.904
14688SOL    HW146071  -7.394  -4.871   7.829
14688SOL    HW246072  36.900   6.114   7.868
14689SOL     OW46073   6.104   4.191  10.164
14689SOL    HW146074   6.075   4.158  10.249
14689SOL    HW246075  39.199   4.122  10.102
14690SOL     OW46076   9.900  11.481   7.947
14690SOL    HW146077  -1.222 -10.648   7.942
14690SOL    HW246078  -1.153 -10.538  -3.019
14691SOL     OW46079   9.620   5.540   9.402
14691SOL    HW146080   9.672   5.593  -1.577
14691SOL    HW246081   9.645   5.571  20.355
14692SOL     OW46082   5.848  10.238   2.749
14692SOL    HW146083   5.853  10.160   2.694
14692SOL    HW246084   5.936  -0.763   2.744
14693SOL     OW46085   9.636   1.481   5.545
14693SOL    HW146086   9.716   1.528   5.524
14693SOL    HW246087   9.567   1.547   5.543
14694SOL     OW46088   8.285   7.735   4.967
14694SOL    HW146089   8.357  -3.244   4.988
14694SOL    HW246090   8.219   7.752  16.074
14695SOL     OW46091   3.663   7.565   5.794
14695SOL    HW146092   3.583   7.587  -5.295
14695SOL    HW246093   3.718   7.643   5.786
14696SOL     OW46094   8.500   9.114   5.761
14696SOL    HW146095   8.444   9.192   5.765
14696SOL    HW246096   8.579  -1.901  16.848
14697SOL     OW46097   8.242   0.366  10.368
14697SOL    HW146098  30.330 -10.613  10.294
14697SOL    HW246099   8.156  22.465  10.404
14698SOL     OW46100   5.522   7.584   5.895
14698SOL    HW146101   5.445  29.699   5.939
14698SOL    HW246102  -5.445  18.643  28.034
14699SOL     OW46103   8.912   7.012   9.134
14699SOL    HW146104   8.951   6.995   9.048
14699SOL    HW246105 -24.179  -4.101  -1.852
14700SOL     OW46106   5.702   8.221   2.642
14700SOL    HW146107  27.863  30.256  13.703
14700SOL    HW246108   5.648   8.153   2.600
14701SOL     OW46109   2.863   7.659   9.107
14701SOL    HW146110  -8.141   7.584   9.058
14701SOL    HW246111  -8.137   7.735  31.145
14702SOL     OW46112   7.688   3.384   2.453
14702SOL    HW146113   7.719   3.294  -8.578
14702SOL    HW246114   7.654   3.390  24.443
14703SOL     OW46115   8.866   3.578   5.834
14703SOL    HW146116   8.876   3.545 -38.413
14703SOL    HW246117   8.946   3.629 -38.308
14704SOL     OW46118   6.711   9.363   6.999
14704SOL    HW146119   6.766   9.396  18.109
14704SOL    HW246120   6.695   9.440   6.944
14705SOL     OW46121   0.640   4.506   4.021
14705SOL    HW146122   0.683   4.530   3.939
14705SOL    HW246123   0.565   4.565   4.026
14706SOL     OW46124  -0.317   9.387   5.834
14706SOL    HW146125  -0.307   9.481   5.844
14706SOL    HW246126  32.764   9.376  16.786
14707SOL     OW46127  11.365   4.247   4.940
14707SOL    HW146128  11.326   4.167   4.977
14707SOL    HW246129 -10.691   4.299   5.017
14708SOL     OW46130   7.633   2.321   9.488
14708SOL    HW146131  -3.347  13.295   9.450
14708SOL    HW246132   7.596   2.277   9.564
14709SOL     OW46133  -0.343   6.063   8.719
14709SOL    HW146134  -0.287   6.115   8.776
14709SOL    HW246135  10.657   6.127   8.659
14710SOL     OW46136  10.552   4.558   3.281
14710SOL    HW146137  10.588   4.486   3.230
14710SOL    HW246138  10.625   4.588  14.375
14711SOL     OW46139   1.076   3.575  10.451
14711SOL    HW146140   1.003  14.578  10.403
14711SOL    HW246141  23.175   3.657  10.407
14712SOL     OW46142   1.428   1.756   7.253
14712SOL    HW146143   1.499   1.812   7.283
14712SOL    HW246144   1.434   1.759   7.157
14713SOL     OW46145   3.486   7.430   5.020
14713SOL    HW146146   3.539 -14.722  16.026
14713SOL    HW246147  14.479 -14.685   5.095
14714SOL     OW46148  13.374   1.708   1.754
14714SOL    HW146149 -19.723   1.800   1.739
14714SOL    HW246150   2.239  12.745   1.758
14715SOL     OW46151   9.056   1.231  -1.559
14715SOL    HW146152   9.145   1.230  20.484
14715SOL    HW246153   9.010   1.296   9.428
14716SOL     OW46154   6.831   1.116   1.738
14716SOL    HW146155   6.780   1.036   1.750
14716SOL    HW246156   6.784   1.164  12.709
14717SOL     OW46157   2.969   7.538   0.648
14717SOL    HW146158  -8.134   7.524   0.719
14717SOL    HW246159   2.996   7.630   0.657
14718SOL     OW46160   0.068   1.931   3.249
14718SOL    HW146161   0.117   1.963  25.252
14718SOL    HW246162  11.163   1.863   3.287
14719SOL     OW46163   8.569   2.768  10.083
14719SOL    HW146164 -13.525   2.739  21.213
14719SOL    HW246165   8.619   2.849  -0.947
14720SOL     OW46166  10.223  10.839   2.765
14720SOL    HW146167  10.129  10.843  -8.259
14720SOL    HW246168  10.234  10.770   2.699
14721SOL     OW46169   4.185   6.604   1.193
14721SOL    HW146170   4.235   6.622   1.114
14721SOL    HW246171  26.324   6.625   1.265
14722SOL     OW46172   5.660   5.724  -0.239
14722SOL    HW146173   5.666   5.633  10.827
14722SOL    HW246174  38.863  16.782  -0.281
14723SOL     OW46175   6.771   0.721  -0.226
14723SOL    HW146176   6.715   0.696  -0.151
14723SOL    HW246177  -4.186   0.746  10.854
14724SOL     OW46178   3.835   4.225   1.262
14724SOL    HW146179  14.930   4.156  -9.814
14724SOL    HW246180  -7.280   4.229   1.204
14725SOL     OW46181   8.287   0.633   9.154
14725SOL    HW146182   8.338  33.804   9.092
14725SOL    HW246183   8.203  22.757   9.159
14726SOL     OW46184   7.059   6.349   2.306
14726SOL    HW146185   7.089   6.435   2.276
14726SOL    HW246186   7.136 -15.786   2.299
14727SOL     OW46187  10.275   7.758  10.283
14727SOL    HW146188  10.226   7.756  -0.838
14727SOL    HW246189  10.362   7.788  10.258
14728SOL     OW46190   3.630   1.839   1.762
14728SOL    HW146191   3.647  24.008   1.789
14728SOL    HW246192   3.713  12.849 -20.356
14729SOL     OW46193   2.867   2.235  10.303
14729SOL    HW146194   2.960   2.236  10.328
14729SOL    HW246195   2.822   2.203  10.381
14730SOL     OW46196   1.721   5.932   7.059
14730SOL    HW146197   1.677   5.880   7.126
14730SOL    HW246198   1.814   5.926   7.081
14731SOL     OW46199   9.654   0.979   4.060
14731SOL    HW146200  -1.333  11.947   4.095
14731SOL    HW246201  -1.406 -10.088   3.970
14732SOL     OW46202   6.078  10.534   4.113
14732SOL    HW146203  -4.892  -0.483   4.050
14732SOL    HW246204   6.001  -0.458   4.082
14733SOL     OW46205  -0.402   6.248   1.704
14733SOL    HW146206  10.692  39.369   1.625
14733SOL    HW246207  -0.348   6.205   1.770
14734SOL     OW46208   2.331   4.476   8.946
14734SOL    HW146209 -19.778   4.392   8.913
14734SOL    HW246210   2.318   4.537   8.873
14735SOL     OW46211  10.348   3.731   8.715
14735SOL    HW146212  10.323  14.687   8.755
14735SOL    HW246213  10.443   3.724   8.703
14736SOL     OW46214   9.658   6.048   4.346
14736SOL    HW146215   9.676   6.142  48.518
14736SOL    HW246216   9.598  17.064  15.456
14737SOL     OW46217   3.641   5.722   3.834
14737SOL    HW146218   3.698 -16.386   3.762
14737SOL    HW246219   3.554   5.729   3.794
14738SOL     OW46220   6.406  -0.919   6.818
14738SOL    HW146221   6.449  10.147  -4.303
14738SOL    HW246222   6.334  43.302   6.828
14739SOL     OW46223   1.772   7.667   3.505
14739SOL    HW146224   1.714   7.667  14.621
14739SOL    HW246225   1.840   7.730  14.567
14740SOL     OW46226   3.644   4.514   3.933
14740SOL    HW146227  -7.345  15.486   3.978
14740SOL    HW246228   3.553  15.526   3.941
14741SOL     OW46229   8.659   3.089   1.687
14741SOL    HW146230   8.570   3.115   1.710
14741SOL    HW246231   8.707   3.172   1.680
14742SOL     OW46232   9.011  11.023  10.163
14742SOL    HW146233   8.969   0.060  -0.914
14742SOL    HW246234   8.998  11.031 -11.822
14743SOL     OW46235   1.010   5.728   8.240
14743SOL    HW146236   0.919 -16.359   8.269
14743SOL    HW246237  -9.997   5.638   8.240
14744SOL     OW46238  10.741   1.915   7.115
14744SOL    HW146239  21.738   1.830  -3.939
14744SOL    HW246240  -0.209   1.893   7.140
14745SOL     OW46241   0.359   7.914   6.645
14745SOL    HW146242   0.297   7.841   6.647
14745SOL    HW246243   0.380   7.930 -15.342
14746SOL     OW46244   0.433  -0.983   1.510
14746SOL    HW146245   0.520  32.138  12.511
14746SOL    HW246246   0.416  -0.893  23.616
14747SOL     OW46247   9.518   3.834   3.161
14747SOL    HW146248   9.502   3.771  14.271
14747SOL    HW246249  -1.603  14.924   3.156
14748SOL     OW46250   0.311   6.196   8.398
14748SOL    HW146251   0.272  -4.904   8.462
14748SOL    HW246252   0.404   6.173   8.397
14749SOL     OW46253   2.439   4.094   5.035
14749SOL    HW146254   2.509   4.149  16.108
14749SOL    HW246255   2.362   4.119   5.087
14750SOL     OW46256   0.413   2.634   4.506
14750SOL    HW146257   0.490  13.670  -6.590
14750SOL    HW246258   0.444   2.676  -6.453
14751SOL     OW46259   3.694   4.621   3.650
14751SOL    HW146260  -7.347   4.678   3.728
14751SOL    HW246261   3.650   4.541 -29.440
14752SOL     OW46262   7.786   8.112   4.589
14752SOL    HW146263   7.881   8.113   4.599
14752SOL    HW246264   7.753   8.095   4.678
14753SOL     OW46265   2.266   2.338   6.707
14753SOL    HW146266  -8.859   2.382   6.708
14753SOL    HW246267   2.262   2.279   6.632
14754SOL     OW46268   2.181   3.113   6.405
14754SOL    HW146269  13.259  25.172  28.569
14754SOL    HW246270   2.233   3.186   6.371
14755SOL     OW46271   5.133   6.926   3.457
14755SOL    HW146272   5.104 -15.137   3.546
14755SOL    HW246273   5.226   6.948   3.457
14756SOL     OW46274  10.828  -0.485   4.378
14756SOL    HW146275  10.831  -0.442   4.463
14756SOL    HW246276  10.769  21.649  26.405
14757SOL     OW46277   8.142   4.619   9.743
14757SOL    HW146278   8.185   4.704  20.777
14757SOL    HW246279  19.138   4.609   9.659
14758SOL     OW46280   9.958   5.618   6.262
14758SOL    HW146281 -12.126   5.685  17.233
14758SOL    HW246282  20.968   5.663   6.341
14759SOL     OW46283   8.334   6.298   9.610
14759SOL    HW146284  30.463   6.232   9.562
14759SOL    HW246285   8.355   6.281   9.702
14760SOL     OW46286   6.675   5.701   9.238
14760SOL    HW146287   6.735   5.775   9.228
14760SOL    HW246288   6.591   5.740   9.260
14761SOL     OW46289   5.942   3.653   6.576
14761SOL    HW146290   5.979   3.709   6.508
14761SOL    HW246291   5.943   3.707   6.655
14762SOL     OW46292  11.032   0.515   2.962
14762SOL    HW146293  11.038   0.604  -8.112
14762SOL    HW246294  11.089   0.516   3.039
14763SOL     OW46295   9.174   4.911   0.638
14763SOL    HW146296  31.317   4.851   0.677
14763SOL    HW246297   9.188   4.994   0.685
14764SOL     OW46298   5.730   8.269   0.265
14764SOL    HW146299   5.818  -2.747  11.278
14764SOL    HW246300   5.739   8.183   0.307
14765SOL     OW46301  -0.349   7.406   5.291
14765SOL    HW146302  10.689   7.319   5.332
14765SOL    HW246303  -0.336   7.467   5.363
14766SOL     OW46304   5.612   0.785   0.552
14766SOL    HW146305   5.516   0.794  22.633
14766SOL    HW246306   5.641  11.894   0.493
14767SOL     OW46307   5.332   9.085   2.554
14767SOL    HW146308  16.423   9.025   2.499
14767SOL    HW246309   5.241   9.064   2.533
14768SOL     OW46310   9.001   4.853  -1.089
14768SOL    HW146311   9.090  -6.152  20.982
14768SOL    HW246312  -2.029  26.850  -1.041
14769SOL     OW46313   9.428   8.437   1.156
14769SOL    HW146314  20.437   8.394   1.076
14769SOL    HW246315   9.510   8.393   1.177
14770SOL     OW46316   0.603   2.667   7.613
14770SOL    HW146317  11.637   2.763   7.621
14770SOL    HW246318   0.513 -19.442  18.664
14771SOL     OW46319   1.620   2.545   2.125
14771SOL    HW146320   1.630  -8.489   2.220
14771SOL    HW246321  12.646   2.635   2.097
14772SOL     OW46322   2.125   3.902   9.478
14772SOL    HW146323   2.216   3.925  20.499
14772SOL    HW246324  13.146   3.945   9.561
14773SOL     OW46325   2.372   1.961   2.172
14773SOL    HW146326  -8.625   2.045 -19.893
14773SOL    HW246327   2.333  35.086   2.085
14774SOL     OW46328   2.990   4.068   2.271
14774SOL    HW146329  -8.009  -6.955   2.186
14774SOL    HW246330   2.902   4.036  -8.790
14775SOL     OW46331   2.939   0.855   6.827
14775SOL    HW146332  -8.079   0.779   6.882
14775SOL    HW246333 -19.197   0.909 -15.197
14776SOL     OW46334   1.286   1.471  11.035
14776SOL    HW146335   1.259  12.471  33.197
14776SOL    HW246336   1.220   1.538 -11.061
14777SOL     OW46337  11.271   4.341   8.192
14777SOL    HW146338   0.176   4.274   8.232
14777SOL    HW246339  11.249  -6.702   8.099
14778SOL     OW46340   7.721   9.549   8.158
14778SOL    HW146341   7.677  20.641  19.131
14778SOL    HW246342  29.829   9.613   8.223
14779SOL     OW46343   0.225   3.267   0.117
14779SOL    HW146344   0.295 -18.756   0.082
14779SOL    HW246345   0.270   3.203   0.172
14780SOL     OW46346   9.934  10.030  10.937
14780SOL    HW146347   9.943  -1.008  -0.007
14780SOL    HW246348   9.849   9.990  10.921
14781SOL     OW46349   7.005   5.218   9.268
14781SOL    HW146350   6.941   5.279  31.383
14781SOL    HW246351   7.051   5.268   9.200
14782SOL     OW46352   7.381   0.039   5.119
14782SOL    HW146353   7.310   0.060   5.181
14782SOL    HW246354   7.428  11.161   5.108
14783SOL     OW46355   9.649   7.675   5.132
14783SOL    HW146356   9.645   7.598  -5.964
14783SOL    HW246357   9.702  18.777   5.083
14784SOL     OW46358   4.671   2.751   1.101
14784SOL    HW146359   4.695  13.855   1.035
14784SOL    HW246360   4.576   2.747   1.098
14785SOL     OW46361   1.694   3.723   0.154
14785SOL    HW146362  23.814   3.779   0.220
14785SOL    HW246363   1.624   3.777   0.116
14786SOL     OW46364   6.667   9.472  10.097
14786SOL    HW146365   6.745   9.450  -0.993
14786SOL    HW246366  -4.340   9.528  10.167
14787SOL     OW46367   1.644   3.418   3.684
14787SOL    HW146368   1.730   3.434   3.724
14787SOL    HW246369   1.617  -7.706   3.719
14788SOL     OW46370   0.264   4.389   9.237
14788SOL    HW146371   0.171   4.398  31.298
14788SOL    HW246372  11.341   4.358  -1.886
14789SOL     OW46373   2.230   5.275  10.484
14789SOL    HW146374  13.268   5.281  10.579
14789SOL    HW246375   2.321  -5.752  10.459
14790SOL     OW46376   9.512  10.245  -0.992
14790SOL    HW146377   9.478  10.283  21.005
14790SOL    HW246378   9.576  10.180  10.019
14791SOL     OW46379   3.059   2.829   7.406
14791SOL    HW146380  14.030   2.766 -14.696
14791SOL    HW246381   3.111   2.838  -3.713
14792SOL     OW46382   2.971   0.434   3.818
14792SOL    HW146383   3.053   0.413   3.773
14792SOL    HW246384   2.903   0.400   3.760
14793SOL     OW46385   2.336   1.412   4.232
14793SOL    HW146386   2.373  12.538  15.288
14793SOL    HW246387   2.262  -9.611 -17.905
14794SOL     OW46388   0.231   4.403   0.703
14794SOL    HW146389  33.300   4.461 -10.279
14794SOL    HW246390  22.348  -6.578   0.638
14795SOL     OW46391   3.721  10.803   7.947
14795SOL    HW146392  -7.348  10.780   8.035
14795SOL    HW246393   3.642  10.796  18.933
14796SOL     OW46394  11.625   7.664   3.903
14796SOL    HW146395  11.554   7.677   3.966
14796SOL    HW246396   0.665  -3.352  -7.088
14797SOL     OW46397   2.882   1.083   2.314
14797SOL    HW146398   2.817  -9.899  13.394
14797SOL    HW246399   2.901   1.124   2.230
14798SOL     OW46400   8.406   2.678   6.514
14798SOL    HW146401  19.416   2.643   6.598
14798SOL    HW246402  19.383  13.787   6.494
14799SOL     OW46403   7.811   9.715   2.467
14799SOL    HW146404   7.794   9.744   2.557
14799SOL    HW246405   7.891   9.760  13.482
14800SOL     OW46406  10.522   2.990   5.958
14800SOL    HW146407  10.470   3.064  -5.052
14800SOL    HW246408  10.611  -8.017   5.954
14801SOL     OW46409   0.797  10.721   3.378
14801SOL    HW146410   0.830  10.738  -7.750
14801SOL    HW246411   0.853  10.651 -18.668
14802SOL     OW46412   6.859   1.294   6.729
14802SOL    HW146413  17.944   1.278  17.686
14802SOL    HW246414  17.806   1.301  17.744
14803SOL     OW46415   6.639   4.000   9.099
14803SOL    HW146416   6.562   4.039   9.058
14803SOL    HW246417   6.628   3.906   9.087
14804SOL     OW46418  10.069   5.334   9.597
14804SOL    HW146419  10.024   5.298   9.521
14804SOL    HW246420  21.180  -5.653  20.600
14805SOL     OW46421   1.839   1.953  10.716
14805SOL    HW146422   1.777  -9.113  10.784
14805SOL    HW246423  -9.255   1.994  10.649
14806SOL     OW46424   7.174  10.045  10.417
14806SOL    HW146425  18.126  -1.032  21.449
14806SOL    HW246426   7.220  10.017  10.337
14807SOL     OW46427   4.798   9.847   7.051
14807SOL    HW146428   4.869   9.837   6.987
14807SOL    HW246429  59.939   9.772   7.035
14808SOL     OW46430   3.258   4.484   1.687
14808SOL    HW146431   3.246   4.570  -9.313
14808SOL    HW246432   3.174   4.440   1.700
14809SOL     OW46433   7.406   9.881   8.165
14809SOL    HW146434   7.325   9.928 -24.969
14809SOL    HW246435   7.463   9.944   8.210
14810SOL     OW46436   3.529  -0.560   1.599
14810SOL    HW146437   3.588  -0.627  -9.407
14810SOL    HW246438   3.585  21.595  -9.458
14811SOL     OW46439   7.293  11.224   5.808
14811SOL    HW146440   7.347  11.182  16.781
14811SOL    HW246441   7.249   0.112   5.852
14812SOL     OW46442  -0.618   1.409   6.540
14812SOL    HW146443  21.532   1.459   6.579
14812SOL    HW246444  -0.624 -20.750  28.672
14813SOL     OW46445  10.765   6.585   2.053
14813SOL    HW146446  10.828   6.655   2.069
14813SOL    HW246447  10.701   6.595  24.202
14814SOL     OW46448  10.107   9.995   7.984
14814SOL    HW146449  10.162  20.957 -25.142
14814SOL    HW246450  10.076   9.994   8.074
14815SOL     OW46451   9.843   6.505  10.348
14815SOL    HW146452   9.808   6.475  10.431
14815SOL    HW246453   9.879  -4.448  10.367
14816SOL     OW46454   2.752   0.278   4.054
14816SOL    HW146455   2.827   0.228   4.023
14816SOL    HW246456  -8.251  11.381   4.116
14817SOL     OW46457   1.409   4.198   8.425
14817SOL    HW146458   1.382   4.288 -13.637
14817SOL    HW246459   1.360   4.173   8.346
14818SOL     OW46460   9.631   2.755   3.739
14818SOL    HW146461   9.633   2.671   3.693
14818SOL    HW246462  20.707   2.818   3.677
14819SOL     OW46463   4.452   7.972   3.096
14819SOL    HW146464  15.410   7.980   3.046
14819SOL    HW246465 -17.578   7.905  14.089
14820SOL     OW46466   5.670   6.616   8.113
14820SOL    HW146467   5.671  -4.518 -13.950
14820SOL    HW246468 -16.440   6.624   8.023
14821SOL     OW46469   9.570   8.242   6.437
14821SOL    HW146470 -23.563   8.173   6.372
14821SOL    HW246471   9.531   8.208   6.518
14822SOL     OW46472   9.315   0.110   8.332
14822SOL    HW146473  20.275   0.137   8.286
14822SOL    HW246474  20.371   0.020 -13.779
14823SOL     OW46475   8.828   8.883   0.252
14823SOL    HW146476  30.946   8.905   0.337
14823SOL    HW246477   8.894  19.870   0.208
14824SOL     OW46478   7.175   8.146   3.529
14824SOL    HW146479  -3.774   8.171   3.511
14824SOL    HW246480 -14.897  19.112   3.590
14825SOL     OW46481  11.843   4.271   3.179
14825SOL    HW146482 -21.295   4.332   3.250
14825SOL    HW246483 -10.251   4.184   3.217
14826SOL     OW46484   1.816   7.059   9.699
14826SOL    HW146485   1.745   7.118  20.764
14826SOL    HW246486   1.875   7.059   9.774
14827SOL     OW46487   9.492   0.695   7.645
14827SOL    HW146488   9.466   0.643   7.569
14827SOL    HW246489 -12.659   0.682   7.708
14828SOL     OW46490   1.694   6.599   4.754
14828SOL    HW146491  -9.355  -4.352   4.791
14828SOL    HW246492  12.725   6.541   4.830
14829SOL     OW46493   9.628   0.362   7.616
14829SOL    HW146494   9.555   0.323   7.567
14829SOL    HW246495   9.586   0.402   7.692
14830SOL     OW46496   7.245   4.179   4.899
14830SOL    HW146497 -14.916  26.248   4.851
14830SOL    HW246498  18.337  26.318   4.845
14831SOL     OW46499   3.986   1.903   3.179
14831SOL    HW146500   3.905   1.856  -7.876
14831SOL    HW246501 -18.104  12.980 -18.812
14832SOL     OW46502   5.222   0.022   4.108
14832SOL    HW146503   5.276   0.088   4.150
14832SOL    HW246504  16.173   0.057   4.113
14833SOL     OW46505   3.225   6.137   6.311
14833SOL    HW146506   3.151  17.193   6.253
14833SOL    HW246507  25.377   6.185   6.271
14834SOL     OW46508   8.235  10.720   3.074
14834SOL    HW146509  30.265  21.753   2.993
14834SOL    HW246510   8.193  -0.383   3.133
14835SOL     OW46511   8.894   9.139   2.310
14835SOL    HW146512  -2.127  -1.935   2.222
14835SOL    HW246513  -2.100  31.158   2.369
14836SOL     OW46514   0.935   8.776   5.885
14836SOL    HW146515   0.957   8.868   5.872
14836SOL    HW246516   0.983   8.751   5.964
14837SOL     OW46517   7.104   3.437   6.762
14837SOL    HW146518  18.201 -18.718  17.792
14837SOL    HW246519  29.158  25.539   6.672
14838SOL     OW46520   3.706   6.276   7.226
14838SOL    HW146521   3.637  17.267   7.272
14838SOL    HW246522  14.773  -4.696   7.288
14839SOL     OW46523  10.065   3.574   0.850
14839SOL    HW146524  10.111   3.618   0.779
14839SOL    HW246525  21.140   3.485  33.970
14840SOL     OW46526   9.768   4.684   8.982
14840SOL    HW146527   9.853  -6.364   8.939
14840SOL    HW246528   9.705   4.650   8.918
14841SOL     OW46529   3.237   9.448   7.884
14841SOL    HW146530   3.235  -1.496 -14.197
14841SOL    HW246531   3.286  -1.612  41.083
14842SOL     OW46532  10.308   6.794   7.142
14842SOL    HW146533  10.336 -15.256   7.228
14842SOL    HW246534  10.292   6.874   7.093
14843SOL     OW46535   3.508   3.208   9.556
14843SOL    HW146536   3.595 -40.925   9.587
14843SOL    HW246537   3.466   3.291   9.533
14844SOL     OW46538   2.804   8.329   6.261
14844SOL    HW146539   2.755  -2.741   6.338
14844SOL    HW246540   2.895  19.371   6.291
14845SOL     OW46541   9.529   2.417   0.930
14845SOL    HW146542   9.534   2.335   0.979
14845SOL    HW246543   9.436 -30.684   0.922
14846SOL     OW46544   2.474   1.156   9.388
14846SOL    HW146545   2.417   1.209   9.443
14846SOL    HW246546   2.487   1.208   9.309
14847SOL     OW46547   1.760   8.139   9.113
14847SOL    HW146548   1.727   8.049   9.102
14847SOL    HW246549  -9.333  19.231  31.133
14848SOL     OW46550   1.247   7.804   8.132
14848SOL    HW146551   1.294   7.844   8.058
14848SOL    HW246552   1.260   7.710   8.120
14849SOL     OW46553   2.790   6.221   5.064
14849SOL    HW146554  24.839   6.312   5.054
14849SOL    HW246555   2.798   6.189 -28.144
14850SOL     OW46556   5.251   7.264   6.694
14850SOL    HW146557   5.342   7.253   6.722
14850SOL    HW246558   5.242   7.359  28.761
14851SOL     OW46559   8.136  -0.542   4.575
14851SOL    HW146560  19.211  10.575   4.618
14851SOL    HW246561  -2.895  10.428  15.680
14852SOL     OW46562   3.867  10.109  12.762
14852SOL    HW146563  -7.095  10.161 -53.454
14852SOL    HW246564  -7.163  10.090  12.668
14853SOL     OW46565   4.491   7.025   2.022
14853SOL    HW146566  -6.635   6.985   2.017
14853SOL    HW246567   4.486  18.122   2.098
14854SOL     OW46568   0.542   9.566   2.667
14854SOL    HW146569  22.645   9.474   2.653
14854SOL    HW246570  33.731  20.641   2.721
14855SOL     OW46571   8.625  11.148  12.013
14855SOL    HW146572   8.647  11.113   1.060
14855SOL    HW246573   8.704 -21.985   0.921
14856SOL     OW46574   8.842   7.633   0.149
14856SOL    HW146575   8.932  18.669  22.197
14856SOL    HW246576   8.843   7.587 -10.807
14857SOL     OW46577   3.870   9.009   5.111
14857SOL    HW146578  14.909   9.070   5.038
14857SOL    HW246579   3.861  19.962   5.070
14858SOL     OW46580   1.129  11.587   4.052
14858SOL    HW146581   1.143  11.607 -18.120
14858SOL    HW246582  -9.838 -21.489   4.097
14859SOL     OW46583   5.448   7.746   7.536
14859SOL    HW146584 -16.701  -3.358   7.524
14859SOL    HW246585   5.421  -3.219  -3.557
14860SOL     OW46586   3.705   0.255   5.434
14860SOL    HW146587   3.678   0.168  38.524
14860SOL    HW246588   3.667  22.394  16.408
14861SOL     OW46589   0.342   7.358  10.114
14861SOL    HW146590   0.301   7.294  10.173
14861SOL    HW246591  22.357   7.429  10.108
14862SOL     OW46592   4.522   9.747   4.873
14862SOL    HW146593   4.581   9.689   4.923
14862SOL    HW246594   4.568   9.830   4.869
14863SOL     OW46595   0.690   9.961   4.585
14863SOL    HW146596   0.650   9.981  26.580
14863SOL    HW246597   0.742  10.038  15.646
14864SOL     OW46598   1.878   5.258   8.562
14864SOL    HW146599   1.864   5.329   8.500
14864SOL    HW246600   1.884   5.179   8.508
14865SOL     OW46601   9.237   3.807   2.268
14865SOL    HW146602  20.258   3.825  -8.679
14865SOL    HW246603   9.296  14.918   2.242
14866SOL     OW46604   9.761   5.479  10.823
14866SOL    HW146605   9.704   5.466  10.898
14866SOL    HW246606   9.747  38.689  10.797
14867SOL     OW46607   6.770   0.374  10.616
14867SOL    HW146608   6.779   0.290  10.572
14867SOL    HW246609   6.692   0.413  10.577
14868SOL     OW46610   8.085   4.421   3.245
14868SOL    HW146611   8.179  -6.623  -7.808
14868SOL    HW246612   8.069  -6.677  -7.720
14869SOL     OW46613  10.206   8.295   2.429
14869SOL    HW146614  10.157   8.245   2.364
14869SOL    HW246615  10.280   8.240   2.452
14870SOL     OW46616   3.427   9.245   2.260
14870SOL    HW146617   3.456  -1.757  35.462
14870SOL    HW246618 -18.685  -1.720   2.210
14871SOL     OW46619   7.074   9.189   3.844
14871SOL    HW146620   7.098  20.242   3.936
14871SOL    HW246621   7.156   9.194   3.797
14872SOL     OW46622   6.110   0.368   7.631
14872SOL    HW146623   6.041   0.302   7.631
14872SOL    HW246624  17.168   0.383   7.723
14873SOL     OW46625   9.062   9.687   0.172
14873SOL    HW146626  31.231   9.664   0.150
14873SOL    HW246627   9.070  20.786  11.286
14874SOL     OW46628   8.400   3.042   7.663
14874SOL    HW146629  19.534   3.040 -14.402
14874SOL    HW246630  19.403   3.060   7.750
14875SOL     OW46631   5.375   7.030   1.013
14875SOL    HW146632   5.421  29.049   1.072
14875SOL    HW246633  38.401  29.085  56.219
14876SOL     OW46634   5.997   5.524  10.836
14876SOL    HW146635   5.974  27.694  10.815
14876SOL    HW246636  -5.011   5.528  10.926
14877SOL     OW46637   4.616   0.168   8.573
14877SOL    HW146638   4.678   0.152 -13.578
14877SOL    HW246639 -28.505   0.263   8.582
14878SOL     OW46640   6.550   3.850   4.974
14878SOL    HW146641   6.638   3.819   4.994
14878SOL    HW246642   6.518  25.967   5.055
14879SOL     OW46643   9.590   8.042   5.078
14879SOL    HW146644   9.627   8.127   5.054
14879SOL    HW246645   9.604  19.075   5.173
14880SOL     OW46646  -0.605   2.836   3.157
14880SOL    HW146647  10.366  -8.264  -7.911
14880SOL    HW246648  -0.538   2.830  -7.951
14881SOL     OW46649   7.013   0.655   6.253
14881SOL    HW146650   6.951  11.655 -15.888
14881SOL    HW246651  51.257   0.638   6.214
14882SOL     OW46652   5.479   3.024  10.606
14882SOL    HW146653   5.499   3.117  -0.419
14882SOL    HW246654   5.538   2.977  -0.374
14883SOL     OW46655   9.618   6.160   4.711
14883SOL    HW146656  -1.405   6.105 -17.291
14883SOL    HW246657  -1.450   6.244   4.746
14884SOL     OW46658   3.147   2.518  12.626
14884SOL    HW146659  -7.981  13.579  -9.424
14884SOL    HW246660   3.188  24.682   1.568
14885SOL     OW46661   6.469   3.790   3.237
14885SOL    HW146662  -4.590   3.701  25.344
14885SOL    HW246663   6.389   3.820  36.313
14886SOL     OW46664   4.518   9.605   6.336
14886SOL    HW146665   4.503   9.555   6.416
14886SOL    HW246666   4.608   9.585  -4.728
14887SOL     OW46667   4.785   8.968   6.285
14887SOL    HW146668  -6.228   8.905  17.392
14887SOL    HW246669   4.749   8.914   6.215
14888SOL     OW46670   2.964  10.064   0.062
14888SOL    HW146671   2.995  10.006   0.131
14888SOL    HW246672   2.880  -0.942   0.094
14889SOL     OW46673  10.752   5.054   8.076
14889SOL    HW146674  10.784   5.021   7.992
14889SOL    HW246675  10.816   5.025  -2.900
14890SOL     OW46676   6.507   6.882   1.730
14890SOL    HW146677   6.445   6.810   1.716
14890SOL    HW246678   6.471   6.954   1.678
14891SOL     OW46679   0.734   2.905   5.957
14891SOL    HW146680  11.805   2.818   5.984
14891SOL    HW246681   0.814   2.956  50.103
14892SOL     OW46682   0.002   0.464   6.936
14892SOL    HW146683   0.070   0.397   6.947
14892SOL    HW246684  -0.064   0.442   7.002
14893SOL     OW46685   9.321   9.541   9.079
14893SOL    HW146686   9.272   9.482   9.022
14893SOL    HW246687   9.404   9.555  -2.005
14894SOL     OW46688   1.867   2.455   2.349
14894SOL    HW146689  12.950   2.485  35.548
14894SOL    HW246690   1.844   2.535   2.302
14895SOL     OW46691  10.518   0.307  10.240
14895SOL    HW146692  21.537  33.386  21.364
14895SOL    HW246693  -0.601   0.295  10.188
14896SOL     OW46694   4.346   2.495  10.470
14896SOL    HW146695 -17.660   2.447  10.507
14896SOL    HW246696   4.318  24.521  -0.644
14897SOL     OW46697   7.446   9.981   3.413
14897SOL    HW146698 -14.699   9.911   3.420
14897SOL    HW246699   7.401  10.059   3.446
14898SOL     OW46700   5.727   7.659   7.569
14898SOL    HW146701   5.732   7.567   7.543
14898SOL    HW246702   5.634 -14.399  -3.474
14899SOL     OW46703   2.224   8.097   5.926
14899SOL    HW146704   2.197   8.180   5.886
14899SOL    HW246705  -8.884  19.075   5.902
14900SOL     OW46706   4.569   6.728   7.403
14900SOL    HW146707   4.516  28.873   7.358
14900SOL    HW246708   4.509  17.696   7.422
14901SOL     OW46709   7.505   8.606   4.397
14901SOL    HW146710   7.590  19.688   4.383
14901SOL    HW246711  18.559   8.547   4.471
14902SOL     OW46712   9.709   9.078   8.781
14902SOL    HW146713   9.705  20.097  19.914
14902SOL    HW246714  20.832   9.041  19.792
14903SOL     OW46715   5.712   7.937   0.096
14903SOL    HW146716  -5.300   7.981   0.176
14903SOL    HW246717 -16.294 -14.198   0.072
14904SOL     OW46718   9.665   3.599   0.687
14904SOL    HW146719   9.731   3.648   0.735
14904SOL    HW246720   9.641   3.657   0.614
14905SOL     OW46721   8.034   7.300   9.625
14905SOL    HW146722   8.077  -3.808   9.676
14905SOL    HW246723  19.114   7.295   9.539
14906SOL     OW46724   6.206   3.131   9.080
14906SOL    HW146725   6.196   3.226   9.070
14906SOL    HW246726   6.143  14.147   9.148
14907SOL     OW46727   6.085   7.636   8.314
14907SOL    HW146728   6.115   7.545   8.313
14907SOL    HW246729   6.043   7.646   8.399
14908SOL     OW46730   2.507   4.361   5.526
14908SOL    HW146731   2.486  -6.593   5.487
14908SOL    HW246732 -30.654  -6.676   5.612
14909SOL     OW46733   4.642  -1.596   2.893
14909SOL    HW146734   4.566  42.529   2.844
14909SOL    HW246735   4.644   9.390   2.972
14910SOL     OW46736  -0.219   3.265   1.388
14910SOL    HW146737  10.885   3.261   1.318
14910SOL    HW246738  -0.303  36.392   1.343
14911SOL     OW46739   9.605   3.289  11.232
14911SOL    HW146740   9.685   3.327  11.194
14911SOL    HW246741 -23.580   3.300 -32.994
14912SOL     OW46742   3.030   1.468   5.665
14912SOL    HW146743   3.097  12.475   5.605
14912SOL    HW246744   3.038  -9.477  -5.379
14913SOL     OW46745   4.968   8.662   7.596
14913SOL    HW146746  -5.997   8.663  18.696
14913SOL    HW246747   4.995   8.718   7.524
14914SOL     OW46748   9.156   2.022   8.939
14914SOL    HW146749   9.226   1.973  42.101
14914SOL    HW246750 -12.933  -9.062   8.854
14915SOL     OW46751   7.033   3.204   4.623
14915SOL    HW146752   6.952  -7.886  37.756
14915SOL    HW246753   7.034  14.260   4.529
14916SOL     OW46754   8.287   5.751   4.080
14916SOL    HW146755   8.361  16.797   4.141
14916SOL    HW246756  -2.825   5.721   4.135
14917SOL     OW46757   1.510   5.505   7.585
14917SOL    HW146758   1.536  -5.474  40.773
14917SOL    HW246759  12.469 -16.615  -3.421
14918SOL     OW46760   9.237  11.457   4.112
14918SOL    HW146761  -1.758  11.451   4.196
14918SOL    HW246762   9.147   0.443  -6.906
14919SOL     OW46763   6.250   6.744   9.397
14919SOL    HW146764   6.211   6.816   9.446
14919SOL    HW246765 -26.882   6.768   9.305
14920SOL     OW46766   5.879  -0.220   7.754
14920SOL    HW146767   5.945  10.836   7.822
14920SOL    HW246768   5.864  10.725 -14.321
14921SOL     OW46769   8.690  -0.383   3.278
14921SOL    HW146770   8.764  -0.372   3.337
14921SOL    HW246771 -35.545  32.746   3.334
14922SOL     OW46772  -0.586   0.731   8.627
14922SOL    HW146773  10.546  11.754  -2.395
14922SOL    HW246774  -0.605   0.678  -2.490
14923SOL     OW46775   3.157   4.960  10.098
14923SOL    HW146776  -7.849   4.984  10.012
14923SOL    HW246777   3.069   4.996  10.101
14924SOL     OW46778   8.030  10.747   7.240
14924SOL    HW146779   8.058  10.657  18.295
14924SOL    HW246780  -3.060  -0.269   7.319
14925SOL     OW46781   8.900   2.129   6.057
14925SOL    HW146782   8.855   2.052   6.022
14925SOL    HW246783   8.894  24.273  17.027
14926SOL     OW46784   4.644   0.440  10.347
14926SOL    HW146785   4.728   0.460  10.388
14926SOL    HW246786   4.611   0.365  10.397
14927SOL     OW46787   8.366   9.175   7.432
14927SOL    HW146788   8.390 -12.842   7.363
14927SOL    HW246789  -2.595  -1.870   7.487
14928SOL     OW46790  10.416  10.046   4.227
14928SOL    HW146791  10.346  10.047   4.161
14928SOL    HW246792  10.385   9.984   4.293
14929SOL     OW46793   8.687   0.918   0.712
14929SOL    HW146794   8.674   0.921   0.807
14929SOL    HW246795  -2.374   1.007   0.683
14930SOL     OW46796   7.411   6.929   8.902
14930SOL    HW146797  18.440   6.856  -2.077
14930SOL    HW246798  18.543   6.928   8.879
14931SOL     OW46799   9.914   4.154   7.940
14931SOL    HW146800   9.861   4.226  -3.065
14931SOL    HW246801  10.002   4.171 -14.108
14932SOL     OW46802   1.369   3.283   7.966
14932SOL    HW146803   1.416   3.226   7.905
14932SOL    HW246804   1.330   3.223   8.029
14933SOL     OW46805   4.794   4.435   8.332
14933SOL    HW146806  15.888   4.506 -13.714
14933SOL    HW246807   4.823   4.422   8.242
14934SOL     OW46808   8.368  10.320   4.968
14934SOL    HW146809   8.317  10.364   4.899
14934SOL    HW246810  -2.679  10.227   4.948
14935SOL     OW46811   2.574   7.688   6.638
14935SOL    HW146812  24.595 -14.432  -4.465
14935SOL    HW246813   2.661  18.724  -4.443
14936SOL     OW46814   0.594   2.125   9.603
14936SOL    HW146815  11.682   2.111  20.561
14936SOL    HW246816   0.620  -8.827   9.632
14937SOL     OW46817   9.212   9.541   5.298
14937SOL    HW146818   9.167  -1.414   5.288
14937SOL    HW246819  -1.884   9.479   5.252
14938SOL     OW46820   5.278   9.697   1.004
14938SOL    HW146821   5.231  31.786   1.087
14938SOL    HW246822  16.408   9.720   1.024
14939SOL     OW46823   1.349   0.271  11.123
14939SOL    HW146824   1.302  11.243  11.075
14939SOL    HW246825   1.280   0.328   0.118
14940SOL     OW46826   1.982   7.190   5.330
14940SOL    HW146827   1.998  18.303   5.270
14940SOL    HW246828   1.973   7.114   5.273
14941SOL     OW46829   5.799   9.154   0.362
14941SOL    HW146830  -5.303 -24.035  22.420
14941SOL    HW246831 -16.268   9.147   0.457
14942SOL     OW46832   3.636   5.341   0.353
14942SOL    HW146833   3.619  -5.604  22.424
14942SOL    HW246834   3.567   5.309   0.411
14943SOL     OW46835   7.182   4.549   6.324
14943SOL    HW146836  -3.784  26.576  28.437
14943SOL    HW246837   7.224   4.624   6.281
14944SOL     OW46838   8.177   6.431   3.974
14944SOL    HW146839   8.230   6.352   3.981
14944SOL    HW246840   8.240 -15.577   3.967
14945SOL     OW46841   3.653   1.407   5.769
14945SOL    HW146842  25.744  12.517   5.706
14945SOL    HW246843   3.710   1.430  -5.198
14946SOL     OW46844   5.995   3.747   7.195
14946SOL    HW146845   6.025   3.679   7.134
14946SOL    HW246846  17.002   3.816   7.138
14947SOL     OW46847   6.939   6.393   0.060
14947SOL    HW146848   7.000   6.384  -0.013
14947SOL    HW246849   6.896  17.517  11.085
14948SOL     OW46850   8.594   5.180  10.352
14948SOL    HW146851   8.545  16.234  10.271
14948SOL    HW246852   8.610  16.126 -11.725
14949SOL     OW46853   3.339   6.285   7.194
14949SOL    HW146854  -7.734  28.311  -3.918
14949SOL    HW246855 -40.780  39.480 -14.928
14950SOL     OW46856   4.896   9.363   2.486
14950SOL    HW146857  27.069  -1.675  -8.567
14950SOL    HW246858  15.899   9.371   2.397
14951SOL     OW46859   8.212  10.770   3.609
14951SOL    HW146860   8.252  10.831   3.548
14951SOL    HW246861   8.245  10.797  14.734
14952SOL     OW46862  10.767  10.198   9.933
14952SOL    HW146863  10.706  10.266  -1.077
14952SOL    HW246864  -0.188  10.224   9.969
14953SOL     OW46865   4.433   1.337   6.347
14953SOL    HW146866  26.605  -9.724  -4.701
14953SOL    HW246867   4.430   1.405   6.414
14954SOL     OW46868   6.258   0.694   0.851
14954SOL    HW146869   6.323 -10.363   0.918
14954SOL    HW246870  28.269   0.628   0.865
14955SOL     OW46871   5.262   1.797   3.757
14955SOL    HW146872   5.184  12.879   3.720
14955SOL    HW246873   5.228   1.718   3.799
14956SOL     OW46874   7.567   0.295   5.431
14956SOL    HW146875  -3.380   0.272   5.423
14956SOL    HW246876  -3.487   0.361 -16.716
14957SOL     OW46877   8.990   4.383   4.676
14957SOL    HW146878  19.946  -6.673  -6.320
14957SOL    HW246879   9.032   4.298   4.670
14958SOL     OW46880   3.301   0.015   0.219
14958SOL    HW146881   3.391  -0.018  11.261
14958SOL    HW246882  14.338   0.084   0.285
14959SOL     OW46883   7.336   1.798  10.184
14959SOL    HW146884  18.309   1.843  10.132
14959SOL    HW246885  18.342   1.800  10.273
14960SOL     OW46886   0.750   4.863   5.143
14960SOL    HW146887  11.835   4.904   5.217
14960SOL    HW246888   0.771   4.770   5.151
14961SOL     OW46889   1.550  10.763   0.066
14961SOL    HW146890  -9.443  10.807   0.136
14961SOL    HW246891  -9.431  10.769  -0.009
14962SOL     OW46892   5.051   5.196   0.439
14962SOL    HW146893 -39.048   5.149  11.537
14962SOL    HW246894 -17.098   5.227 -10.543
14963SOL     OW46895   9.802   7.205   2.572
14963SOL    HW146896   9.868 -14.840   2.512
14963SOL    HW246897   9.729   7.266   2.564
14964SOL     OW46898   3.411   7.452   9.740
14964SOL    HW146899   3.432  -3.496  -1.314
14964SOL    HW246900 -18.611   7.404   9.680
14965SOL     OW46901   4.545   7.708   8.881
14965SOL    HW146902  -6.567   7.693   8.942
14965SOL    HW246903   4.509   7.769   8.817
14966SOL     OW46904   0.093   5.114   0.593
14966SOL    HW146905   0.183  27.197  22.705
14966SOL    HW246906   0.072   5.021   0.590
14967SOL     OW46907   9.753   8.944   5.882
14967SOL    HW146908   9.807 -24.117   5.828
14967SOL    HW246909   9.684   8.914   5.823
14968SOL     OW46910   4.428   2.404   5.961
14968SOL    HW146911  15.542   2.368  16.953
14968SOL    HW246912   4.373   2.444   5.893
14969SOL     OW46913  10.988   9.050   6.088
14969SOL    HW146914  22.047   8.960   6.115
14969SOL    HW246915 -22.202   9.041   6.025
14970SOL     OW46916  10.485  11.038   5.098
14970SOL    HW146917  10.458 -11.130   5.072
14970SOL    HW246918  10.463  11.092  27.102
14971SOL     OW46919   2.406   1.940   8.001
14971SOL    HW146920   2.401   2.035   7.994
14971SOL    HW246921   2.416   1.923   8.095
14972SOL     OW46922   2.931   4.979   1.387
14972SOL    HW146923   2.965   5.066   1.366
14972SOL    HW246924   2.839   4.993   1.408
14973SOL     OW46925   7.519   6.847   3.384
14973SOL    HW146926   7.471   6.769  14.397
14973SOL    HW246927 -14.607  17.917  -7.577
14974SOL     OW46928   1.327   6.800   7.318
14974SOL    HW146929   1.296   6.817  -3.632
14974SOL    HW246930   1.307  -4.159   7.270
14975SOL     OW46931   7.313   5.358   1.986
14975SOL    HW146932   7.294  27.378   2.058
14975SOL    HW246933  18.301  -5.603   2.005
14976SOL     OW46934  12.727   2.640   7.958
14976SOL    HW146935 -31.460   2.731   7.962
14976SOL    HW246936  23.838   2.635   8.022
14977SOL     OW46937   2.081   7.760  -0.290
14977SOL    HW146938   2.080   7.832  10.687
14977SOL    HW246939  24.250   7.756  -0.259
14978SOL     OW46940   5.638   8.139   8.687
14978SOL    HW146941   5.620   8.120   8.779
14978SOL    HW246942   5.676   8.227  19.727
14979SOL     OW46943   7.158   1.637   5.552
14979SOL    HW146944   7.191  -9.421 -16.440
14979SOL    HW246945  -3.847   1.724   5.531
14980SOL     OW46946   9.787   4.839   8.040
14980SOL    HW146947  -1.164   4.873   8.025
14980SOL    HW246948 -12.336   4.851  -3.084
14981SOL     OW46949   0.752   0.897   9.404
14981SOL    HW146950   0.717   0.867  20.527
14981SOL    HW246951  11.870   0.844   9.389
14982SOL     OW46952   0.443   2.296   8.149
14982SOL    HW146953  11.555   2.354   8.125
14982SOL    HW246954  11.521   2.235   8.212
14983SOL     OW46955   2.968   7.094   8.361
14983SOL    HW146956   2.988   7.155  -2.608
14983SOL    HW246957   3.001  -4.030   8.392
14984SOL     OW46958   8.197   9.884   9.998
14984SOL    HW146959   8.205 -12.283   9.961
14984SOL    HW246960   8.169 -45.259   9.924
14985SOL     OW46961   0.641   6.041   0.216
14985SOL    HW146962  11.617   5.992   0.267
14985SOL    HW246963 -10.316  -5.047   0.226
14986SOL     OW46964   6.071   7.087   7.113
14986SOL    HW146965 -15.939   7.024   7.129
14986SOL    HW246966  28.088   7.074   7.184
14987SOL     OW46967   5.779   4.762   3.567
14987SOL    HW146968   5.802   4.821  -7.545
14987SOL    HW246969   5.726   4.694  -7.514
14988SOL     OW46970   7.060  -1.019   8.563
14988SOL    HW146971   7.017  10.090   8.612
14988SOL    HW246972  -4.013   9.940   8.601
14989SOL     OW46973   8.097   0.635   6.583
14989SOL    HW146974   8.189   0.657   6.575
14989SOL    HW246975 -13.988  11.622  28.742
14990SOL     OW46976   7.363   7.963   6.608
14990SOL    HW146977   7.339   8.019   6.682
14990SOL    HW246978   7.336   7.875   6.635
14991SOL     OW46979   7.657   4.289   3.470
14991SOL    HW146980   7.594   4.224  14.540
14991SOL    HW246981   7.689   4.253  36.506
14992SOL     OW46982  -1.773   6.419   6.238
14992SOL    HW146983   9.286  -4.530   6.213
14992SOL    HW246984  20.257   6.383  17.204
14993SOL     OW46985   4.246   3.089   8.852
14993SOL    HW146986   4.320   3.150  -2.195
14993SOL    HW246987  15.319  14.047   8.814
14994SOL     OW46988   9.802   8.876   4.209
14994SOL    HW146989   9.831   8.960   4.174
14994SOL    HW246990  20.912   8.848   4.268
14995SOL     OW46991   8.810   5.577   7.804
14995SOL    HW146992   8.832  -5.500  18.929
14995SOL    HW246993   8.716  -5.474   7.796
14996SOL     OW46994  10.047   3.305   5.744
14996SOL    HW146995  10.007  14.374   5.662
14996SOL    HW246996 -12.038  14.249   5.740
14997SOL     OW46997   1.613   5.011   3.618
14997SOL    HW146998   1.601  -6.082   3.696
14997SOL    HW246999  12.670  16.138   3.652
14998SOL     OW47000   9.996   4.848   2.695
14998SOL    HW147001   9.982   4.885   2.608
14998SOL    HW247002  10.087  -6.221   2.695
14999SOL     OW47003   6.481   6.274   1.884
14999SOL    HW147004  28.521   6.264   1.971
14999SOL    HW247005  17.556   6.188   1.864
15000SOL     OW47006   3.629   9.632   5.088
15000SOL    HW147007   3.664  20.632   5.008
15000SOL    HW247008   3.696  20.653  27.233
15001SOL     OW47009   8.051  -0.468   3.558
15001SOL    HW147010  -3.071  21.646   3.592
15001SOL    HW247011   8.115  10.641   3.572
15002SOL     OW47012   2.712   5.949   8.831
15002SOL    HW147013   2.734   5.989  19.955
15002SOL    HW247014  -8.412   5.987  -2.232
15003SOL     OW47015   9.527   0.290   2.599
15003SOL    HW147016   9.587   0.319   2.667
15003SOL    HW247017   9.445  11.376   2.616
15004SOL     OW47018   1.410   1.535  10.654
15004SOL    HW147019   1.364   1.474  10.713
15004SOL    HW247020   1.433   1.481  10.578
15005SOL     OW47021  -0.453  10.211   5.074
15005SOL    HW147022  -0.387  10.242   5.012
15005SOL    HW247023  21.569  -0.886   5.023
15006SOL     OW47024   4.477   7.941  10.340
15006SOL    HW147025   4.489  -3.072  10.249
15006SOL    HW247026   4.544  29.953  10.354
15007SOL     OW47027   9.208  10.288   2.906
15007SOL    HW147028   9.263  -0.677   2.929
15007SOL    HW247029   9.215  10.280   2.811
15008SOL     OW47030  -0.527   1.456   3.042
15008SOL    HW147031  -0.534   1.458   3.137
15008SOL    HW247032  32.501  -9.583   3.011
15009SOL     OW47033   4.671   7.318   2.091
15009SOL    HW147034  15.629   7.299   2.138
15009SOL    HW247035  -6.301   7.314   2.158
15010SOL     OW47036   1.881   3.831   9.018
15010SOL    HW147037   1.946  -7.172  19.999
15010SOL    HW247038   1.809 -29.315   8.960
15011SOL     OW47039   2.204   1.090   7.988
15011SOL    HW147040   2.282   1.145   7.998
15011SOL    HW247041   2.234   1.002  19.050
15012SOL     OW47042   8.811   3.306   1.637
15012SOL    HW147043   8.866   3.336  12.749
15012SOL    HW247044   8.860   3.234  12.638
15013SOL     OW47045   5.216   2.444   7.349
15013SOL    HW147046   5.227   2.355  -3.722
15013SOL    HW247047  -5.803 -30.619   7.274
15014SOL     OW47048   6.018   1.496   1.673
15014SOL    HW147049   5.940   1.494   1.729
15014SOL    HW247050   5.983  -9.532  -9.455
15015SOL     OW47051   2.197   1.060   4.021
15015SOL    HW147052   2.202   0.997  26.172
15015SOL    HW247053   2.271   1.118   4.034
15016SOL     OW47054   5.812   5.996  11.411
15016SOL    HW147055   5.808  -4.990   0.292
15016SOL    HW247056   5.724   6.002  11.448
15017SOL     OW47057   8.460   7.035   8.132
15017SOL    HW147058   8.553 -26.100   8.115
15017SOL    HW247059   8.414   6.980   8.070
15018SOL     OW47060   6.595   1.947  -1.204
15018SOL    HW147061  28.583   1.917  42.954
15018SOL    HW247062   6.619  24.030 -23.191
15019SOL     OW47063   8.712   3.294   6.426
15019SOL    HW147064  -2.234   3.312  17.478
15019SOL    HW247065   8.703   3.201   6.443
15020SOL     OW47066   0.475   8.999   3.761
15020SOL    HW147067  22.541   9.050   3.841
15020SOL    HW247068  11.508  -1.977   3.690
15021SOL     OW47069   4.456  10.602   2.282
15021SOL    HW147070   4.525  -0.374   2.264
15021SOL    HW247071   4.383  10.654   2.316
15022SOL     OW47072   3.402   5.634   1.441
15022SOL    HW147073   3.454   5.656  -9.521
15022SOL    HW247074  14.394  -5.485   1.466
15023SOL     OW47075  11.347   7.282  10.711
15023SOL    HW147076  11.317   7.194  10.734
15023SOL    HW247077   0.265   7.339  -0.264
15024SOL     OW47078   3.917   8.899   1.450
15024SOL    HW147079   3.825   8.916   1.427
15024SOL    HW247080   3.919   8.806   1.472
15025SOL     OW47081   4.404   1.061   5.889
15025SOL    HW147082   4.375   1.096   5.805
15025SOL    HW247083  26.526   0.978  38.985
15026SOL     OW47084   8.757   1.549   9.834
15026SOL    HW147085   8.692   1.607   9.874
15026SOL    HW247086   8.828   1.545   9.898
15027SOL     OW47087   1.298  12.163   8.890
15027SOL    HW147088   1.368  12.112   8.930
15027SOL    HW247089  12.376  -9.829  19.916
15028SOL     OW47090   2.765   5.288   8.308
15028SOL    HW147091  13.770   5.248 -24.890
15028SOL    HW247092  24.903   5.357  -2.762
15029SOL     OW47093   1.326   4.084   7.933
15029SOL    HW147094   1.306   4.038   7.852
15029SOL    HW247095   1.241   4.095   7.976
15030SOL     OW47096   8.352   6.665   6.177
15030SOL    HW147097   8.396 -15.499   6.176
15030SOL    HW247098  -2.662  -4.333   6.095
15031SOL     OW47099   4.676  10.066   7.213
15031SOL    HW147100   4.653  10.037   7.125
15031SOL    HW247101   4.675  -0.878   7.209
15032SOL     OW47102   6.322   5.881   8.511
15032SOL    HW147103   6.316   5.793   8.474
15032SOL    HW247104  -4.644   5.921  19.505
15033SOL     OW47105   9.600   5.016   1.443
15033SOL    HW147106   9.668  15.994   1.469
15033SOL    HW247107   9.567 -17.027   1.526
15034SOL     OW47108   1.792   1.675   7.295
15034SOL    HW147109 -20.363   1.623   7.269
15034SOL    HW247110   1.859   1.653   7.229
15035SOL     OW47111   2.941   8.144   5.507
15035SOL    HW147112  13.912   8.202  27.554
15035SOL    HW247113   3.015  30.237   5.448
15036SOL     OW47114   4.879  -2.057   9.503
15036SOL    HW147115   4.916  20.111   9.495
15036SOL    HW247116   4.947  19.965   9.469
15037SOL     OW47117   9.185   3.482   0.595
15037SOL    HW147118   9.157   3.391   0.609
15037SOL    HW247119  -1.767   3.486   0.633
15038SOL     OW47120   3.503   7.741   3.124
15038SOL    HW147121   3.519   7.823 -19.001
15038SOL    HW247122   3.530  -3.282   3.214
15039SOL     OW47123   9.559   2.663   3.195
15039SOL    HW147124   9.617   2.588  36.308
15039SOL    HW247125  -1.434   2.733   3.150
15040SOL     OW47126   0.180   8.499   6.999
15040SOL    HW147127   0.144  30.634   7.068
15040SOL    HW247128   0.124  30.593   6.923
15041SOL     OW47129   2.466   5.538   9.203
15041SOL    HW147130   2.516   5.472 -12.923
15041SOL    HW247131   2.490   5.525   9.295
15042SOL     OW47132   8.327   7.700   1.560
15042SOL    HW147133   8.309   7.743   1.477
15042SOL    HW247134   8.337   7.772   1.623
15043SOL     OW47135   5.970   0.439  11.337
15043SOL    HW147136   5.986   0.349   0.269
15043SOL    HW247137 -27.062   0.477  11.348
15044SOL     OW47138   1.713  12.246   2.176
15044SOL    HW147139   1.704   1.295   2.212
15044SOL    HW247140   1.669 -20.928   2.240
15045SOL     OW47141   9.331   5.861   2.888
15045SOL    HW147142   9.277 -16.296 -19.209
15045SOL    HW247143  20.452  -5.214   2.924
15046SOL     OW47144   6.576   8.149   6.897
15046SOL    HW147145  28.632  19.252   6.829
15046SOL    HW247146  28.749  -2.904   6.886
15047SOL     OW47147   2.041   5.181   7.253
15047SOL    HW147148   1.974  -5.925   7.266
15047SOL    HW247149  -9.038   5.246  29.274
15048SOL     OW47150   8.205   5.711   7.094
15048SOL    HW147151   8.233   5.623  18.108
15048SOL    HW247152   8.225   5.717  29.266
15049SOL     OW47153   1.996   1.261   9.201
15049SOL    HW147154   2.057   1.239   9.272
15049SOL    HW247155   1.928  12.353  31.322
15050SOL     OW47156  10.035   8.506   2.784
15050SOL    HW147157  10.006   8.423   2.746
15050SOL    HW247158  20.995   8.560   2.788
15051SOL     OW47159   1.052   8.593   2.422
15051SOL    HW147160  23.146   8.510   2.376
15051SOL    HW247161 -32.105   8.567   2.506
15052SOL     OW47162  11.558   7.713   2.198
15052SOL    HW147163  11.638  18.709  13.209
15052SOL    HW247164   0.542  18.795   2.280
15053SOL     OW47165   9.922   7.980   5.848
15053SOL    HW147166   9.846  -3.115   5.868
15053SOL    HW247167   9.884   8.062   5.818
15054SOL     OW47168   9.673   0.242   4.887
15054SOL    HW147169   9.727   0.242 -17.113
15054SOL    HW247170   9.659   0.334   4.868
15055SOL     OW47171   5.115   4.472   7.683
15055SOL    HW147172 -16.974   4.435   7.771
15055SOL    HW247173 -17.046  15.490  -3.401
15056SOL     OW47174   5.402  -0.849  11.704
15056SOL    HW147175   5.418  -0.849 -10.280
15056SOL    HW247176   5.316  21.189  11.695
15057SOL     OW47177   6.480   3.276  10.454
15057SOL    HW147178   6.560  14.314  10.401
15057SOL    HW247179   6.482   3.194  10.504
15058SOL     OW47180   9.032   9.032   5.324
15058SOL    HW147181 -12.989   9.049   5.399
15058SOL    HW247182  -1.968   8.957   5.280
15059SOL     OW47183   5.938   8.034  -0.299
15059SOL    HW147184   5.882   8.102  21.817
15059SOL    HW247185   5.994   8.080  21.718
15060SOL     OW47186   0.782   0.692   2.174
15060SOL    HW147187   0.790   0.678   2.080
15060SOL    HW247188  11.763  11.807   2.182
15061SOL     OW47189  10.761   5.805   0.275
15061SOL    HW147190 -11.362  16.813   0.197
15061SOL    HW247191  10.696  27.878   0.345
15062SOL     OW47192   4.884   8.181   3.703
15062SOL    HW147193   4.795 -24.929  25.817
15062SOL    HW247194   4.938   8.161   3.780
15063SOL     OW47195   0.341   4.456   8.851
15063SOL    HW147196   0.341   4.363  -2.165
15063SOL    HW247197   0.257   4.489   8.884
15064SOL     OW47198   2.442   4.904   3.654
15064SOL    HW147199  13.559   4.935   3.701
15064SOL    HW247200   2.372  16.004   3.681
15065SOL     OW47201   1.810   6.347   3.047
15065SOL    HW147202  -9.156   6.332   3.107
15065SOL    HW247203   1.799   6.263   3.001
15066SOL     OW47204   8.573   3.227   1.975
15066SOL    HW147205   8.639  -7.797  24.122
15066SOL    HW247206 -13.583 -18.883   2.024
15067SOL     OW47207   9.579   1.802   2.956
15067SOL    HW147208   9.516   1.824  -8.015
15067SOL    HW247209  31.718  12.916 -19.125
15068SOL     OW47210  -0.385   6.474  10.086
15068SOL    HW147211  10.703   6.555  21.110
15068SOL    HW247212  -0.455   6.475  10.020
15069SOL     OW47213   3.731  -0.407   7.315
15069SOL    HW147214  14.857  -0.450   7.318
15069SOL    HW247215  14.713  10.574   7.365
15070SOL     OW47216   3.118   2.785  10.849
15070SOL    HW147217   3.188 -30.317  10.913
15070SOL    HW247218   3.073  -8.171  10.841
15071SOL     OW47219   8.230   2.544   3.031
15071SOL    HW147220  -2.717 -19.559   3.030
15071SOL    HW247221  -2.843  -8.530   2.948
15072SOL     OW47222   1.211   2.048   8.122
15072SOL    HW147223   1.151   1.992   8.072
15072SOL    HW247224   1.220   2.006   8.207
15073SOL     OW47225   1.141  13.350   7.057
15073SOL    HW147226   1.207  13.356  -4.052
15073SOL    HW247227   1.165 -30.739   7.119
15074SOL     OW47228   8.876   4.546   9.304
15074SOL    HW147229   8.797  15.561   9.256
15074SOL    HW247230  -2.091   4.524   9.244
15075SOL     OW47231   2.560   4.899   9.437
15075SOL    HW147232  24.574  -6.079   9.470
15075SOL    HW247233   2.513   4.815  -1.608
15076SOL     OW47234   8.067  10.783   9.411
15076SOL    HW147235  30.165  10.752   9.499
15076SOL    HW247236  19.155  10.724   9.353
15077SOL     OW47237   3.093   1.842   8.029
15077SOL    HW147238  25.100  23.933  19.007
15077SOL    HW247239   3.153   1.782  -3.055
15078SOL     OW47240   3.284  10.759   2.394
15078SOL    HW147241   3.300  10.666  13.450
15078SOL    HW247242   3.197  10.775   2.430
15079SOL     OW47243   9.692   4.311   2.053
15079SOL    HW147244   9.738   4.388  24.098
15079SOL    HW247245   9.675   4.257  -9.064
15080SOL     OW47246   2.237   7.057   8.251
15080SOL    HW147247   2.166   7.106   8.210
15080SOL    HW247248   2.286   7.019  -2.862
15081SOL     OW47249  10.222   5.802   9.346
15081SOL    HW147250  21.203  -5.187   9.403
15081SOL    HW247251  10.248   5.727   9.399
15082SOL     OW47252  -1.182   8.270   3.548
15082SOL    HW147253  42.892   8.253   3.505
15082SOL    HW247254  43.003  19.223   3.581
15083SOL     OW47255   8.325   0.093   8.342
15083SOL    HW147256   8.317   0.129   8.430
15083SOL    HW247257   8.276  22.090   8.345
15084SOL     OW47258   0.579   8.148   1.865
15084SOL    HW147259   0.643   8.195   1.919
15084SOL    HW247260   0.554   8.072   1.918
15085SOL     OW47261   7.775   7.185   3.377
15085SOL    HW147262   7.794  -3.948  25.449
15085SOL    HW247263   7.721 -14.886   3.456
15086SOL     OW47264   9.094   9.483   7.429
15086SOL    HW147265  -2.037   9.501   7.407
15086SOL    HW247266   9.100 -12.692   7.429
15087SOL     OW47267   9.961   4.038   5.003
15087SOL    HW147268  10.055   4.020   4.997
15087SOL    HW247269   9.951   4.125   4.966
15088SOL     OW47270  10.858  10.353   9.081
15088SOL    HW147271  -0.137  10.321   9.003
15088SOL    HW247272 -11.222  10.448 -24.048
15089SOL     OW47273  10.867   4.900  -1.614
15089SOL    HW147274 -11.206   4.985  31.549
15089SOL    HW247275  -0.218   4.843  -1.551
15090SOL     OW47276   0.130   2.803   6.092
15090SOL    HW147277   0.043   2.841   6.107
15090SOL    HW247278   0.175   2.867   6.037
15091SOL     OW47279   9.309   8.595   0.040
15091SOL    HW147280  -1.716  -2.423  10.987
15091SOL    HW247281   9.260   8.513   0.037
15092SOL     OW47282   1.376   5.655   7.387
15092SOL    HW147283   1.328   5.589   7.338
15092SOL    HW247284  -9.624   5.608   7.460
15093SOL     OW47285   0.859   0.300  -0.797
15093SOL    HW147286   0.896   0.374  43.313
15093SOL    HW247287   0.936   0.254  10.277
15094SOL     OW47288   6.715   5.179   2.588
15094SOL    HW147289   6.678   5.194   2.675
15094SOL    HW247290   6.762   5.259   2.567
15095SOL     OW47291   5.936   3.829   0.254
15095SOL    HW147292  28.051   3.803   0.339
15095SOL    HW247293  16.889   3.788   0.251
15096SOL     OW47294   0.387   8.569   3.785
15096SOL    HW147295   0.419   8.520   3.860
15096SOL    HW247296  11.494  19.675   3.770
15097SOL     OW47297   7.643   0.845  10.795
15097SOL    HW147298   7.635  11.976  10.769
15097SOL    HW247299   7.734   0.823  10.778
15098SOL     OW47300   1.037   5.072   3.818
15098SOL    HW147301   1.128   5.080   3.846
15098SOL    HW247302  23.107   5.139   3.750
15099SOL     OW47303  -0.009   1.269  -0.142
15099SOL    HW147304  10.979   1.280  -0.062
15099SOL    HW247305  10.999   1.187  21.899
15100SOL     OW47306   2.105   0.240   9.219
15100SOL    HW147307   2.155   0.159  20.266
15100SOL    HW247308   2.014   0.212   9.220
15101SOL     OW47309   9.972   5.451   1.894
15101SOL    HW147310   9.944   5.445  13.025
15101SOL    HW247311   9.949   5.366   1.856
15102SOL     OW47312   4.660   3.712   4.231
15102SOL    HW147313   4.654  -7.247  15.322
15102SOL    HW247314   4.753   3.701  37.332
15103SOL     OW47315   1.211   9.581   1.578
15103SOL    HW147316   1.265 -12.570   1.544
15103SOL    HW247317  12.161  20.590   1.569
15104SOL     OW47318   9.231   8.795   5.941
15104SOL    HW147319  -1.715  -2.230  16.995
15104SOL    HW247320   9.214  30.915   5.856
15105SOL     OW47321   0.654   9.380   1.192
15105SOL    HW147322   0.746   9.380   1.167
15105SOL    HW247323  11.686   9.307   1.253
15106SOL     OW47324   0.174   1.573   7.992
15106SOL    HW147325   0.178  12.564  19.114
15106SOL    HW247326   0.191  -9.533   7.925
15107SOL     OW47327   1.151  12.916   9.631
15107SOL    HW147328   1.225  -9.139  20.727
15107SOL    HW247329   1.173 -31.329   9.598
15108SOL     OW47330   7.104   4.625   9.950
15108SOL    HW147331  29.215   4.631   9.860
15108SOL    HW247332   7.014   4.656   9.946
15109SOL     OW47333   1.139   5.425   2.700
15109SOL    HW147334 -20.960   5.491   2.767
15109SOL    HW247335  12.144  38.582   2.619
15110SOL     OW47336   0.190   2.567   8.459
15110SOL    HW147337   0.154   2.637   8.404
15110SOL    HW247338   0.284   2.583  -2.579
15111SOL     OW47339   2.855   7.994   7.088
15111SOL    HW147340   2.830   8.062   7.025
15111SOL    HW247341   2.808   8.018  40.287
15112SOL     OW47342   5.245   1.632   0.761
15112SOL    HW147343   5.257   1.724 -10.301
15112SOL    HW247344  16.336   1.585   0.695
15113SOL     OW47345  10.993   4.129   4.638
15113SOL    HW147346  11.059  26.275  26.736
15113SOL    HW247347  11.008   4.106   4.546
15114SOL     OW47348   1.580   8.698   7.757
15114SOL    HW147349   1.563 -13.443  -3.212
15114SOL    HW247350   1.658   8.664   7.713
15115SOL     OW47351   9.025   4.713  10.303
15115SOL    HW147352   8.957   4.646  10.311
15115SOL    HW247353   9.006  -6.264  -0.666
15116SOL     OW47354   6.307  11.141   1.069
15116SOL    HW147355  17.414   0.082   1.134
15116SOL    HW247356   6.314  11.235   1.053
15117SOL     OW47357   2.613  10.308   5.081
15117SOL    HW147358  13.706  10.234  27.189
15117SOL    HW247359   2.576  10.344   5.162
15118SOL     OW47360   4.412   3.855   3.515
15118SOL    HW147361  -6.537   3.825   3.520
15118SOL    HW247362 -17.676   3.890   3.426
15119SOL     OW47363   2.223   1.581   8.596
15119SOL    HW147364   2.232  -9.441   8.502
15119SOL    HW247365   2.178  12.698   8.630
15120SOL     OW47366   7.038   3.948   7.716
15120SOL    HW147367   6.967   3.962   7.654
15120SOL    HW247368   6.994   3.931   7.800
15121SOL     OW47369   6.477  10.587   5.319
15121SOL    HW147370   6.383  10.590   5.300
15121SOL    HW247371   6.507  -0.534   5.279
15122SOL     OW47372   8.508   1.846   1.706
15122SOL    HW147373   8.483   1.816  -9.421
15122SOL    HW247374 -13.512   1.919   1.691
15123SOL     OW47375   8.122   2.684   2.391
15123SOL    HW147376   8.036   2.715  -8.677
15123SOL    HW247377   8.127  -8.445   2.359
15124SOL     OW47378   5.845   9.246   7.831
15124SOL    HW147379  -5.216   9.152   7.833
15124SOL    HW247380 -16.226   9.271   7.923
15125SOL     OW47381  -0.230  10.934   4.360
15125SOL    HW147382  54.923  10.868  15.346
15125SOL    HW247383  21.779  10.988   4.395
15126SOL     OW47384   9.105   8.826   3.133
15126SOL    HW147385   9.125  -2.263  -7.827
15126SOL    HW247386  20.196  -2.257  25.144
15127SOL     OW47387   9.899   3.644   2.384
15127SOL    HW147388   9.882 -18.507 -30.797
15127SOL    HW247389   9.817   3.693   2.387
15128SOL     OW47390   7.698   9.731   6.141
15128SOL    HW147391  18.751   9.698   6.230
15128SOL    HW247392   7.754 -12.403 -15.993
15129SOL     OW47393   2.987   1.291   2.527
15129SOL    HW147394  -8.137   1.311  13.524
15129SOL    HW247395  25.131  12.377 -19.605
15130SOL     OW47396   7.477   1.995   2.869
15130SOL    HW147397   7.436   2.082   2.863
15130SOL    HW247398   7.549  13.038  -8.234
15131SOL     OW47399   8.648   5.417   1.409
15131SOL    HW147400  -2.358   5.329 -20.691
15131SOL    HW247401  -2.422   5.451   1.325
15132SOL     OW47402  -0.227   8.105   4.279
15132SOL    HW147403  21.810   8.077  -6.842
15132SOL    HW247404  -0.171   8.031  15.342
15133SOL     OW47405   0.183   8.338   5.538
15133SOL    HW147406   0.192   8.252   5.496
15133SOL    HW247407   0.242   8.334   5.614
15134SOL     OW47408  -0.296   4.859   0.853
15134SOL    HW147409  10.666   4.890 -10.233
15134SOL    HW247410  10.795 -17.265   0.786
15135SOL     OW47411  -0.271   5.909   0.616
15135SOL    HW147412  32.805   5.940  11.575
15135SOL    HW247413  21.788   5.976   0.681
15136SOL     OW47414   1.853   4.697   0.432
15136SOL    HW147415  23.903   4.615  22.471
15136SOL    HW247416   1.934   4.673   0.478
15137SOL     OW47417  10.111   0.821  10.810
15137SOL    HW147418  10.199   0.846  10.783
15137SOL    HW247419  10.070   0.902  10.839
15138SOL     OW47420   8.050  10.426   3.837
15138SOL    HW147421   8.080  10.453   3.924
15138SOL    HW247422  -2.968  10.500   3.781
15139SOL     OW47423   9.770  10.960   1.782
15139SOL    HW147424 -12.267  -0.112  12.742
15139SOL    HW247425   9.831  11.026   1.816
15140SOL     OW47426   4.348   2.663   2.527
15140SOL    HW147427   4.421  13.646  13.591
15140SOL    HW247428  15.310   2.607   2.534
15141SOL     OW47429   8.483   7.782  -0.057
15141SOL    HW147430   8.540   7.811   0.014
15141SOL    HW247431   8.424  -3.183  10.967
15142SOL     OW47432   9.785   8.673   1.788
15142SOL    HW147433 -45.494  19.754  23.837
15142SOL    HW247434   9.790   8.696   1.881
15143SOL     OW47435   8.986   7.385   2.320
15143SOL    HW147436   8.936  -3.577   2.348
15143SOL    HW247437   8.939  18.351   2.358
15144SOL     OW47438   8.122   6.254   9.454
15144SOL    HW147439   8.113   6.174   9.505
15144SOL    HW247440   8.202   6.295 -12.592
15145SOL     OW47441   3.507   5.439   8.461
15145SOL    HW147442   3.450 -16.579  -2.532
15145SOL    HW247443   3.517   5.476  19.413
15146SOL     OW47444   0.148   5.051   8.609
15146SOL    HW147445   0.226   5.104   8.592
15146SOL    HW247446  11.115   5.104  30.653
15147SOL     OW47447   2.727   8.567   8.023
15147SOL    HW147448   2.686 -13.554   8.098
15147SOL    HW247449   2.821   8.561  19.080
15148SOL     OW47450   1.884   3.222   3.102
15148SOL    HW147451   1.890  14.330   3.035
15148SOL    HW247452  -9.066   3.190   3.112
15149SOL     OW47453   8.011   3.262   2.706
15149SOL    HW147454  30.036  -7.847   2.669
15149SOL    HW247455   8.022   3.238   2.798
15150SOL     OW47456   3.118   0.246   4.696
15150SOL    HW147457   3.199   0.284   4.731
15150SOL    HW247458  14.114  22.288  37.891
15151SOL     OW47459   4.666  10.318   3.546
15151SOL    HW147460   4.582  10.361  -7.478
15151SOL    HW247461   4.729  21.430  -7.501
15152SOL     OW47462   4.504   9.585  -0.240
15152SOL    HW147463  -6.565   9.648  21.774
15152SOL    HW247464 -17.591   9.628  10.884
15153SOL     OW47465   3.054   3.799   3.162
15153SOL    HW147466  -7.955  14.913   3.109
15153SOL    HW247467   2.977   3.831  -7.832
15154SOL     OW47468   3.010   4.655   7.116
15154SOL    HW147469  -8.039   4.566   7.149
15154SOL    HW247470   2.920   4.685   7.103
15155SOL     OW47471   1.236  10.040   6.347
15155SOL    HW147472   1.255  10.033   6.254
15155SOL    HW247473   1.321  21.069   6.390
15156SOL     OW47474   7.880   9.316   3.366
15156SOL    HW147475   7.822  -1.684   3.301
15156SOL    HW247476   7.902   9.230   3.330
15157SOL     OW47477   1.925   4.165   7.982
15157SOL    HW147478   1.958   4.145   8.070
15157SOL    HW247479   1.989  26.307   7.946
15158SOL     OW47480   1.483   1.960   4.325
15158SOL    HW147481  23.626   1.981   4.394
15158SOL    HW247482  12.550  24.093   4.250
15159SOL     OW47483  10.240   1.706  11.341
15159SOL    HW147484  -0.867   1.714   0.370
15159SOL    HW247485  -0.772  -9.425  11.345
15160SOL     OW47486   7.274  11.792   4.737
15160SOL    HW147487   7.331  11.767 -17.269
15160SOL    HW247488  -3.837 -10.238   4.777
15161SOL     OW47489   0.671  -0.041   6.113
15161SOL    HW147490   0.585  10.967   6.141
15161SOL    HW247491   0.678  33.052   6.021
15162SOL     OW47492   1.369   1.133   5.257
15162SOL    HW147493   1.306   1.094   5.318
15162SOL    HW247494   1.337   1.108   5.170
15163SOL     OW47495   7.753   9.005   1.679
15163SOL    HW147496   7.714   9.084   1.642
15163SOL    HW247497  -3.205   8.993   1.630
15164SOL     OW47498   1.403   0.752   5.202
15164SOL    HW147499 -20.731  22.769   5.249
15164SOL    HW247500   1.480   0.764  38.376
15165SOL     OW47501   6.960   8.456   0.577
15165SOL    HW147502 -15.036   8.502   0.585
15165SOL    HW247503   6.974   8.394   0.506
15166SOL     OW47504   5.690   3.806   1.809
15166SOL    HW147505   5.657   3.862   1.879
15166SOL    HW247506  16.823   3.796   1.828
15167SOL     OW47507   9.356   9.652   2.956
15167SOL    HW147508  31.458   9.743   2.934
15167SOL    HW247509   9.352  -1.432  13.910
15168SOL     OW47510   5.913   6.976   8.641
15168SOL    HW147511   5.944  29.052   8.550
15168SOL    HW247512   5.822   6.946   8.636
15169SOL     OW47513   4.387   6.589   0.742
15169SOL    HW147514   4.464   6.646  11.774
15169SOL    HW247515   4.405   6.536  11.859
15170SOL     OW47516   6.039   0.449   8.570
15170SOL    HW147517   5.970   0.475   8.509
15170SOL    HW247518   6.078   0.532   8.598
15171SOL     OW47519   7.450   9.157   3.918
15171SOL    HW147520  40.521   9.075   3.904
15171SOL    HW247521   7.454   9.197  14.870
15172SOL     OW47522   7.890   2.348   2.905
15172SOL    HW147523   7.863   2.392   2.985
15172SOL    HW247524  -3.092   2.277  -8.105
15173SOL     OW47525   4.726   2.368   6.291
15173SOL    HW147526   4.821   2.367   6.283
15173SOL    HW247527   4.696   2.298   6.233
15174SOL     OW47528   8.450   9.138  10.356
15174SOL    HW147529   8.378   9.182  10.402
15174SOL    HW247530  19.463   9.139  10.264
15175SOL     OW47531   4.023   4.534   9.042
15175SOL    HW147532  -7.056   4.609   8.997
15175SOL    HW247533 -18.113   4.460 -13.058
15176SOL     OW47534   9.667   9.157   7.578
15176SOL    HW147535   9.671   9.077   7.630
15176SOL    HW247536  20.763   9.140   7.503
15177SOL     OW47537  10.388   4.967   1.646
15177SOL    HW147538  -0.597  -5.995   1.635
15177SOL    HW247539  21.485   4.901   1.684
15178SOL     OW47540   8.027   7.024   6.624
15178SOL    HW147541  -2.933   7.061  17.703
15178SOL    HW247542   8.008   6.947   6.677
15179SOL     OW47543   6.338   8.663   7.145
15179SOL    HW147544  -4.676   8.695   7.232
15179SOL    HW247545   6.246   8.689   7.137
15180SOL     OW47546   9.138   8.875   5.687
15180SOL    HW147547   9.201   8.937  27.730
15180SOL    HW247548   9.061 -13.195   5.631
15181SOL     OW47549   7.940   6.404   8.729
15181SOL    HW147550   7.976   6.489   8.705
15181SOL    HW247551   8.010   6.342   8.713
15182SOL     OW47552  11.062   9.699  10.166
15182SOL    HW147553  11.114   9.774  21.233
15182SOL    HW247554   0.033   9.635  10.236
15183SOL     OW47555  10.581   5.294   5.687
15183SOL    HW147556 -11.564   5.349  27.725
15183SOL    HW247557  21.577   5.258   5.765
15184SOL     OW47558   3.445   7.408   7.780
15184SOL    HW147559   3.456   7.320  18.856
15184SOL    HW247560   3.357   7.407   7.742
15185SOL     OW47561   3.124   7.553   9.885
15185SOL    HW147562   3.047   7.604   9.860
15185SOL    HW247563   3.117  -3.495  21.020
15186SOL     OW47564   5.936   1.061  10.050
15186SOL    HW147565   5.908   1.013   9.972
15186SOL    HW247566   5.927 -10.041  10.122
15187SOL     OW47567   0.156   7.867   6.039
15187SOL    HW147568  11.216   7.790  17.025
15187SOL    HW247569   0.237   7.884  17.128
15188SOL     OW47570   1.020   4.092   9.968
15188SOL    HW147571   1.045   4.184  -1.078
15188SOL    HW247572   0.932 -17.991 -23.189
15189SOL     OW47573   9.093  10.738  10.941
15189SOL    HW147574   9.116  10.749  11.033
15189SOL    HW247575   9.105  10.825  10.902
15190SOL     OW47576   1.582   8.516   3.578
15190SOL    HW147577  12.652   8.425   3.575
15190SOL    HW247578  12.563 -13.555   3.503
15191SOL     OW47579  10.411   5.836   6.033
15191SOL    HW147580  10.402   5.892   6.110
15191SOL    HW247581  10.357   5.877   5.966
15192SOL     OW47582   0.175  10.056   0.222
15192SOL    HW147583   0.218  21.169   0.267
15192SOL    HW247584   0.093  10.043   0.270
15193SOL     OW47585   4.338  11.761   6.722
15193SOL    HW147586   4.401 -21.427  -4.298
15193SOL    HW247587  15.341  11.785   6.806
15194SOL     OW47588   9.010   9.935   3.185
15194SOL    HW147589   8.966   9.953   3.102
15194SOL    HW247590   9.042   9.845   3.176
15195SOL     OW47591   2.419   3.196   1.200
15195SOL    HW147592  13.460  14.170   1.271
15195SOL    HW247593   2.329   3.228  12.240
15196SOL     OW47594   3.716  10.195   5.652
15196SOL    HW147595   3.798  10.144   5.652
15196SOL    HW247596   3.650  21.174   5.685
15197SOL     OW47597   3.579  -0.578   7.434
15197SOL    HW147598  14.657  -0.618   7.513
15197SOL    HW247599  25.565  10.469   7.454
15198SOL     OW47600   4.877   0.139   0.926
15198SOL    HW147601   4.957   0.132   0.977
15198SOL    HW247602   4.830   0.214   0.964
15199SOL     OW47603   7.303   3.148  -0.159
15199SOL    HW147604 -25.905  -7.885  21.885
15199SOL    HW247605  -3.727  -7.815  10.937
15200SOL     OW47606   1.509   1.470   8.693
15200SOL    HW147607  -9.527  12.414   8.700
15200SOL    HW247608   1.489   1.500   8.782
15201SOL     OW47609  12.193  -0.524  13.077
15201SOL    HW147610  -9.928  10.449  -8.948
15201SOL    HW247611  12.281  10.481  -9.017
15202SOL     OW47612   8.723   1.360   7.339
15202SOL    HW147613   8.802   1.405  -3.732
15202SOL    HW247614   8.697   1.305   7.265
15203SOL     OW47615   7.002  -0.607   3.518
15203SOL    HW147616   6.954  21.456   3.599
15203SOL    HW247617  29.037 -11.700   3.452
15204SOL     OW47618   8.171   5.705   7.378
15204SOL    HW147619  19.201   5.786   7.428
15204SOL    HW247620   8.160   5.635   7.442
15205SOL     OW47621  10.841   0.796  10.330
15205SOL    HW147622  10.820   0.811  10.423
15205SOL    HW247623 -11.311   0.743  10.298
15206SOL     OW47624   1.785   4.538   6.203
15206SOL    HW147625   1.826   4.457   6.235
15206SOL    HW247626  12.886   4.607  17.268
15207SOL     OW47627   4.755   3.933   2.696
15207SOL    HW147628  -6.224   3.872   2.738
15207SOL    HW247629   4.733   3.996   2.765
15208SOL     OW47630  -0.728   5.248   6.663
15208SOL    HW147631  -0.801   5.257  -4.315
15208SOL    HW247632  21.425  16.330   6.707
15209SOL     OW47633   9.324   5.914   5.024
15209SOL    HW147634  31.344  16.920   4.956
15209SOL    HW247635   9.298   6.005   5.036
15210SOL     OW47636   7.225   2.119   9.518
15210SOL    HW147637  18.266   2.200   9.569
15210SOL    HW247638   7.159   2.134   9.450
15211SOL     OW47639   3.961   0.228   9.275
15211SOL    HW147640   3.957   0.179   9.357
15211SOL    HW247641   4.027   0.183  -1.817
15212SOL     OW47642  10.378   3.111   2.338
15212SOL    HW147643  10.355   3.102   2.245
15212SOL    HW247644  10.432   3.190   2.341
15213SOL     OW47645   2.769  -1.113   0.830
15213SOL    HW147646  -8.205  20.995   0.894
15213SOL    HW247647   2.821  -1.147  11.797
15214SOL     OW47648  10.736   4.632  12.839
15214SOL    HW147649  10.733  -6.455  12.756
15214SOL    HW247650  10.660  -6.349 -31.322
15215SOL     OW47651   8.446   5.047   8.199
15215SOL    HW147652  -2.674   5.066   8.245
15215SOL    HW247653  -2.619   5.039  -2.933
15216SOL     OW47654   5.815   0.630   7.743
15216SOL    HW147655  -5.168   0.705   7.721
15216SOL    HW247656   5.738 -10.371   7.785
15217SOL     OW47657   4.766  11.440   8.223
15217SOL    HW147658   4.802   0.467   8.282
15217SOL    HW247659   4.671 -10.627   8.228
15218SOL     OW47660   9.088   3.700   8.954
15218SOL    HW147661   9.155   3.705  19.925
15218SOL    HW247662   9.131   3.653   9.026
15219SOL     OW47663   8.292  10.840  10.108
15219SOL    HW147664  -2.825  10.895  -0.920
15219SOL    HW247665   8.345  10.885  -0.997
15220SOL     OW47666   2.894   3.795   9.134
15220SOL    HW147667   2.807   3.835  -1.909
15220SOL    HW247668  13.918  14.740  -1.914
15221SOL     OW47669   9.546  10.154   8.126
15221SOL    HW147670   9.529  21.287   8.115
15221SOL    HW247671   9.580  10.126  30.120
15222SOL     OW47672   9.953   0.389   4.593
15222SOL    HW147673   9.993  22.476   4.680
15222SOL    HW247674   9.859   0.382  15.651
15223SOL     OW47675   0.723  11.065  10.131
15223SOL    HW147676   0.744   0.104  10.181
15223SOL    HW247677  11.673  11.042  10.158
15224SOL     OW47678   4.277   4.875   4.714
15224SOL    HW147679   4.358  26.998   4.739
15224SOL    HW247680   4.229   4.940   4.663
15225SOL     OW47681   6.622   0.124   8.997
15225SOL    HW147682   6.681   0.090   9.064
15225SOL    HW247683   6.534   0.107  -2.007
15226SOL     OW47684   8.306   6.483   8.353
15226SOL    HW147685   8.312   6.579   8.355
15226SOL    HW247686  -2.827  -4.575   8.351
15227SOL     OW47687  11.349   1.113  12.164
15227SOL    HW147688 -21.836   1.044  12.161
15227SOL    HW247689  11.420  23.155 -20.904
15228SOL     OW47690   1.401   0.832   7.292
15228SOL    HW147691   1.352   0.758   7.256
15228SOL    HW247692  -9.700   0.905   7.289
15229SOL     OW47693   5.640  -0.448   2.101
15229SOL    HW147694   5.610  10.677   2.069
15229SOL    HW247695   5.679  21.589   2.025
15230SOL     OW47696  10.709   2.858  10.393
15230SOL    HW147697  10.659   2.778  -0.628
15230SOL    HW247698  10.791   2.826  -0.686
15231SOL     OW47699   9.310   3.417   8.840
15231SOL    HW147700   9.287   3.330  19.847
15231SOL    HW247701   9.328  25.483   8.933
15232SOL     OW47702   4.135   4.051   8.116
15232SOL    HW147703   4.176  -6.997  -3.010
15232SOL    HW247704  15.204   3.974   8.164
15233SOL     OW47705   1.356   6.520   1.331
15233SOL    HW147706   1.362   6.560   1.244
15233SOL    HW247707  -9.619   6.568   1.383
15234SOL     OW47708   1.154   3.788   9.172
15234SOL    HW147709   1.082 -18.250   9.219
15234SOL    HW247710   1.233  -7.213  20.249
15235SOL     OW47711   1.645   1.824   7.039
15235SOL    HW147712   1.671 -20.213   6.958
15235SOL    HW247713   1.693   1.870   7.107
15236SOL     OW47714   7.828   5.632   0.377
15236SOL    HW147715   7.774 -16.368  11.410
15236SOL    HW247716  -3.210 -16.468   0.470
15237SOL     OW47717   5.954   7.564   9.881
15237SOL    HW147718  -5.136   7.509  -1.098
15237SOL    HW247719   5.993   7.632  -1.103
15238SOL     OW47720   7.852   4.870   6.478
15238SOL    HW147721   7.888   4.908   6.558
15238SOL    HW247722   7.823   4.945  -4.613
15239SOL     OW47723   1.514   7.529   4.664
15239SOL    HW147724  -9.613  18.550   4.700
15239SOL    HW247725   1.527   7.462   4.597
15240SOL     OW47726   8.714   4.670   1.363
15240SOL    HW147727  -2.404  37.769  -9.728
15240SOL    HW247728   8.735  26.839   1.340
15241SOL     OW47729   5.441   1.789  -0.036
15241SOL    HW147730   5.459  -9.209  10.919
15241SOL    HW247731 -16.580  -9.205   0.026
15242SOL     OW47732   6.649   2.010   9.274
15242SOL    HW147733 -15.355  -9.081   9.244
15242SOL    HW247734   6.581   1.995   9.208
15243SOL     OW47735   3.520   8.735   1.343
15243SOL    HW147736   3.569   8.665   1.386
15243SOL    HW247737  14.475   8.737   1.388
15244SOL     OW47738   1.279   7.468  11.534
15244SOL    HW147739   1.313 -25.715  11.473
15244SOL    HW247740  34.412  -3.487   0.452
15245SOL     OW47741   4.986   8.784   8.791
15245SOL    HW147742   4.908   8.730   8.783
15245SOL    HW247743  -6.087  30.952 -13.274
15246SOL     OW47744   9.821   3.094  14.087
15246SOL    HW147745   9.911   3.083 -41.142
15246SOL    HW247746   9.816 -18.894  14.115
15247SOL     OW47747  14.008   5.950  10.622
15247SOL    HW147748 -41.253   5.979  10.556
15247SOL    HW247749  -8.066   6.023  10.683
15248SOL     OW47750   1.598   2.817   9.343
15248SOL    HW147751   1.684   2.786  20.353
15248SOL    HW247752   1.611   2.838   9.436
15249SOL     OW47753   1.061   5.590   4.672
15249SOL    HW147754  -9.999   5.497  15.718
15249SOL    HW247755   1.037  16.665   4.758
15250SOL     OW47756   2.822   5.089   0.398
15250SOL    HW147757   2.873   5.163  44.589
15250SOL    HW247758   2.769  -5.914  33.446
15251SOL     OW47759   9.943   3.231   7.536
15251SOL    HW147760  10.036  -7.813   7.512
15251SOL    HW247761   9.922   3.142  29.646
15252SOL     OW47762   4.414   0.068   3.631
15252SOL    HW147763 -17.680  11.019   3.599
15252SOL    HW247764   4.446   0.057  -7.319
15253SOL     OW47765   0.939   9.802   2.025
15253SOL    HW147766   0.910   9.890   2.050
15253SOL    HW247767   0.959   9.809   1.932
15254SOL     OW47768   4.786   6.524   3.435
15254SOL    HW147769   4.714   6.562 -18.594
15254SOL    HW247770   4.849  -4.444 -18.655
15255SOL     OW47771   8.258   5.839   3.369
15255SOL    HW147772   8.241   5.870 -29.838
15255SOL    HW247773   8.172   5.839  -7.628
15256SOL     OW47774   5.781   4.653   3.977
15256SOL    HW147775   5.873  26.755  -7.070
15256SOL    HW247776   5.746  37.783 -18.190
15257SOL     OW47777  -0.196   5.740   7.594
15257SOL    HW147778  10.808   5.657   7.624
15257SOL    HW247779  -0.166   5.723   7.505
15258SOL     OW47780   9.013   1.130   2.177
15258SOL    HW147781  20.110   1.065  -8.903
15258SOL    HW247782   9.055   1.214   2.157
15259SOL     OW47783   3.296  -0.780  10.186
15259SOL    HW147784   3.218  21.246  21.215
15259SOL    HW247785   3.329  21.313  10.097
15260SOL     OW47786   7.573  11.366   2.783
15260SOL    HW147787   7.516   0.380   2.839
15260SOL    HW247788 -14.423   0.373   2.784
15261SOL     OW47789   8.599   3.206   6.931
15261SOL    HW147790   8.676  -7.783   6.957
15261SOL    HW247791   8.547   3.197  29.090
15262SOL     OW47792   9.913   8.810   1.137
15262SOL    HW147793   9.928   8.902  34.277
15262SOL    HW247794  -1.040   8.776  12.154
15263SOL     OW47795  -1.443   8.544   3.331
15263SOL    HW147796   9.537   8.472  14.353
15263SOL    HW247797  20.640   8.549  -7.613
15264SOL     OW47798   0.887   2.459   5.992
15264SOL    HW147799 -10.097   2.438   5.917
15264SOL    HW247800   0.805  24.490  28.054
15265SOL     OW47801   8.132   1.557   3.542
15265SOL    HW147802  30.294  34.685   3.589
15265SOL    HW247803  -2.959   1.498  14.637
15266SOL     OW47804  10.249   1.442   0.318
15266SOL    HW147805  10.166   1.408   0.286
15266SOL    HW247806  10.250   1.420   0.411
15267SOL     OW47807   1.884   4.715  -0.793
15267SOL    HW147808   1.927   4.800  -0.783
15267SOL    HW247809  12.958   4.663  21.359
15268SOL     OW47810   5.487  12.991   8.825
15268SOL    HW147811  16.524 -20.216   8.860
15268SOL    HW247812   5.449   2.006   8.895
15269SOL     OW47813  10.597   3.625   5.818
15269SOL    HW147814  10.523   3.666  16.813
15269SOL    HW247815  10.624  -7.485   5.759
15270SOL     OW47816   1.081  10.936   4.745
15270SOL    HW147817  23.212  11.014  15.763
15270SOL    HW247818   1.131  10.863   4.709
15271SOL     OW47819   2.684   9.202   6.202
15271SOL    HW147820   2.660  -1.900   6.270
15271SOL    HW247821   2.770   9.172  17.211
15272SOL     OW47822   7.485   8.885   8.988
15272SOL    HW147823   7.500  31.042   8.934
15272SOL    HW247824   7.403  19.888  -2.085
15273SOL     OW47825  10.152   8.691   5.581
15273SOL    HW147826  10.068   8.726   5.553
15273SOL    HW247827  10.135  41.717  -5.442
15274SOL     OW47828   2.103   5.955   0.762
15274SOL    HW147829  13.173   5.888   0.824
15274SOL    HW247830  -8.857   5.987   0.720
15275SOL     OW47831   3.304  -0.277   5.770
15275SOL    HW147832   3.306  -0.358   5.719
15275SOL    HW247833  14.321  10.831   5.706
15276SOL     OW47834   4.578   4.144   1.778
15276SOL    HW147835  26.748   4.147   1.748
15276SOL    HW247836  15.619   4.183   1.865
15277SOL     OW47837   0.558   2.735   1.135
15277SOL    HW147838 -10.403   2.755   1.083
15277SOL    HW247839  11.588  24.889   1.194
15278SOL     OW47840   4.370   7.578   3.951
15278SOL    HW147841   4.317  18.574  14.923
15278SOL    HW247842   4.338   7.668  14.991
15279SOL     OW47843   9.082   9.330   2.933
15279SOL    HW147844  -2.006  31.352   2.874
15279SOL    HW247845 -12.984   9.278  -8.027
15280SOL     OW47846  10.913   9.353   4.249
15280SOL    HW147847  10.865   9.411  15.348
15280SOL    HW247848  -0.155   9.265   4.274
15281SOL     OW47849  -0.574  10.480   8.050
15281SOL    HW147850  10.540  -0.609   8.083
15281SOL    HW247851  -0.644 -22.656 -25.005
15282SOL     OW47852   3.269  11.017   4.957
15282SOL    HW147853   3.264  10.933  -6.035
15282SOL    HW247854   3.215  11.076   5.009
15283SOL     OW47855   6.848   7.261   5.424
15283SOL    HW147856   6.900  29.358   5.346
15283SOL    HW247857   6.758  18.323   5.399
15284SOL     OW47858   0.009   8.459   7.461
15284SOL    HW147859  -0.041   8.410   7.396
15284SOL    HW247860   0.053   8.392 -14.566
15285SOL     OW47861  -0.015   7.871  10.625
15285SOL    HW147862  10.971   7.947  10.602
15285SOL    HW247863  10.961   7.800  10.634
15286SOL     OW47864   7.455   1.658   0.085
15286SOL    HW147865   7.505   1.647   0.166
15286SOL    HW247866  -3.518   1.666   0.017
15287SOL     OW47867   8.051  -1.995   6.902
15287SOL    HW147868   7.972   9.068   6.853
15287SOL    HW247869   8.099  31.065   6.843
15288SOL     OW47870   8.314   2.994   2.223
15288SOL    HW147871   8.223 -19.082   2.253
15288SOL    HW247872  -2.679   2.945  -8.749
15289SOL     OW47873   7.302   7.121   3.291
15289SOL    HW147874 -36.828   7.189   3.231
15289SOL    HW247875 -14.776   7.162   3.378
15290SOL     OW47876   8.914  13.073   4.950
15290SOL    HW147877   8.849   2.040   5.021
15290SOL    HW247878   8.865 -20.080 -39.283
15291SOL     OW47879   5.981   0.156  11.266
15291SOL    HW147880   6.015  11.112   0.257
15291SOL    HW247881   6.040  11.221  11.196
15292SOL     OW47882  10.215  12.184   3.161
15292SOL    HW147883  10.231  -9.987  14.179
15292SOL    HW247884  10.232  12.190  14.294
15293SOL     OW47885   3.045  12.795   6.063
15293SOL    HW147886   3.113   1.809  -4.935
15293SOL    HW247887   3.065  -9.373   6.090
15294SOL     OW47888   5.454   9.825  10.674
15294SOL    HW147889   5.490   9.824 -11.494
15294SOL    HW247890  -5.574   9.735  10.706
15295SOL     OW47891   1.672   5.875   3.843
15295SOL    HW147892   1.612   5.831   3.783
15295SOL    HW247893  12.760   5.936   3.788
15296SOL     OW47894   3.424   3.034   4.301
15296SOL    HW147895   3.360   3.009  15.274
15296SOL    HW247896   3.419   2.963 -61.871
15297SOL     OW47897   5.598   5.837  10.349
15297SOL    HW147898   5.519   5.886  10.373
15297SOL    HW247899  16.620   5.747  10.377
15298SOL     OW47900   6.726   9.547   6.778
15298SOL    HW147901  28.730   9.587   6.734
15298SOL    HW247902   6.800  20.641   6.753
15299SOL     OW47903   6.743  -0.704   9.093
15299SOL    HW147904   6.678  10.283  20.085
15299SOL    HW247905   6.827  21.350   9.054
15300SOL     OW47906   9.743   8.849   5.502
15300SOL    HW147907   9.692   8.770   5.481
15300SOL    HW247908   9.696  30.999   5.460
15301SOL     OW47909   2.679   9.621   7.822
15301SOL    HW147910   2.638   9.561  29.840
15301SOL    HW247911   2.770   9.593   7.827
15302SOL     OW47912   1.268   0.284   1.571
15302SOL    HW147913  12.403   0.280   1.580
15302SOL    HW247914   1.248   0.378  23.651
15303SOL     OW47915   5.111   4.638   1.873
15303SOL    HW147916 -17.041   4.690   1.839
15303SOL    HW247917   5.190   4.686  -9.194
15304SOL     OW47918   9.968   3.477   2.846
15304SOL    HW147919  10.023  14.438   2.842
15304SOL    HW247920   9.925   3.481   2.761
15305SOL     OW47921   4.934   9.234  12.468
15305SOL    HW147922   4.966   9.249   1.517
15305SOL    HW247923  15.879   9.247  -9.605
15306SOL     OW47924   9.549   3.692   9.534
15306SOL    HW147925   9.539   3.765   9.473
15306SOL    HW247926   9.463   3.652  -1.501
15307SOL     OW47927   9.473   8.357   7.834
15307SOL    HW147928   9.468 -13.816   7.817
15307SOL    HW247929   9.553   8.385  18.828
15308SOL     OW47930  11.707   5.637   9.510
15308SOL    HW147931   0.734   5.666  20.488
15308SOL    HW247932 -21.430  -5.325   9.564
15309SOL     OW47933   8.289   2.263   3.822
15309SOL    HW147934  -2.842  13.300   3.796
15309SOL    HW247935   8.295  -8.837   3.896
15310SOL     OW47936   4.814  10.981   3.432
15310SOL    HW147937   4.821  11.054  -7.547
15310SOL    HW247938   4.880  10.998   3.365
15311SOL     OW47939   4.597   5.945  11.860
15311SOL    HW147940   4.666   6.008   0.801
15311SOL    HW247941   4.515  17.032 -10.237
15312SOL     OW47942   4.121   7.986   4.995
15312SOL    HW147943 -17.877   7.955  15.992
15312SOL    HW247944 -40.006   8.043  -5.974
15313SOL     OW47945   8.605  10.503   6.334
15313SOL    HW147946   8.541  10.432 -15.750
15313SOL    HW247947   8.554  10.579   6.364
15314SOL     OW47948   6.120   5.242   0.022
15314SOL    HW147949   6.139   5.336   0.016
15314SOL    HW247950 -15.977  38.335  -0.069
15315SOL     OW47951   4.571   9.285   7.893
15315SOL    HW147952 -39.654   9.280   7.823
15315SOL    HW247953  -6.395   9.234   7.859
15316SOL     OW47954   9.299   9.167   5.486
15316SOL    HW147955   9.343  -1.826   5.415
15316SOL    HW247956   9.340   9.201   5.566
15317SOL     OW47957   6.407  10.585   6.608
15317SOL    HW147958   6.399  10.535   6.527
15317SOL    HW247959   6.486  10.638  28.676
15318SOL     OW47960   8.143   2.551   9.460
15318SOL    HW147961   8.237   2.533   9.468
15318SOL    HW247962   8.121   2.525 -34.787
15319SOL     OW47963   8.855   9.878   2.025
15319SOL    HW147964  30.980   9.935  -8.952
15319SOL    HW247965   8.790  20.872   2.077
15320SOL     OW47966   9.758  -0.066   4.440
15320SOL    HW147967   9.670  11.008   4.450
15320SOL    HW247968   9.811   0.011   4.417
15321SOL     OW47969   0.327   6.954   5.619
15321SOL    HW147970  11.335   6.987   5.703
15321SOL    HW247971 -10.757  18.047  16.593
15322SOL     OW47972   8.992   3.577   7.364
15322SOL    HW147973   8.916   3.525   7.337
15322SOL    HW247974  -2.045   3.566   7.459
15323SOL     OW47975   0.902  12.181  -0.423
15323SOL    HW147976   0.995  -9.919  10.607
15323SOL    HW247977   0.882   1.119  -0.332
15324SOL     OW47978   2.770   8.444   6.697
15324SOL    HW147979   2.785   8.399  -4.259
15324SOL    HW247980   2.735  41.648  17.761
15325SOL     OW47981   3.458   6.116   6.617
15325SOL    HW147982   3.483  -4.978  17.731
15325SOL    HW247983   3.395  -4.861   6.653
15326SOL     OW47984   1.635  10.095   6.782
15326SOL    HW147985   1.564  10.088  17.886
15326SOL    HW247986   1.595 -34.090   6.700
15327SOL     OW47987   6.893   5.289   8.887
15327SOL    HW147988 -26.288  -5.821  -2.138
15327SOL    HW247989  40.017   5.297   8.792
15328SOL     OW47990   9.051   1.192   4.899
15328SOL    HW147991   8.992   1.192   4.823
15328SOL    HW247992  31.080  23.229  16.008
15329SOL     OW47993   8.257   3.327   5.070
15329SOL    HW147994  19.235   3.258   5.095
15329SOL    HW247995   8.322   3.283   5.016
15330SOL     OW47996   3.628   8.423   1.240
15330SOL    HW147997  25.801   8.405  12.271
15330SOL    HW247998  14.656   8.445  23.412
15331SOL     OW47999   3.583   1.319   5.375
15331SOL    HW148000  14.710   1.325  16.452
15331SOL    HW248001  -7.443   1.287   5.286
15332SOL     OW48002   0.345   4.311   3.037
15332SOL    HW148003   0.307   4.366  -7.935
15332SOL    HW248004   0.291   4.328   2.960
15333SOL     OW48005   5.697   4.626   0.165
15333SOL    HW148006   5.731  26.642   0.228
15333SOL    HW248007  -5.272  15.729  11.194
15334SOL     OW48008   4.025   0.062   9.778
15334SOL    HW148009   3.935   0.033   9.791
15334SOL    HW248010   4.028   0.150  31.894
15335SOL     OW48011  -1.060   5.888   6.463
15335SOL    HW148012  21.105  16.961   6.488
15335SOL    HW248013   9.939   5.959   6.413
15336SOL     OW48014   2.238   2.659   6.316
15336SOL    HW148015   2.312   2.685  17.411
15336SOL    HW248016   2.173  24.807   6.329
15337SOL     OW48017   2.458   3.187   5.411
15337SOL    HW148018   2.387  14.192   5.465
15337SOL    HW248019  13.478   3.157   5.322
15338SOL     OW48020   9.884  -0.119   3.731
15338SOL    HW148021  20.865  -0.126   3.655
15338SOL    HW248022   9.967  21.991   3.694
15339SOL     OW48023   5.993   1.634   7.119
15339SOL    HW148024   5.954   1.713  -3.959
15339SOL    HW248025   6.087   1.649   7.114
15340SOL     OW48026   9.914   5.031   7.536
15340SOL    HW148027   9.978  38.180   7.600
15340SOL    HW248028   9.881   5.110  -3.545
15341SOL     OW48029   6.121   7.948   1.260
15341SOL    HW148030   6.196 -14.174  -9.820
15341SOL    HW248031   6.139   8.042   1.251
15342SOL     OW48032   3.816   8.834   7.698
15342SOL    HW148033  25.804   8.863   7.710
15342SOL    HW248034   3.830   8.770   7.768
15343SOL     OW48035   0.294   1.978   3.511
15343SOL    HW148036  11.375   1.913   3.454
15343SOL    HW248037   0.280  -9.107   3.594
15344SOL     OW48038   9.915  10.484   2.418
15344SOL    HW148039  -1.102  -0.644   2.446
15344SOL    HW248040   9.898  21.572  -8.541
15345SOL     OW48041   9.427   3.659  10.349
15345SOL    HW148042   9.468   3.673  10.434
15345SOL    HW248043   9.462   3.575  10.319
15346SOL     OW48044   9.524   5.577   6.011
15346SOL    HW148045   9.539  16.712   6.012
15346SOL    HW248046   9.575   5.545   6.086
15347SOL     OW48047   7.724   5.818   3.030
15347SOL    HW148048  29.788   5.912   3.023
15347SOL    HW248049   7.686   5.794  25.193
15348SOL     OW48050   5.375   5.018   5.734
15348SOL    HW148051   5.460  -6.067   5.733
15348SOL    HW248052   5.315   4.955   5.774
15349SOL     OW48053   2.802   6.976   5.561
15349SOL    HW148054   2.789   7.014  -5.566
15349SOL    HW248055  47.038   6.921   5.552
15350SOL     OW48056   8.142  10.750   9.664
15350SOL    HW148057   8.166  10.828   9.715
15350SOL    HW248058  -2.963 -11.373   9.718
15351SOL     OW48059   3.973   9.038  13.324
15351SOL    HW148060   3.904   9.029 -30.900
15351SOL    HW248061  26.062   9.132  13.337
15352SOL     OW48062   7.864   0.945   3.910
15352SOL    HW148063   7.813   0.898  -7.195
15352SOL    HW248064  -3.225   1.027   3.924
15353SOL     OW48065   6.707   2.508   0.313
15353SOL    HW148066   6.753   2.426  22.376
15353SOL    HW248067   6.616  24.569   0.287
15354SOL     OW48068   0.104   9.898   8.270
15354SOL    HW148069   0.067   9.903   8.358
15354SOL    HW248070   0.196 -12.156   8.280
15355SOL     OW48071   8.462   7.937   5.723
15355SOL    HW148072   8.400 -14.135   5.795
15355SOL    HW248073   8.474   8.026   5.691
15356SOL     OW48074   6.815   9.947  11.171
15356SOL    HW148075   6.825  10.030   0.178
15356SOL    HW248076   6.779   9.887  11.237
15357SOL     OW48077   4.020   4.733   5.278
15357SOL    HW148078   4.094   4.673   5.285
15357SOL    HW248079  -7.086   4.684   5.230
15358SOL     OW48080   4.884   7.826   2.943
15358SOL    HW148081   4.933   7.745   2.951
15358SOL    HW248082   4.919   7.882  36.131
15359SOL     OW48083   3.246   9.297   6.993
15359SOL    HW148084  14.351   9.313   6.925
15359SOL    HW248085   3.255   9.372  18.093
15360SOL     OW48086  -0.630   3.615   5.010
15360SOL    HW148087  21.497   3.563  -5.965
15360SOL    HW248088  -0.565  14.714  16.012
15361SOL     OW48089  10.309   6.530   4.806
15361SOL    HW148090  10.385   6.474  -6.220
15361SOL    HW248091  21.281  -4.546   4.862
15362SOL     OW48092   4.487   3.980   5.919
15362SOL    HW148093   4.458  -6.994   5.856
15362SOL    HW248094   4.419  -7.127   5.916
15363SOL     OW48095   6.857   0.080   5.216
15363SOL    HW148096  40.034   0.109   5.146
15363SOL    HW248097  17.921   0.135   5.291
15364SOL     OW48098   6.318   7.914   9.773
15364SOL    HW148099   6.309  19.032   9.718
15364SOL    HW248100   6.341   7.947  20.899
15365SOL     OW48101   5.664  10.397   9.968
15365SOL    HW148102   5.650  10.333  20.938
15365SOL    HW248103   5.581  10.400  10.016
15366SOL     OW48104  10.323   7.684   4.138
15366SOL    HW148105  10.325  -3.405   4.220
15366SOL    HW248106  10.285  18.808   4.162
15367SOL     OW48107   9.873  10.766   7.780
15367SOL    HW148108   9.933  10.703  -3.220
15367SOL    HW248109   9.930  10.830   7.737
15368SOL     OW48110   0.640   8.018   0.694
15368SOL    HW148111   0.565   8.024   0.634
15368SOL    HW248112   0.620   8.081   0.763
15369SOL     OW48113   5.023   3.425   6.161
15369SOL    HW148114 -28.020  47.570   6.104
15369SOL    HW248115 -17.124  -7.671   6.124
15370SOL     OW48116   7.173   5.759  10.175
15370SOL    HW148117  18.216  16.703  10.183
15370SOL    HW248118   7.125   5.788  10.252
15371SOL     OW48119   3.664   9.592   6.241
15371SOL    HW148120 -18.357   9.571   6.167
15371SOL    HW248121   3.599   9.522   6.241
15372SOL     OW48122   0.439  10.571   0.274
15372SOL    HW148123   0.372  10.563   0.206
15372SOL    HW248124   0.469  10.661  11.307
15373SOL     OW48125   9.261   8.428   3.995
15373SOL    HW148126  20.213   8.392  26.058
15373SOL    HW248127   9.249   8.488  26.148
15374SOL     OW48128   8.288   1.539   3.799
15374SOL    HW148129   8.367   1.488   3.817
15374SOL    HW248130   8.217   1.485   3.834
15375SOL     OW48131   4.017  10.114   3.609
15375SOL    HW148132   4.051  10.026   3.595
15375SOL    HW248133  15.100  10.168   3.543
15376SOL     OW48134   4.022   8.114   3.595
15376SOL    HW148135   4.004   8.036   3.646
15376SOL    HW248136  -6.933   8.097  -7.486
15377SOL     OW48137   2.256   2.562   7.750
15377SOL    HW148138   2.166   2.530  40.879
15377SOL    HW248139   2.298   2.497  -3.347
15378SOL     OW48140   6.827   5.603   1.708
15378SOL    HW148141   6.808   5.664  -9.259
15378SOL    HW248142  17.814   5.636  23.715
15379SOL     OW48143  11.068   9.090   0.378
15379SOL    HW148144 -10.959 -12.921   0.419
15379SOL    HW248145  11.094  -2.030   0.423
15380SOL     OW48146   5.993   2.466   2.942
15380SOL    HW148147  -5.130  -8.538   2.910
15380SOL    HW248148   6.060   2.513   2.893
15381SOL     OW48149   0.355   2.464   2.114
15381SOL    HW148150   0.374   2.516   2.036
15381SOL    HW248151   0.282   2.510   2.156
15382SOL     OW48152   5.759   8.518   2.248
15382SOL    HW148153   5.698  30.560  -8.728
15382SOL    HW248154  -5.222  -2.466  24.378
15383SOL     OW48155   1.766   0.128   8.746
15383SOL    HW148156  -9.185   0.164  -2.291
15383SOL    HW248157   1.751   0.109   8.653
15384SOL     OW48158  11.954   4.360   2.408
15384SOL    HW148159  11.864  -6.667   2.438
15384SOL    HW248160 -10.077   4.337  -8.553
15385SOL     OW48161   4.106   2.044   0.955
15385SOL    HW148162  26.238   2.084 -21.055
15385SOL    HW248163  15.206   2.030  34.002
15386SOL     OW48164   5.240   6.799   2.503
15386SOL    HW148165   5.259   6.718   2.456
15386SOL    HW248166   5.316   6.811   2.560
15387SOL     OW48167   0.230   0.556  13.580
15387SOL    HW148168  11.256  11.687  -8.477
15387SOL    HW248169   0.142   0.518 -19.542
15388SOL     OW48170   9.414   2.936  -0.444
15388SOL    HW148171   9.407   2.991  -0.366
15388SOL    HW248172   9.473 -19.096  21.577
15389SOL     OW48173  10.271   1.859   6.801
15389SOL    HW148174  10.270   1.932   6.862
15389SOL    HW248175 -11.877   1.879   6.738
15390SOL     OW48176   1.692  10.647   5.292
15390SOL    HW148177   1.654  10.708   5.229
15390SOL    HW248178   1.629  10.645   5.364
15391SOL     OW48179  10.215   8.908   1.844
15391SOL    HW148180  10.123   8.917   1.819
15391SOL    HW248181  -0.823   8.925   1.938
15392SOL     OW48182   9.111   9.570   4.167
15392SOL    HW148183   9.075  31.725  15.253
15392SOL    HW248184   9.034   9.526   4.131
15393SOL     OW48185   8.127   1.582   7.921
15393SOL    HW148186   8.216  12.611 -14.190
15393SOL    HW248187  19.147   1.499 -14.114
15394SOL     OW48188   7.203   0.068   9.005
15394SOL    HW148189   7.208  -0.001  19.978
15394SOL    HW248190  -3.746   0.079   9.033
15395SOL     OW48191   9.032   9.098   5.904
15395SOL    HW148192   9.083  31.257  -5.148
15395SOL    HW248193   9.070   9.035  -5.197
15396SOL     OW48194   3.635   7.510  10.362
15396SOL    HW148195   3.684  29.623  -0.602
15396SOL    HW248196   3.692   7.526  10.287
15397SOL     OW48197   0.304   1.626   9.564
15397SOL    HW148198   0.219   1.594   9.536
15397SOL    HW248199  44.506  -9.489   9.602
15398SOL     OW48200  11.905   1.492   8.131
15398SOL    HW148201  11.872   1.436   8.060
15398SOL    HW248202 -10.137   1.568   8.085
15399SOL     OW48203   7.377   0.737   7.029
15399SOL    HW148204   7.312   0.782   7.083
15399SOL    HW248205   7.339   0.737   6.941
15400SOL     OW48206   2.456   6.636  10.160
15400SOL    HW148207   2.436   6.556  10.111
15400SOL    HW248208   2.534   6.671  21.157
15401SOL     OW48209   4.666   2.714   9.233
15401SOL    HW148210   4.639  13.674   9.187
15401SOL    HW248211   4.731   2.684 -12.782
15402SOL     OW48212   8.536   7.071   9.025
15402SOL    HW148213  -2.535   7.138  -2.075
15402SOL    HW248214   8.513   7.105   9.112
15403SOL     OW48215   8.065   7.360   2.076
15403SOL    HW148216 -14.056  18.486   2.071
15403SOL    HW248217   8.064   7.328  24.065
15404SOL     OW48218   6.124   4.732   2.733
15404SOL    HW148219   6.078   4.816   2.731
15404SOL    HW248220  17.198 -17.354   2.822
15405SOL     OW48221  10.664   6.418   5.936
15405SOL    HW148222  10.657  39.512  38.962
15405SOL    HW248223  10.605  17.532   5.945
15406SOL     OW48224   6.794   8.969   0.096
15406SOL    HW148225   6.711   8.977   0.050
15406SOL    HW248226  28.850   8.970   0.189
15407SOL     OW48227  -0.390   9.785  10.709
15407SOL    HW148228  -0.402   9.879 -33.443
15407SOL    HW248229  10.562   9.749  21.761
15408SOL     OW48230   9.253   7.732  -0.409
15408SOL    HW148231   9.205  18.777  10.714
15408SOL    HW248232   9.339   7.699  -0.384
15409SOL     OW48233   3.248   4.404   5.193
15409SOL    HW148234   3.161  26.511   5.222
15409SOL    HW248235  14.347   4.468   5.231
15410SOL     OW48236   3.913  10.663  10.389
15410SOL    HW148237   3.979  10.594  -0.658
15410SOL    HW248238   3.830  10.617  10.381
15411SOL     OW48239   9.209   8.306   0.385
15411SOL    HW148240  20.262   8.400  11.439
15411SOL    HW248241  20.155   8.292 -10.639
15412SOL     OW48242   3.161   2.322  10.750
15412SOL    HW148243   3.231   2.259  10.767
15412SOL    HW248244   3.201  24.468  -0.345
15413SOL     OW48245   3.322   9.075   6.210
15413SOL    HW148246   3.287   9.044  -4.746
15413SOL    HW248247   3.408   9.112   6.233
15414SOL     OW48248   8.508   5.021   8.900
15414SOL    HW148249  19.504   4.990   8.979
15414SOL    HW248250  19.504  -5.936   8.879
15415SOL     OW48251  11.617   1.627   4.871
15415SOL    HW148252  11.632  12.622  -6.253
15415SOL    HW248253 -21.439  -9.453 -17.149
15416SOL     OW48254   5.313   9.981   9.086
15416SOL    HW148255  16.274  20.979  20.090
15416SOL    HW248256   5.280  10.031  -1.878
15417SOL     OW48257  -0.732   2.864   5.142
15417SOL    HW148258  10.248   2.930  27.187
15417SOL    HW248259  10.278   2.851   5.233
15418SOL     OW48260   0.540   2.045   1.952
15418SOL    HW148261   0.534   2.106   2.025
15418SOL    HW248262  11.674   2.035 -20.142
15419SOL     OW48263   5.910  -3.723   2.848
15419SOL    HW148264  -5.194  29.347   2.900
15419SOL    HW248265  27.947  51.486   2.763
15420SOL     OW48266   9.703  15.049   1.501
15420SOL    HW148267   9.620  -7.070   1.528
15420SOL    HW248268   9.742 -40.213  -9.598
15421SOL     OW48269   9.243   4.722   4.575
15421SOL    HW148270   9.271  15.820   4.645
15421SOL    HW248271  20.288   4.634  15.653
15422SOL     OW48272   0.941   1.818   6.938
15422SOL    HW148273   1.033   1.816   6.965
15422SOL    HW248274 -10.147   1.836  18.058
15423SOL     OW48275   4.404   9.124   5.028
15423SOL    HW148276   4.448   9.047   5.065
15423SOL    HW248277   4.317   9.123   5.067
15424SOL     OW48278   8.076   4.294   2.769
15424SOL    HW148279  -3.007  -6.736  -8.186
15424SOL    HW248280   8.134   4.219  -8.260
15425SOL     OW48281   9.330  11.450   8.860
15425SOL    HW148282  31.379  11.450  -2.270
15425SOL    HW248283   9.405 -21.729  19.900
15426SOL     OW48284   0.955  -0.347   8.347
15426SOL    HW148285   0.961  -0.261   8.307
15426SOL    HW248286   0.861  21.717   8.357
15427SOL     OW48287   3.789  10.685   1.643
15427SOL    HW148288   3.872  10.732   1.651
15427SOL    HW248289   3.808 -11.467  -9.456
15428SOL     OW48290   4.970   9.843   6.509
15428SOL    HW148291   4.952 -23.183  17.559
15428SOL    HW248292  -5.978  -1.207  17.572
15429SOL     OW48293   8.448   2.677   3.481
15429SOL    HW148294   8.370   2.627  -7.582
15429SOL    HW248295 -24.658  -8.380  14.614
15430SOL     OW48296   8.548   7.248   3.999
15430SOL    HW148297   8.537   7.177   3.936
15430SOL    HW248298   8.514  -3.827   4.081
15431SOL     OW48299  10.826   4.968   7.296
15431SOL    HW148300  10.886   4.894   7.288
15431SOL    HW248301  10.883   5.045  18.336
15432SOL     OW48302   0.168   4.187   1.915
15432SOL    HW148303   0.233   4.170   1.847
15432SOL    HW248304   0.085  -6.884  -9.162
15433SOL     OW48305   6.217   7.819   3.556
15433SOL    HW148306   6.154  29.930   3.620
15433SOL    HW248307   6.297   7.802   3.607
15434SOL     OW48308   2.574   5.266   9.128
15434SOL    HW148309   2.650  16.322   9.072
15434SOL    HW248310   2.560   5.171   9.122
15435SOL     OW48311   9.363   9.315  10.089
15435SOL    HW148312  -1.631 -12.685  10.062
15435SOL    HW248313   9.321   9.339  -0.868
15436SOL     OW48314   4.942   7.928   6.878
15436SOL    HW148315   4.932   7.911  17.824
15436SOL    HW248316  -6.157  -3.040   6.896
15437SOL     OW48317   2.689   4.431  10.757
15437SOL    HW148318   2.697  37.461  10.720
15437SOL    HW248319   2.742   4.429  10.836
15438SOL     OW48320   4.786   9.791   5.998
15438SOL    HW148321   4.846   9.808   5.926
15438SOL    HW248322   4.810   9.704   6.029
15439SOL     OW48323   7.968   1.979   7.883
15439SOL    HW148324   8.014   1.972   7.799
15439SOL    HW248325  18.995   2.073  -3.144
15440SOL     OW48326  10.154   9.327   1.478
15440SOL    HW148327  10.140   9.333   1.383
15440SOL    HW248328  10.198   9.243   1.491
15441SOL     OW48329  -3.647   5.975   6.006
15441SOL    HW148330  29.425   6.051   5.972
15441SOL    HW248331  29.495   5.998 -15.983
15442SOL     OW48332   8.088   2.797   0.247
15442SOL    HW148333   8.108  -8.162   0.200
15442SOL    HW248334   8.017 -19.258   0.306
15443SOL     OW48335  10.697   6.136   8.131
15443SOL    HW148336  10.773  17.218   8.092
15443SOL    HW248337  10.630   6.205   8.132
15444SOL     OW48338   6.079   7.686   5.611
15444SOL    HW148339   6.057   7.751 -27.575
15444SOL    HW248340  -5.039   7.680   5.665
15445SOL     OW48341   5.844   7.063   3.470
15445SOL    HW148342   5.850   7.032   3.560
15445SOL    HW248343   5.750   7.068  -7.587
15446SOL     OW48344   2.462   7.656   4.607
15446SOL    HW148345   2.386  -3.415   4.558
15446SOL    HW248346  13.498   7.609  15.729
15447SOL     OW48347   6.255   9.802   8.105
15447SOL    HW148348  17.307  -1.262  -3.027
15447SOL    HW248349   6.205   9.884  19.141
15448SOL     OW48350   9.787   5.713   9.560
15448SOL    HW148351   9.838   5.732   9.639
15448SOL    HW248352   9.851   5.712   9.489
15449SOL     OW48353   7.083   4.436   2.468
15449SOL    HW148354  -3.944   4.524  13.470
15449SOL    HW248355   7.100   4.377   2.395
15450SOL     OW48356  10.956   5.714   6.551
15450SOL    HW148357  11.047   5.688   6.537
15450SOL    HW248358 -22.214  16.686  17.548
15451SOL     OW48359   2.483   2.007  10.130
15451SOL    HW148360 -19.660   2.073  10.158
15451SOL    HW248361   2.529  24.061  10.210
15452SOL     OW48362   4.625   8.941   5.699
15452SOL    HW148363   4.700   8.909   5.749
15452SOL    HW248364  -6.387 -13.145  16.647
15453SOL     OW48365   6.114   2.493   6.991
15453SOL    HW148366  -4.996   2.472   7.053
15453SOL    HW248367  -4.940   2.585   6.969
15454SOL     OW48368   1.943   1.883   6.526
15454SOL    HW148369   1.966   1.799  -4.555
15454SOL    HW248370  24.081   1.889   6.601
15455SOL     OW48371   5.141   9.492   2.808
15455SOL    HW148372   5.117   9.456  -8.146
15455SOL    HW248373 -39.099   9.488  13.797
15456SOL     OW48374  10.559   8.684   7.372
15456SOL    HW148375  10.499   8.750  18.377
15456SOL    HW248376  10.558   8.699  18.506
15457SOL     OW48377   8.186   5.921  10.232
15457SOL    HW148378  -2.818   5.899  10.146
15457SOL    HW248379  30.330   5.979  10.272
15458SOL     OW48380   6.909   9.865   2.917
15458SOL    HW148381   6.881   9.957   2.911
15458SOL    HW248382   6.937   9.855   3.008
15459SOL     OW48383   1.954   6.672   2.054
15459SOL    HW148384   1.977  17.619   2.052
15459SOL    HW248385   2.033  17.756  13.125
15460SOL     OW48386   9.815   1.743   2.115
15460SOL    HW148387   9.751  23.763  -8.883
15460SOL    HW248388  20.827  -9.209  -8.898
15461SOL     OW48389   1.601   3.597   5.888
15461SOL    HW148390   1.610   3.682   5.845
15461SOL    HW248391   1.599  -7.506   5.816
15462SOL     OW48392   1.822  -0.235   5.818
15462SOL    HW148393  23.948  10.882 -16.294
15462SOL    HW248394   1.892  -0.294   5.847
15463SOL     OW48395   1.327   2.605   1.546
15463SOL    HW148396   1.282   2.686   1.568
15463SOL    HW248397   1.415   2.632   1.521
15464SOL     OW48398   7.608   5.164  10.017
15464SOL    HW148399   7.586   5.114  21.135
15464SOL    HW248400  29.618   5.230  10.011
15465SOL     OW48401  11.142   8.973  10.530
15465SOL    HW148402 -10.992   9.020  10.467
15465SOL    HW248403  11.081   8.921  -0.458
15466SOL     OW48404   0.820   8.142   8.023
15466SOL    HW148405  11.779  19.136  -3.042
15466SOL    HW248406   0.868  -2.962   8.075
15467SOL     OW48407  10.457   3.257   4.654
15467SOL    HW148408  -0.599  -7.847  15.762
15467SOL    HW248409 -11.544   3.304   4.684
15468SOL     OW48410  -0.991   8.886   2.484
15468SOL    HW148411   9.969   8.924   2.521
15468SOL    HW248412  21.057   8.821   2.421
15469SOL     OW48413   1.005   9.070   1.804
15469SOL    HW148414   1.020   9.146  -9.292
15469SOL    HW248415   0.912   9.074   1.826
15470SOL     OW48416   4.110  10.659   1.674
15470SOL    HW148417  -6.979 -11.493  -9.402
15470SOL    HW248418  -6.954  10.661   1.767
15471SOL     OW48419   6.074   2.738   5.961
15471SOL    HW148420   6.000   2.793   5.935
15471SOL    HW248421   6.088   2.679   5.887
15472SOL     OW48422   2.515   1.727  10.603
15472SOL    HW148423   2.529   1.776  10.522
15472SOL    HW248424   2.529  -9.249  10.673
15473SOL     OW48425   9.348   2.009   1.844
15473SOL    HW148426  20.437  35.175   1.777
15473SOL    HW248427  20.371   2.074  12.951
15474SOL     OW48428   3.899   8.764  11.035
15474SOL    HW148429  14.904   8.846  11.001
15474SOL    HW248430   3.931   8.786  11.123
15475SOL     OW48431  10.849   7.815   5.762
15475SOL    HW148432  -0.213   7.722   5.767
15475SOL    HW248433  10.915   7.820   5.692
15476SOL     OW48434   6.331   7.513  10.247
15476SOL    HW148435 -37.750  18.601  -0.820
15476SOL    HW248436 -15.730   7.487  10.337
15477SOL     OW48437   9.826   3.330   3.156
15477SOL    HW148438   9.894   3.391   3.187
15477SOL    HW248439   9.744   3.374   3.176
15478SOL     OW48440  11.013   6.325   4.691
15478SOL    HW148441  11.026  -4.645   4.627
15478SOL    HW248442  11.084   6.335   4.753
15479SOL     OW48443   6.067   1.940   7.870
15479SOL    HW148444   6.136   1.883  18.875
15479SOL    HW248445   6.002   1.879  29.984
15480SOL     OW48446   2.037   5.034   5.965
15480SOL    HW148447   2.127  -6.036   5.961
15480SOL    HW248448   2.023   5.058   6.056
15481SOL     OW48449  10.803   3.695   1.471
15481SOL    HW148450  10.830   3.656  12.427
15481SOL    HW248451  10.725   3.646   1.496
15482SOL     OW48452  10.881  10.317   2.558
15482SOL    HW148453  10.951  10.253   2.549
15482SOL    HW248454  -0.116  10.394  -8.443
15483SOL     OW48455   3.647   5.148  10.957
15483SOL    HW148456   3.587   5.202  11.008
15483SOL    HW248457   3.734   5.185  10.976
15484SOL     OW48458   0.924   0.493   6.860
15484SOL    HW148459   0.859   0.551 -15.178
15484SOL    HW248460   0.934  22.605   6.771
15485SOL     OW48461   2.106  10.725   3.868
15485SOL    HW148462   2.143  10.781  14.975
15485SOL    HW248463   2.165  10.734   3.793
15486SOL     OW48464   8.211   4.076   1.664
15486SOL    HW148465   8.142  15.165  12.748
15486SOL    HW248466   8.193   4.087   1.571
15487SOL     OW48467   9.138   8.642   6.180
15487SOL    HW148468   9.110   8.598   6.260
15487SOL    HW248469   9.060   8.687   6.149
15488SOL     OW48470   6.704   8.040   5.432
15488SOL    HW148471   6.749   7.967   5.474
15488SOL    HW248472 -15.379   8.016   5.339
15489SOL     OW48473   7.039   6.615  10.345
15489SOL    HW148474 -15.134  17.640  21.398
15489SOL    HW248475  -3.975   6.550  10.281
15490SOL     OW48476   2.229   8.186   6.467
15490SOL    HW148477   2.307   8.159   6.516
15490SOL    HW248478   2.190   8.103  17.478
15491SOL     OW48479   5.907   4.088   3.321
15491SOL    HW148480   5.925  15.035   3.304
15491SOL    HW248481  -5.084  -6.905  -7.786
15492SOL     OW48482  10.341   4.457  -0.086
15492SOL    HW148483  10.305   4.401  -0.155
15492SOL    HW248484  10.300  -6.615  22.074
15493SOL     OW48485   8.594   0.215   6.604
15493SOL    HW148486   8.658   0.214   6.676
15493SOL    HW248487   8.519   0.263   6.639
15494SOL     OW48488   5.290   8.737   2.885
15494SOL    HW148489   5.305   8.743   2.979
15494SOL    HW248490   5.371   8.767   2.845
15495SOL     OW48491   5.928   4.455   5.281
15495SOL    HW148492  -5.024   4.448  -5.798
15495SOL    HW248493   5.900   4.544   5.260
15496SOL     OW48494   5.741   8.742   2.630
15496SOL    HW148495   5.746   8.646   2.623
15496SOL    HW248496   5.809   8.774  13.610
15497SOL     OW48497   6.669   9.533   5.733
15497SOL    HW148498  -4.290   9.492 -16.314
15497SOL    HW248499  -4.343  31.699   5.704
15498SOL     OW48500   1.646   2.644   7.519
15498SOL    HW148501   1.610  -8.482   7.540
15498SOL    HW248502   1.640  -8.390   7.424
15499SOL     OW48503   2.097   0.385   9.453
15499SOL    HW148504   2.041  11.502   9.465
15499SOL    HW248505  13.144   0.376   9.358
15500SOL     OW48506   7.337   7.976   7.347
15500SOL    HW148507  18.320   7.916   7.300
15500SOL    HW248508  18.318   8.044  18.421
15501SOL     OW48509   8.930   4.905  -0.529
15501SOL    HW148510   8.870   4.830  10.520
15501SOL    HW248511   8.984   4.902  10.590
15502SOL     OW48512   8.017   3.340   2.046
15502SOL    HW148513  19.079  14.428  35.085
15502SOL    HW248514  41.119   3.408   2.111
15503SOL     OW48515   7.262   4.845   2.405
15503SOL    HW148516  -3.786   4.768   2.348
15503SOL    HW248517  18.391   4.840  35.558
15504SOL     OW48518   9.039   2.648   9.338
15504SOL    HW148519   9.056   2.557   9.316
15504SOL    HW248520  19.987   2.648   9.368
15505SOL     OW48521   2.747   5.244   1.394
15505SOL    HW148522   2.685   5.298   1.444
15505SOL    HW248523   2.693   5.178  12.391
15506SOL     OW48524   6.451   3.880   0.714
15506SOL    HW148525   6.414  -7.088   0.661
15506SOL    HW248526  -4.557   3.817   0.649
15507SOL     OW48527  -0.005  10.518   2.664
15507SOL    HW148528   0.087  10.493   2.679
15507SOL    HW248529   0.000  10.608   2.630
15508SOL     OW48530   9.032   7.570   7.229
15508SOL    HW148531 -13.101   7.613   7.162
15508SOL    HW248532   9.122 -36.562   7.207
15509SOL     OW48533   6.111   8.027   0.211
15509SOL    HW148534   6.103  -2.950   0.139
15509SOL    HW248535  17.140   8.080   0.290
15510SOL     OW48536   1.005   8.255  10.552
15510SOL    HW148537  11.997   8.294  10.626
15510SOL    HW248538   0.937  41.352  10.489
15511SOL     OW48539   2.034   7.433   0.022
15511SOL    HW148540   1.986 -25.603 -11.016
15511SOL    HW248541   2.125   7.459  11.049
15512SOL     OW48542   0.549   7.887   2.895
15512SOL    HW148543   0.496   7.812   2.921
15512SOL    HW248544   0.487  18.999  -8.148
15513SOL     OW48545   5.355   0.004   2.704
15513SOL    HW148546   5.263  -0.024   2.696
15513SOL    HW248547  -5.674   0.026   2.796
15514SOL     OW48548   3.957   8.374   4.543
15514SOL    HW148549   4.030   8.433   4.562
15514SOL    HW248550   3.880  19.472   4.538
15515SOL     OW48551   2.134   8.557   1.845
15515SOL    HW148552   2.207  -2.429   1.875
15515SOL    HW248553   2.062   8.579  23.983
15516SOL     OW48554   3.814   7.514  10.120
15516SOL    HW148555   3.791   7.513  10.027
15516SOL    HW248556   3.889   7.574  10.125
15517SOL     OW48557   6.714   9.473  12.106
15517SOL    HW148558  -4.257   9.449 -21.075
15517SOL    HW248559  39.875   9.473  -9.888
15518SOL     OW48560  11.298   6.432  11.349
15518SOL    HW148561   0.315   6.396   0.241
15518SOL    HW248562  11.307   6.527  11.340
15519SOL     OW48563   6.658   5.656   8.297
15519SOL    HW148564  -4.420   5.734  19.296
15519SOL    HW248565   6.752   5.677 -24.815
15520SOL     OW48566   8.624   6.873   2.939
15520SOL    HW148567   8.595   6.931  14.050
15520SOL    HW248568   8.701   6.828   2.974
15521SOL     OW48569   5.559   8.299   5.956
15521SOL    HW148570   5.570 -13.874   5.938
15521SOL    HW248571  -5.467 -24.811   6.050
15522SOL     OW48572   8.722   2.999   3.779
15522SOL    HW148573   8.806  14.063   3.742
15522SOL    HW248574  19.747   2.909 -18.328
15523SOL     OW48575   5.037   0.701   5.426
15523SOL    HW148576  16.021   0.677   5.501
15523SOL    HW248577   4.983   0.761   5.374
15524SOL     OW48578   3.932  11.012   7.235
15524SOL    HW148579   3.953  11.093   7.282
15524SOL    HW248580   3.910  10.949   7.304
15525SOL     OW48581   4.808   8.861   9.741
15525SOL    HW148582   4.801  19.906   9.646
15525SOL    HW248583   4.878   8.797  20.796
15526SOL     OW48584  12.422   8.456  -1.657
15526SOL    HW148585 -20.618 -13.575   9.357
15526SOL    HW248586   1.317   8.481  20.357
15527SOL     OW48587   0.758   8.322   3.387
15527SOL    HW148588   0.760 -13.813  14.350
15527SOL    HW248589   0.848 -13.755   3.419
15528SOL     OW48590   3.253   8.113  12.068
15528SOL    HW148591   3.334  -2.892  -9.974
15528SOL    HW248592   3.192  30.189  12.142
15529SOL     OW48593   7.440   5.106   4.250
15529SOL    HW148594 -14.582  -6.005   4.221
15529SOL    HW248595   7.384  27.203   4.174
15530SOL     OW48596   0.978   2.198   4.235
15530SOL    HW148597   0.974   2.260   4.308
15530SOL    HW248598   1.045   2.135  37.380
15531SOL     OW48599   3.945   6.889   2.318
15531SOL    HW148600  25.987   6.902   2.405
15531SOL    HW248601  26.033  18.016  13.321
15532SOL     OW48602   5.604   8.107   3.768
15532SOL    HW148603  -5.478  19.163   3.852
15532SOL    HW248604   5.533   8.084   3.708
15533SOL     OW48605  11.322   7.362   5.805
15533SOL    HW148606   0.271  -3.702   5.897
15533SOL    HW248607  11.395  -3.730   5.775
15534SOL     OW48608   5.435   7.568   8.488
15534SOL    HW148609  -5.526   7.621 -24.648
15534SOL    HW248610  16.403   7.632   8.491
15535SOL     OW48611   8.346   6.409   0.066
15535SOL    HW148612   8.391   6.493   0.074
15535SOL    HW248613   8.263  17.462  11.153
15536SOL     OW48614   3.279   8.634   2.558
15536SOL    HW148615   3.301  19.582  -8.498
15536SOL    HW248616   3.186   8.632   2.580
15537SOL     OW48617   2.776   1.682   3.862
15537SOL    HW148618   2.816   1.604   3.822
15537SOL    HW248619   2.690   1.653  -7.149
15538SOL     OW48620   9.076   1.717   6.656
15538SOL    HW148621   9.088  12.666   6.627
15538SOL    HW248622   9.121   1.769   6.590
15539SOL     OW48623   5.120   1.951   3.301
15539SOL    HW148624   5.055   1.906   3.247
15539SOL    HW248625   5.091   1.934   3.391
15540SOL     OW48626  12.165  10.980   3.565
15540SOL    HW148627  -9.863  10.930   3.629
15540SOL    HW248628 -31.946  10.968  14.523
15541SOL     OW48629   4.503   5.115  11.476
15541SOL    HW148630 -17.614   5.189  11.523
15541SOL    HW248631  15.475  -5.993 -10.601
15542SOL     OW48632   9.419   9.205   3.904
15542SOL    HW148633  -1.568   9.247   3.837
15542SOL    HW248634   9.477   9.199   3.980
15543SOL     OW48635   8.633  -0.614  -0.295
15543SOL    HW148636  30.690  -0.664  21.864
15543SOL    HW248637   8.550  10.430 -11.383
15544SOL     OW48638   9.606   1.406   7.285
15544SOL    HW148639   9.699   1.388  18.313
15544SOL    HW248640   9.583   1.357  29.443
15545SOL     OW48641   6.516  10.813   9.624
15545SOL    HW148642   6.461  10.762   9.682
15545SOL    HW248643   6.513  10.766   9.540
15546SOL     OW48644   7.733  10.005   6.132
15546SOL    HW148645   7.707   9.913   6.130
15546SOL    HW248646   7.675  10.048  39.189
15547SOL     OW48647   5.751   1.635   7.299
15547SOL    HW148648   5.826  12.649  18.285
15547SOL    HW248649 -16.354   1.720  18.303
15548SOL     OW48650   5.027   8.547   4.805
15548SOL    HW148651   5.072   8.628   4.830
15548SOL    HW248652  -5.973   8.480   4.860
15549SOL     OW48653   0.549   1.649   5.282
15549SOL    HW148654  11.661   1.589   5.266
15549SOL    HW248655  11.622  -9.328   5.346
15550SOL     OW48656   3.512   5.662   0.808
15550SOL    HW148657   3.474   5.614 -10.157
15550SOL    HW248658   3.439   5.674   0.747
15551SOL     OW48659   1.156   9.230   2.300
15551SOL    HW148660  -9.853   9.163  -8.801
15551SOL    HW248661   1.158   9.312   2.250
15552SOL     OW48662  10.357   1.938   8.962
15552SOL    HW148663  -0.661  -9.019   9.005
15552SOL    HW248664  -0.663   1.952  41.988
15553SOL     OW48665   9.046   5.568   7.223
15553SOL    HW148666   9.064   5.504   7.292
15553SOL    HW248667   9.072   5.652  29.339
15554SOL     OW48668   2.914   2.884   4.527
15554SOL    HW148669   2.864   2.863   4.449
15554SOL    HW248670  -8.157   2.971   4.553
15555SOL     OW48671   5.279  10.172   1.734
15555SOL    HW148672   5.247  10.250   1.690
15555SOL    HW248673  16.413  10.174  34.838
15556SOL     OW48674  10.313   9.361   5.085
15556SOL    HW148675  10.265   9.279   5.088
15556SOL    HW248676  -0.638   9.338  16.153
15557SOL     OW48677   0.753   8.688   2.806
15557SOL    HW148678   0.682   8.663  13.904
15557SOL    HW248679   0.777   8.606   2.761
15558SOL     OW48680  10.212   6.521  11.283
15558SOL    HW148681  10.244  -4.434 -21.804
15558SOL    HW248682  10.127   6.540  11.245
15559SOL     OW48683   6.060   7.765   4.666
15559SOL    HW148684   6.041   7.757   4.573
15559SOL    HW248685  -5.004   7.854   4.689
15560SOL     OW48686   4.032   8.844   6.475
15560SOL    HW148687  15.024  19.906   6.555
15560SOL    HW248688   4.048   8.750  -4.557
15561SOL     OW48689   4.394   9.739   5.378
15561SOL    HW148690   4.308   9.780   5.386
15561SOL    HW248691  -6.584   9.812   5.367
15562SOL     OW48692   2.945   8.931   6.313
15562SOL    HW148693   2.920  -2.180   6.255
15562SOL    HW248694   2.931 -24.108   6.262
15563SOL     OW48695   4.597   7.870   7.436
15563SOL    HW148696  -6.464  19.003  -3.609
15563SOL    HW248697   4.619  29.924  -3.694
15564SOL     OW48698  -0.551   7.044   5.226
15564SOL    HW148699  10.572  18.054   5.264
15564SOL    HW248700  -0.605  -3.975 -27.816
15565SOL     OW48701   4.260   7.095   6.197
15565SOL    HW148702   4.225  -3.870  -4.795
15565SOL    HW248703   4.186   7.061   6.147
15566SOL     OW48704   4.363   4.399   1.655
15566SOL    HW148705 -17.694   4.468   1.718
15566SOL    HW248706  37.527   4.322   1.688
15567SOL     OW48707   2.204   3.445  10.617
15567SOL    HW148708   2.263   3.494  10.560
15567SOL    HW248709   2.125  14.538  10.622
15568SOL     OW48710  10.604   8.766   6.747
15568SOL    HW148711  10.629   8.834   6.685
15568SOL    HW248712  10.648   8.790   6.829
15569SOL     OW48713   2.721  10.177   0.191
15569SOL    HW148714   2.633  10.202  22.244
15569SOL    HW248715   2.708  10.112  22.339
15570SOL     OW48716   6.028   6.423   5.507
15570SOL    HW148717   6.105 -59.866   5.532
15570SOL    HW248718   6.033  -4.611  16.451
15571SOL     OW48719   4.480   0.868   7.440
15571SOL    HW148720  -6.648   0.892   7.468
15571SOL    HW248721 -17.589   0.778   7.469
15572SOL     OW48722  10.523   5.722   2.436
15572SOL    HW148723  -0.515   5.806  -8.648
15572SOL    HW248724  10.607   5.718  -8.557
15573SOL     OW48725   8.044  10.342   6.036
15573SOL    HW148726   7.982  10.403   6.076
15573SOL    HW248727   8.068  10.384   5.953
15574SOL     OW48728   1.009   1.872   2.804
15574SOL    HW148729   0.927  -9.178   2.852
15574SOL    HW248730   1.077   1.844   2.865
15575SOL     OW48731   1.291   6.562   6.008
15575SOL    HW148732  12.277  17.567   5.936
15575SOL    HW248733   1.243  17.678  28.118
15576SOL     OW48734   7.786  10.927  10.398
15576SOL    HW148735   7.724  10.998  10.383
15576SOL    HW248736   7.760  10.859  21.376
15577SOL     OW48737  10.163  -0.738   0.492
15577SOL    HW148738  10.094  21.367   0.552
15577SOL    HW248739  10.170  -0.666  22.508
15578SOL     OW48740   6.935   0.582   5.199
15578SOL    HW148741  18.001   0.551   5.112
15578SOL    HW248742   6.880   0.511  -5.806
15579SOL     OW48743   3.132  10.574   9.379
15579SOL    HW148744   3.118  10.511  20.347
15579SOL    HW248745  -7.898  10.658  20.375
15580SOL     OW48746   5.445   2.486   5.768
15580SOL    HW148747   5.531  13.563   5.780
15580SOL    HW248748   5.458   2.391   5.778
15581SOL     OW48749   4.208   8.829   9.767
15581SOL    HW148750  -6.818 -13.260  -1.178
15581SOL    HW248751   4.237  -2.294   9.731
15582SOL     OW48752   5.393   6.485   9.128
15582SOL    HW148753  16.481 -15.672   9.158
15582SOL    HW248754   5.301  -4.581  42.249
15583SOL     OW48755   5.678   2.925   9.882
15583SOL    HW148756   5.765  13.953  -1.196
15583SOL    HW248757   5.691   2.912  21.015
15584SOL     OW48758   6.657   9.303   9.083
15584SOL    HW148759 -15.338   9.349  -1.952
15584SOL    HW248760   6.609   9.334  20.200
15585SOL     OW48761   9.218   3.557   2.232
15585SOL    HW148762   9.239  25.728  46.405
15585SOL    HW248763   9.278   3.509   2.289
15586SOL     OW48764  -0.268  11.061   8.518
15586SOL    HW148765  10.694  11.025   8.474
15586SOL    HW248766  -0.255 -33.153   8.595
15587SOL     OW48767  -1.580   0.619   2.867
15587SOL    HW148768  42.513   0.671   2.914
15587SOL    HW248769  -1.579   0.655  -8.262
15588SOL     OW48770   9.057   8.383   4.443
15588SOL    HW148771   9.094   8.318   4.383
15588SOL    HW248772 -13.094  19.462   4.394
15589SOL     OW48773   3.325  10.154   8.294
15589SOL    HW148774   3.379 -11.891   8.223
15589SOL    HW248775   3.365  10.070  -2.723
15590SOL     OW48776  12.179   7.313   7.227
15590SOL    HW148777 -20.899   7.273   7.304
15590SOL    HW248778  12.104   7.361  -3.778
15591SOL     OW48779   1.027   4.926   0.474
15591SOL    HW148780  12.044   4.833  22.550
15591SOL    HW248781   1.123 -28.191  33.595
15592SOL     OW48782   2.998  11.188   3.162
15592SOL    HW148783  -8.091   0.171  14.123
15592SOL    HW248784   2.933  11.186   3.232
15593SOL     OW48785   5.747   7.581   1.152
15593SOL    HW148786   5.709   7.610   1.236
15593SOL    HW248787   5.744  18.699   1.097
15594SOL     OW48788   9.750   5.512   7.900
15594SOL    HW148789   9.693  -5.486   7.965
15594SOL    HW248790   9.800  16.488 -14.129
15595SOL     OW48791   3.449   6.715   0.693
15595SOL    HW148792   3.360  28.794   0.657
15595SOL    HW248793   3.441   6.666   0.775
15596SOL     OW48794   5.069  11.039   5.760
15596SOL    HW148795   5.055  11.100   5.688
15596SOL    HW248796   5.013 -11.115  16.778
15597SOL     OW48797   6.602   1.103   7.921
15597SOL    HW148798   6.647   1.158  19.025
15597SOL    HW248799  17.561  45.235  30.044
15598SOL     OW48800  10.458   8.681   8.326
15598SOL    HW148801  -0.519  19.681   8.387
15598SOL    HW248802  -0.527  19.752   8.253
15599SOL     OW48803   6.792   5.223   5.345
15599SOL    HW148804 -15.318 -16.773   5.380
15599SOL    HW248805   6.888 -16.850   5.351
15600SOL     OW48806   0.623   7.819   0.960
15600SOL    HW148807   0.644 -25.207  11.992
15600SOL    HW248808  11.567  -3.222   0.971
15601SOL     OW48809   0.899   1.096   2.614
15601SOL    HW148810   0.938 -21.067  -8.453
15601SOL    HW248811   0.809  45.251   2.582
15602SOL     OW48812   5.087   8.013   1.850
15602SOL    HW148813   5.118   7.938   1.799
15602SOL    HW248814  -6.032   8.041  12.844
15603SOL     OW48815  -0.959   2.721   6.248
15603SOL    HW148816  -0.985   2.669   6.323
15603SOL    HW248817  21.174   2.662   6.195
15604SOL     OW48818   9.846   7.449   2.356
15604SOL    HW148819   9.819   7.442  -8.775
15604SOL    HW248820  20.856   7.536   2.383
15605SOL     OW48821  -1.185   1.514   5.936
15605SOL    HW148822   9.878   1.493   6.026
15605SOL    HW248823  20.917   1.607  -5.113
15606SOL     OW48824   4.703   1.031   3.073
15606SOL    HW148825 -17.412   1.048  25.239
15606SOL    HW248826   4.682   0.938   3.057
15607SOL     OW48827   2.674   2.926   5.874
15607SOL    HW148828   2.760   2.957   5.845
15607SOL    HW248829  13.656   2.941  -5.240
15608SOL     OW48830  10.232  11.582   8.592
15608SOL    HW148831  10.203   0.628   8.624
15608SOL    HW248832  10.234 -10.552  30.750
15609SOL     OW48833   4.272  11.070   6.607
15609SOL    HW148834  15.287   0.006   6.517
15609SOL    HW248835   4.240  11.160 -15.463
15610SOL     OW48836   0.816   2.489   7.169
15610SOL    HW148837   0.905   2.521   7.153
15610SOL    HW248838   0.815   2.468  18.302
15611SOL     OW48839   8.768   7.074   5.123
15611SOL    HW148840   8.686   7.084   5.075
15611SOL    HW248841   8.753  18.041   5.183
15612SOL     OW48842   5.209   4.798   8.536
15612SOL    HW148843   5.298 -28.342  -2.475
15612SOL    HW248844  16.261   4.868   8.471
15613SOL     OW48845   9.821   9.031  -1.772
15613SOL    HW148846 -12.229   9.097   9.331
15613SOL    HW248847   9.859   8.949  31.378
15614SOL     OW48848   7.431   9.784   0.468
15614SOL    HW148849   7.452   9.787   0.562
15614SOL    HW248850  18.414   9.860   0.454
15615SOL     OW48851   4.231   2.928  10.295
15615SOL    HW148852   4.279   2.879  -0.678
15615SOL    HW248853   4.150   2.955  32.417
15616SOL     OW48854   7.374   8.526   8.902
15616SOL    HW148855  -3.730   8.596   8.915
15616SOL    HW248856   7.335  19.489   8.945
15617SOL     OW48857   9.084   3.723   5.875
15617SOL    HW148858  -1.880   3.722   5.934
15617SOL    HW248859   9.116   3.768 -16.282
15618SOL     OW48860   4.985  10.364   9.996
15618SOL    HW148861   4.970  -0.622  20.958
15618SOL    HW248862   5.016  10.425  10.063
15619SOL     OW48863   4.987   0.066   6.107
15619SOL    HW148864   5.017  22.111 -26.928
15619SOL    HW248865   5.016  11.040 -38.115
15620SOL     OW48866  12.160   6.339   7.346
15620SOL    HW148867   1.111   6.374   7.435
15620SOL    HW248868   1.095   6.247  -3.686
15621SOL     OW48869  -0.004  10.244   3.196
15621SOL    HW148870  11.094  -0.780   3.269
15621SOL    HW248871   0.032  -0.874   3.153
15622SOL     OW48872   5.543   5.023   8.246
15622SOL    HW148873   5.605   5.025   8.174
15622SOL    HW248874   5.457   5.024   8.204
15623SOL     OW48875   6.804   3.004   5.922
15623SOL    HW148876  -4.306   2.939   5.919
15623SOL    HW248877   6.758   3.088   5.925
15624SOL     OW48878  10.835   2.522   8.510
15624SOL    HW148879  10.761  -8.535   8.568
15624SOL    HW248880  10.905   2.466  19.584
15625SOL     OW48881  10.491   5.370  11.519
15625SOL    HW148882  10.530   5.422   0.550
15625SOL    HW248883  10.404   5.347   0.512
15626SOL     OW48884   7.223   2.506   0.698
15626SOL    HW148885   7.242   2.597  11.718
15626SOL    HW248886   7.184   2.472   0.617
15627SOL     OW48887   3.721   9.305   0.101
15627SOL    HW148888   3.655  20.385   0.156
15627SOL    HW248889   3.777   9.378  22.151
15628SOL     OW48890   4.406   1.745   2.104
15628SOL    HW148891  15.364   1.712   2.068
15628SOL    HW248892   4.454   1.666  -8.908
15629SOL     OW48893   4.640   4.949   8.775
15629SOL    HW148894 -17.424  -6.079  19.721
15629SOL    HW248895   4.550   4.918  19.820
15630SOL     OW48896   5.730   3.500   8.150
15630SOL    HW148897   5.748  14.529   8.243
15630SOL    HW248898   5.657  14.601  19.185
15631SOL     OW48899  10.405   2.402   1.013
15631SOL    HW148900  10.344  -8.702   0.979
15631SOL    HW248901  21.521   2.351  12.081
15632SOL     OW48902   3.992   0.690   3.341
15632SOL    HW148903   4.037   0.731   3.268
15632SOL    HW248904   3.936  11.664   3.301
15633SOL     OW48905   5.620   9.544   2.294
15633SOL    HW148906   5.696  -1.456   2.250
15633SOL    HW248907   5.601  31.682   2.366
15634SOL     OW48908   3.288   5.498   9.387
15634SOL    HW148909   3.281   5.546  31.548
15634SOL    HW248910  14.375  27.635   9.328
15635SOL     OW48911   4.126   7.947   9.208
15635SOL    HW148912   4.119  18.936   9.289
15635SOL    HW248913  -6.841  52.166  -1.815
15636SOL     OW48914  11.347   7.435   8.039
15636SOL    HW148915 -10.661   7.498   8.026
15636SOL    HW248916  11.315   7.453   8.127
15637SOL     OW48917   1.098   3.156   7.160
15637SOL    HW148918   1.145 -29.885  -3.847
15637SOL    HW248919   1.008   3.187   7.145
15638SOL     OW48920   2.540   8.714   0.443
15638SOL    HW148921  -8.475   8.703   0.535
15638SOL    HW248922  13.620   8.797   0.417
15639SOL     OW48923   9.621   8.895  10.815
15639SOL    HW148924   9.602   8.977  10.768
15639SOL    HW248925   9.617  -2.120  10.907
15640SOL     OW48926   4.810   6.315   9.928
15640SOL    HW148927   4.811  28.340  -1.032
15640SOL    HW248928  15.767   6.293 -12.194
15641SOL     OW48929   1.122   8.919   9.100
15641SOL    HW148930   1.031   8.949   9.110
15641SOL    HW248931  12.176   8.919  -2.034
15642SOL     OW48932   9.471   2.376  10.026
15642SOL    HW148933   9.466 -19.770   9.958
15642SOL    HW248934   9.564   2.390  10.040
15643SOL     OW48935   2.644   8.054   3.389
15643SOL    HW148936 -19.493  41.125   3.449
15643SOL    HW248937  -8.368  19.027   3.325
15644SOL     OW48938  10.182   8.428   5.696
15644SOL    HW148939  10.130   8.349   5.684
15644SOL    HW248940  21.310 -24.722   5.714
15645SOL     OW48941   9.161  10.510   6.906
15645SOL    HW148942   9.091  10.528 -15.236
15645SOL    HW248943  -1.801  10.496   6.853
15646SOL     OW48944   3.261   4.103   0.884
15646SOL    HW148945   3.224  15.062   0.848
15646SOL    HW248946   3.221   4.173   0.833
15647SOL     OW48947   3.922   4.162   3.799
15647SOL    HW148948   3.841   4.169   3.749
15647SOL    HW248949   3.992   4.181 -29.383
15648SOL     OW48950   7.548   9.127   2.460
15648SOL    HW148951   7.620   9.146  13.560
15648SOL    HW248952  -3.487   9.197   2.395
15649SOL     OW48953   8.218   2.623   0.757
15649SOL    HW148954  30.381   2.595   0.721
15649SOL    HW248955   8.154  35.681   0.719
15650SOL     OW48956  11.574   2.837   8.808
15650SOL    HW148957   0.547   2.922   8.849
15650SOL    HW248958 -21.634   2.840   8.773
15651SOL     OW48959   4.399   5.107   8.486
15651SOL    HW148960   4.308   5.081   8.499
15651SOL    HW248961   4.408  -5.853 -13.541
15652SOL     OW48962   7.541   1.815   1.417
15652SOL    HW148963  18.674   1.800   1.432
15652SOL    HW248964  51.660   1.729   1.428
15653SOL     OW48965  10.414   6.123   0.682
15653SOL    HW148966  10.385   6.053   0.624
15653SOL    HW248967  10.383   6.096   0.769
15654SOL     OW48968   3.011   8.094   2.138
15654SOL    HW148969   2.956   8.069  -8.975
15654SOL    HW248970  13.994   8.150 -19.887
15655SOL     OW48971   5.267   9.864   2.363
15655SOL    HW148972   5.302   9.948  -8.708
15655SOL    HW248973  16.340   9.855   2.452
15656SOL     OW48974   4.609   9.036   0.635
15656SOL    HW148975 -17.476   8.952  22.669
15656SOL    HW248976   4.524  -1.994  22.758
15657SOL     OW48977   1.853   4.421  10.718
15657SOL    HW148978   1.874   4.509  10.750
15657SOL    HW248979   1.938   4.377  10.714
15658SOL     OW48980   5.150   0.178   1.578
15658SOL    HW148981   5.084   0.247  12.604
15658SOL    HW248982  16.150   0.121   1.644
15659SOL     OW48983   6.133   6.537   3.952
15659SOL    HW148984   6.164  28.527  15.007
15659SOL    HW248985   6.213   6.588   3.937
15660SOL     OW48986  10.263   9.924   1.676
15660SOL    HW148987  10.193 -12.198   1.627
15660SOL    HW248988  10.233  10.014   1.687
15661SOL     OW48989   3.042   2.913   1.380
15661SOL    HW148990   3.130   2.909  23.497
15661SOL    HW248991   3.050  14.013   1.307
15662SOL     OW48992   8.647   9.634  11.586
15662SOL    HW148993   8.659   9.627 -10.588
15662SOL    HW248994   8.735   9.649  11.621
15663SOL     OW48995   6.444  10.279   0.787
15663SOL    HW148996   6.356  10.243   0.774
15663SOL    HW248997   6.451  10.292   0.882
15664SOL     OW48998   3.640   7.041   4.270
15664SOL    HW148999   3.589 -48.106  -6.833
15664SOL    HW249000   3.635   6.951   4.240
15665SOL     OW49001   4.755  -0.511   7.017
15665SOL    HW149002  37.899  -0.579   7.079
15665SOL    HW249003  -6.256  21.535   6.932
15666SOL     OW49004   9.345   2.373   4.467
15666SOL    HW149005 -12.745  35.397   4.469
15666SOL    HW249006   9.403  35.508   4.392
15667SOL     OW49007   3.016   6.766   8.732
15667SOL    HW149008   3.023  -4.242   8.822
15667SOL    HW249009   2.932   6.718   8.730
15668SOL     OW49010   0.756   4.837   2.859
15668SOL    HW149011   0.851   4.828   2.864
15668SOL    HW249012  22.821   4.926  -8.214
15669SOL     OW49013   3.704   0.492   9.292
15669SOL    HW149014   3.685   0.432   9.364
15669SOL    HW249015   3.621   0.535   9.273
15670SOL     OW49016   5.105   7.229   8.189
15670SOL    HW149017   5.166 -14.921   8.169
15670SOL    HW249018   5.097   7.227   8.285
15671SOL     OW49019   0.020   1.198   0.672
15671SOL    HW149020  -0.049   1.143   0.636
15671SOL    HW249021   0.080  -9.826   0.599
15672SOL     OW49022  11.614  11.485   9.523
15672SOL    HW149023   0.631 -32.677   9.447
15672SOL    HW249024 -10.406 -21.627   9.598
15673SOL     OW49025   6.514  10.162  10.029
15673SOL    HW149026   6.560 -11.870  -0.940
15673SOL    HW249027   6.444 -11.857  10.003
15674SOL     OW49028   5.488   7.761   7.800
15674SOL    HW149029   5.447   7.678   7.826
15674SOL    HW249030 -27.622   7.754   7.705
15675SOL     OW49031   2.431   5.744   6.984
15675SOL    HW149032  13.400   5.767  29.123
15675SOL    HW249033   2.510   5.780  29.103
15676SOL     OW49034   1.198   1.819   3.055
15676SOL    HW149035   1.252  -9.164   3.000
15676SOL    HW249036   1.261   1.759   3.096
15677SOL     OW49037   7.799   6.377   8.127
15677SOL    HW149038   7.813  17.491   8.067
15677SOL    HW249039   7.809  -4.740   8.071
15678SOL     OW49040   4.687   6.021   1.091
15678SOL    HW149041   4.666   5.960 -10.020
15678SOL    HW249042  37.850 -27.025   1.048
15679SOL     OW49043   6.538   8.633   8.007
15679SOL    HW149044   6.469  30.776   8.026
15679SOL    HW249045   6.559  19.635   8.092
15680SOL     OW49046   7.861   5.272  10.031
15680SOL    HW149047   7.774 -16.843  10.049
15680SOL    HW249048   7.907 -16.877   9.984
15681SOL     OW49049  10.815   6.034   9.137
15681SOL    HW149050  10.838  -4.982 -12.853
15681SOL    HW249051  10.898   6.005   9.098
15682SOL     OW49052   2.512   5.320  10.497
15682SOL    HW149053   2.587   5.266  -0.569
15682SOL    HW249054   2.515   5.319  10.593
15683SOL     OW49055   3.070   4.407   3.647
15683SOL    HW149056  25.058   4.380  36.761
15683SOL    HW249057  14.108  26.581   3.632
15684SOL     OW49058   9.723   1.964   1.652
15684SOL    HW149059   9.721   1.890   1.713
15684SOL    HW249060   9.744   1.924   1.567
15685SOL     OW49061   1.997   0.774   7.625
15685SOL    HW149062   1.911   0.774   7.667
15685SOL    HW249063   2.059   0.770   7.698
15686SOL     OW49064   7.655   0.100   3.800
15686SOL    HW149065  -3.371   0.008 -18.304
15686SOL    HW249066  -3.323   0.115  -7.167
15687SOL     OW49067   4.496   3.609   2.820
15687SOL    HW149068   4.554   3.539 -19.289
15687SOL    HW249069   4.487   3.667  -8.294
15688SOL     OW49070   5.492   0.816  10.505
15688SOL    HW149071   5.583  22.910 -22.640
15688SOL    HW249072   5.498  33.864  10.570
15689SOL     OW49073   3.757   5.515   2.538
15689SOL    HW149074   3.746  49.665  13.673
15689SOL    HW249075   3.693   5.455   2.501
15690SOL     OW49076   7.631   1.419   1.811
15690SOL    HW149077   7.666   1.345   1.762
15690SOL    HW249078  40.751   1.390  -9.137
15691SOL     OW49079   1.928   5.740   7.536
15691SOL    HW149080   1.859   5.737   7.469
15691SOL    HW249081  -9.045   5.679   7.505
15692SOL     OW49082   9.756   7.936   1.896
15692SOL    HW149083  20.817   7.897   1.811
15692SOL    HW249084   9.775  18.907  12.999
15693SOL     OW49085   4.643   6.877  -1.399
15693SOL    HW149086  -6.392   6.831  -1.483
15693SOL    HW249087  26.753   6.813  31.784
15694SOL     OW49088  10.707   0.379   0.686
15694SOL    HW149089  10.728   0.286   0.695
15694SOL    HW249090  10.776   0.424   0.734
15695SOL     OW49091   1.357  11.898   5.602
15695SOL    HW149092   1.446   0.834   5.624
15695SOL    HW249093  23.436   0.954  27.683
15696SOL     OW49094  10.215   9.846   4.963
15696SOL    HW149095  10.271   9.770  16.020
15696SOL    HW249096  10.134   9.808 -50.269
15697SOL     OW49097   6.360   2.302   8.692
15697SOL    HW149098   6.310  24.460   8.712
15697SOL    HW249099   6.294   2.240   8.659
15698SOL     OW49100   2.061   4.279   3.985
15698SOL    HW149101   2.153   4.261   3.965
15698SOL    HW249102   2.013   4.249   3.909
15699SOL     OW49103   5.258  10.273   6.894
15699SOL    HW149104   5.237  10.182  -4.168
15699SOL    HW249105   5.193  10.325  -4.193
15700SOL     OW49106   5.572   2.049  10.985
15700SOL    HW149107  -5.438   2.136 -22.160
15700SOL    HW249108   5.566   2.000 -11.177
15701SOL     OW49109  11.450   6.650   5.336
15701SOL    HW149110  11.420   6.734   5.303
15701SOL    HW249111 -21.749   6.602   5.358
15702SOL     OW49112  10.595   3.927  10.437
15702SOL    HW149113  10.644   3.911  21.557
15702SOL    HW249114 -11.418   3.962  -0.663
15703SOL     OW49115   9.786  -0.380   1.578
15703SOL    HW149116   9.806  10.597   1.647
15703SOL    HW249117   9.752  -0.434   1.507
15704SOL     OW49118  10.623   7.154   0.020
15704SOL    HW149119  10.583   7.121  11.140
15704SOL    HW249120  10.552  -3.882  -0.043
15705SOL     OW49121   8.889   4.470   7.346
15705SOL    HW149122   8.960   4.531   7.327
15705SOL    HW249123   8.842  15.501  -3.777
15706SOL     OW49124   1.662   9.095   6.447
15706SOL    HW149125   1.737  20.151  17.544
15706SOL    HW249126 -20.454   9.013   6.479
15707SOL     OW49127   9.042   1.630  11.601
15707SOL    HW149128   8.965  12.614   0.551
15707SOL    HW249129   9.071   1.647  11.512
15708SOL     OW49130   2.637   3.508   7.361
15708SOL    HW149131  13.596   3.521   7.411
15708SOL    HW249132   2.665   3.419   7.383
15709SOL     OW49133   0.538   6.447  10.775
15709SOL    HW149134  33.635   6.406  10.859
15709SOL    HW249135  22.712   6.463  -0.259
15710SOL     OW49136   2.332   0.781   7.737
15710SOL    HW149137   2.380   0.699   7.725
15710SOL    HW249138 -30.771   0.805   7.828
15711SOL     OW49139   5.495  10.711   4.569
15711SOL    HW149140 -16.625  -0.243  26.632
15711SOL    HW249141   5.458 -11.425   4.502
15712SOL     OW49142   0.468   8.031   5.373
15712SOL    HW149143  11.575   8.026  -5.599
15712SOL    HW249144   0.513   8.009   5.292
15713SOL     OW49145   8.672   7.272   1.061
15713SOL    HW149146   8.658  29.444   1.040
15713SOL    HW249147   8.722  -3.766   1.143
15714SOL     OW49148   1.677   3.626   9.145
15714SOL    HW149149   1.584  14.668  -1.918
15714SOL    HW249150   1.703 -18.361   9.151
15715SOL     OW49151   8.954   3.706   5.117
15715SOL    HW149152   8.943   3.715   5.022
15715SOL    HW249153   9.046   3.683   5.128
15716SOL     OW49154   5.909  11.059   1.751
15716SOL    HW149155   5.973  11.105   1.698
15716SOL    HW249156   5.858  -0.033   1.689
15717SOL     OW49157  10.586   4.740   1.528
15717SOL    HW149158  10.494   4.755   1.504
15717SOL    HW249159  10.620   4.827   1.548
15718SOL     OW49160   0.890   5.772  10.335
15718SOL    HW149161   0.942  38.929  10.405
15718SOL    HW249162   0.924   5.811  10.255
15719SOL     OW49163   6.469   7.926   7.291
15719SOL    HW149164   6.377   7.943   7.272
15719SOL    HW249165 -26.633   7.972   7.373
15720SOL     OW49166   9.027   0.329   3.921
15720SOL    HW149167  -2.065   0.370   3.990
15720SOL    HW249168   9.095  11.320   3.969
15721SOL     OW49169   2.843   1.480   8.534
15721SOL    HW149170   2.814   1.439   8.452
15721SOL    HW249171  13.802  12.549   8.576
15722SOL     OW49172   8.683  10.301   6.081
15722SOL    HW149173   8.727  10.218  -4.940
15722SOL    HW249174   8.597  10.293  17.162
15723SOL     OW49175   1.657   6.942   8.044
15723SOL    HW149176  12.760   6.905   8.105
15723SOL    HW249177  23.738   6.882   7.969
15724SOL     OW49178   0.903   1.924   3.673
15724SOL    HW149179   0.866   1.919 -18.494
15724SOL    HW249180   0.983   1.975   3.663
15725SOL     OW49181  10.160  -0.593   3.982
15725SOL    HW149182  10.170  -0.584   4.077
15725SOL    HW249183  10.233  32.470   3.955
15726SOL     OW49184   7.703   3.210   0.064
15726SOL    HW149185  18.655  14.262  22.180
15726SOL    HW249186   7.758  14.229  11.180
15727SOL     OW49187   1.083  10.496   1.603
15727SOL    HW149188  -9.890  -0.608   1.626
15727SOL    HW249189   1.133  10.575   1.579
15728SOL     OW49190   2.324   5.407   1.694
15728SOL    HW149191   2.232  27.461  -9.332
15728SOL    HW249192  -8.686   5.351  23.701
15729SOL     OW49193  10.884  -1.174   2.760
15729SOL    HW149194  10.977   9.889   2.752
15729SOL    HW249195  10.883   9.770   2.756
15730SOL     OW49196   6.698   4.220   3.100
15730SOL    HW149197   6.672   4.144  14.193
15730SOL    HW249198   6.647   4.293  25.215
15731SOL     OW49199   7.411   8.462   6.854
15731SOL    HW149200   7.343   8.509   6.807
15731SOL    HW249201   7.423   8.512   6.935
15732SOL     OW49202   8.739   3.401  11.366
15732SOL    HW149203  19.749   3.335 -10.775
15732SOL    HW249204   8.821  25.513  11.329
15733SOL     OW49205   6.631   4.714   0.649
15733SOL    HW149206  17.719   4.723   0.731
15733SOL    HW249207  39.671   4.767  11.700
15734SOL     OW49208   1.828   5.131   4.243
15734SOL    HW149209 -20.215   5.103 -17.752
15734SOL    HW249210   1.881   5.086   4.178
15735SOL     OW49211   9.941  10.179  11.161
15735SOL    HW149212  10.012  -0.797   0.111
15735SOL    HW249213   9.870  10.213  11.106
15736SOL     OW49214   4.911   1.807   8.617
15736SOL    HW149215  15.883   1.874 -13.450
15736SOL    HW249216  -6.048  12.898   8.602
15737SOL     OW49217   5.172   0.724   8.118
15737SOL    HW149218  49.253 -10.260  -2.908
15737SOL    HW249219  49.405  11.822   8.133
15738SOL     OW49220   0.653   6.965   3.591
15738SOL    HW149221 -10.402  -3.984  25.646
15738SOL    HW249222  22.781 -15.152   3.518
15739SOL     OW49223   4.906   7.088   4.907
15739SOL    HW149224  -6.092   7.078   4.992
15739SOL    HW249225   4.973   7.130  15.892
15740SOL     OW49226   4.728   2.199   5.150
15740SOL    HW149227   4.741   2.117  16.239
15740SOL    HW249228   4.773   2.184   5.067
15741SOL     OW49229   4.446   4.845   6.022
15741SOL    HW149230   4.410   4.867   5.936
15741SOL    HW249231  -6.572 -17.327  28.094
15742SOL     OW49232   9.763   2.526   9.442
15742SOL    HW149233   9.750   2.613   9.480
15742SOL    HW249234   9.709   2.527  20.403
15743SOL     OW49235   2.581   8.705   4.847
15743SOL    HW149236  13.570   8.659   4.914
15743SOL    HW249237  35.636  -2.310  -6.259
15744SOL     OW49238   1.274   6.109   9.397
15744SOL    HW149239   1.314  17.098   9.467
15744SOL    HW249240   1.271   6.199   9.432
15745SOL     OW49241   2.803   8.772   2.384
15745SOL    HW149242   2.726  19.855   2.347
15745SOL    HW249243   2.815  30.894  24.548
15746SOL     OW49244   3.800   3.383   8.629
15746SOL    HW149245   3.887 -18.730   8.651
15746SOL    HW249246   3.802  -7.645 -13.545
15747SOL     OW49247   8.711   9.219   0.436
15747SOL    HW149248   8.666   9.263  11.547
15747SOL    HW249249   8.641   9.179  22.463
15748SOL     OW49250   6.181   2.140   8.591
15748SOL    HW149251   6.190   2.093   8.509
15748SOL    HW249252   6.089   2.166  30.674
15749SOL     OW49253   4.957   2.077   1.876
15749SOL    HW149254 -28.196   2.102  -9.250
15749SOL    HW249255   5.029   2.138  -9.148
15750SOL     OW49256   8.263   8.182   7.915
15750SOL    HW149257  -2.719   8.146   7.983
15750SOL    HW249258  -2.718   8.202   7.842
15751SOL     OW49259   2.619   1.345  10.797
15751SOL    HW149260   2.612  12.291  10.813
15751SOL    HW249261   2.528  12.414  10.784
15752SOL     OW49262   4.243   1.290  -0.654
15752SOL    HW149263  26.305 -20.771  10.294
15752SOL    HW249264   4.259   1.195  21.429
15753SOL     OW49265   9.917   9.387   8.837
15753SOL    HW149266   9.969   9.359  19.801
15753SOL    HW249267   9.850   9.319   8.846
15754SOL     OW49268   1.138   8.567   8.073
15754SOL    HW149269   1.199   8.551   8.145
15754SOL    HW249270   1.059   8.518   8.097
15755SOL     OW49271   4.457   5.544   6.077
15755SOL    HW149272 -17.613   5.605  28.083
15755SOL    HW249273  -6.592   5.601   6.154
15756SOL     OW49274   1.882   0.913   2.041
15756SOL    HW149275   1.892   0.825   2.077
15756SOL    HW249276   1.940 -10.072   2.094
15757SOL     OW49277   3.548   7.288   8.444
15757SOL    HW149278   3.631   7.270  -2.640
15757SOL    HW249279  25.653 -14.768   8.534
15758SOL     OW49280   7.464   3.664   1.340
15758SOL    HW149281 -25.608   3.628  12.304
15758SOL    HW249282   7.422   3.589   1.381
15759SOL     OW49283   9.200   4.806   5.593
15759SOL    HW149284   9.272   4.859   5.562
15759SOL    HW249285   9.219   4.790   5.685
15760SOL     OW49286   4.420   7.682   6.791
15760SOL    HW149287  -6.683  -3.347 -37.438
15760SOL    HW249288   4.374  -3.328 -15.209
15761SOL     OW49289   4.293   6.336   4.722
15761SOL    HW149290   4.352   6.261   4.714
15761SOL    HW249291   4.343   6.410   4.687
15762SOL     OW49292   0.083  10.193   2.404
15762SOL    HW149293   0.027  10.240   2.343
15762SOL    HW249294   0.138 -11.942   2.348
15763SOL     OW49295   6.351   2.280   2.129
15763SOL    HW149296  -4.670  -8.824  13.100
15763SOL    HW249297   6.297   2.232   2.192
15764SOL     OW49298   3.595   3.129   0.294
15764SOL    HW149299   3.551  -7.935   0.375
15764SOL    HW249300   3.649  -7.835   0.318
15765SOL     OW49301   5.505   4.715   6.224
15765SOL    HW149302   5.518  26.847   6.144
15765SOL    HW249303   5.593   4.699  17.297
15766SOL     OW49304   5.830  12.830   4.736
15766SOL    HW149305   5.791 -20.360   4.785
15766SOL    HW249306   5.756   1.843   4.705
15767SOL     OW49307   0.545  10.967   1.317
15767SOL    HW149308   0.622 -11.074 -20.720
15767SOL    HW249309   0.528  11.024   1.242
15768SOL     OW49310   7.870   7.083   3.088
15768SOL    HW149311   7.794   7.042   3.128
15768SOL    HW249312   7.836   7.127   3.010
15769SOL     OW49313   8.342   9.485   5.726
15769SOL    HW149314   8.291   9.414  16.805
15769SOL    HW249315   8.276  31.625   5.692
15770SOL     OW49316   2.081   2.079   2.778
15770SOL    HW149317   2.055  -8.908   2.854
15770SOL    HW249318  -9.033   2.086  13.758
15771SOL     OW49319   4.987   9.002   3.577
15771SOL    HW149320   4.990 -13.077  25.752
15771SOL    HW249321   4.982   8.909   3.553
15772SOL     OW49322   8.674   5.423   5.628
15772SOL    HW149323   8.612   5.461  16.605
15772SOL    HW249324   8.712   5.348 -16.497
15773SOL     OW49325   5.219   3.824  10.022
15773SOL    HW149326  16.276  25.832   9.961
15773SOL    HW249327  16.250   3.782  21.146
15774SOL     OW49328  11.220   5.313   4.308
15774SOL    HW149329  11.199   5.397 -17.811
15774SOL    HW249330   0.188   5.332   4.402
15775SOL     OW49331   4.027  10.898   4.849
15775SOL    HW149332   4.109  -0.100  26.952
15775SOL    HW249333   3.963  10.969   4.847
15776SOL     OW49334   8.863  -0.805  10.464
15776SOL    HW149335 -13.185  21.198  -0.625
15776SOL    HW249336 -13.304  -0.788 -11.649
15777SOL     OW49337   9.713   2.852   5.871
15777SOL    HW149338  -1.264   2.898   5.927
15777SOL    HW249339   9.643  -8.215  -5.109
15778SOL     OW49340   1.289  11.193   4.262
15778SOL    HW149341   1.322 -10.955   4.320
15778SOL    HW249342  12.237  11.171   4.247
15779SOL     OW49343  10.644   8.231   1.453
15779SOL    HW149344  10.644   8.280  -9.669
15779SOL    HW249345  10.732   8.243   1.488
15780SOL     OW49346  11.968   8.456   0.290
15780SOL    HW149347  12.009   8.537  11.299
15780SOL    HW249348 -10.197   8.455   0.249
15781SOL     OW49349   3.009   0.181   4.918
15781SOL    HW149350   3.055   0.156   4.998
15781SOL    HW249351   2.940   0.240 -17.131
15782SOL     OW49352   0.603   5.678   5.881
15782SOL    HW149353   0.675   5.615   5.886
15782SOL    HW249354   0.611   5.729  28.041
15783SOL     OW49355   8.080   7.684   0.834
15783SOL    HW149356 -35.998   7.713   0.876
15783SOL    HW249357  -2.955   7.588  11.878
15784SOL     OW49358   9.465   3.833   0.186
15784SOL    HW149359   9.473  25.961  11.144
15784SOL    HW249360   9.540   3.773   0.186
15785SOL     OW49361   7.972   6.142   9.123
15785SOL    HW149362   7.907   6.104   9.180
15785SOL    HW249363   7.923   6.172   9.046
15786SOL     OW49364   2.324   0.972   7.528
15786SOL    HW149365   2.399   0.929   7.487
15786SOL    HW249366   2.306   0.919 -14.474
15787SOL     OW49367  10.203   5.298   8.918
15787SOL    HW149368  10.236  38.467  -2.046
15787SOL    HW249369 -11.831  27.293   8.924
15788SOL     OW49370   7.620   8.374   5.970
15788SOL    HW149371   7.631  -2.587   5.917
15788SOL    HW249372   7.540   8.389   6.019
15789SOL     OW49373   7.565   8.501   2.441
15789SOL    HW149374 -25.482   8.439   2.457
15789SOL    HW249375 -14.538   8.533   2.528
15790SOL     OW49376  11.757   9.374   6.569
15790SOL    HW149377 -10.367  20.353   6.628
15790SOL    HW249378  11.714   9.361   6.485
15791SOL     OW49379   7.644  11.081  -0.368
15791SOL    HW149380   7.619   0.119  10.723
15791SOL    HW249381   7.613 -10.978  10.583
15792SOL     OW49382   8.767   5.195   7.409
15792SOL    HW149383   8.756  16.229   7.504
15792SOL    HW249384   8.778   5.289  29.471
15793SOL     OW49385   5.347   6.952   4.224
15793SOL    HW149386  16.373  -4.101  -6.722
15793SOL    HW249387   5.265  29.004   4.184
15794SOL     OW49388  10.374  10.575   3.057
15794SOL    HW149389  21.424  10.556  14.003
15794SOL    HW249390  10.367  10.670   3.061
15795SOL     OW49391  10.902   7.506   4.874
15795SOL    HW149392  10.996   7.523   4.876
15795SOL    HW249393  10.864  29.667  15.882
15796SOL     OW49394   8.106   2.154   6.287
15796SOL    HW149395   8.150   2.233   6.320
15796SOL    HW249396   8.076   2.109   6.365
15797SOL     OW49397   9.277   0.435   5.314
15797SOL    HW149398   9.267   0.495  16.279
15797SOL    HW249399   9.307   0.491   5.386
15798SOL     OW49400   4.478   6.839   6.494
15798SOL    HW149401   4.462   6.746  -4.531
15798SOL    HW249402   4.549  -4.179   6.555
15799SOL     OW49403   7.463   0.720   5.583
15799SOL    HW149404   7.380  22.770   5.544
15799SOL    HW249405  -3.528   0.757 -16.570
15800SOL     OW49406   8.672   9.745   1.793
15800SOL    HW149407   8.761   9.734   1.828
15800SOL    HW249408  19.688  -1.205  12.855
15801SOL     OW49409   2.796  11.507   8.891
15801SOL    HW149410   2.801  11.602 -35.255
15801SOL    HW249411   2.862   0.448   8.824
15802SOL     OW49412   8.741   1.203  10.584
15802SOL    HW149413   8.800   1.191  10.658
15802SOL    HW249414   8.654   1.192  10.621
15803SOL     OW49415   6.710   2.727   4.208
15803SOL    HW149416   6.644   2.688   4.266
15803SOL    HW249417   6.771   2.656   4.189
15804SOL     OW49418   9.998  10.056   4.970
15804SOL    HW149419 -23.161  -0.962   5.054
15804SOL    HW249420  10.084  10.020   4.993
15805SOL     OW49421   0.278   9.863   1.372
15805SOL    HW149422   0.314  20.975   1.424
15805SOL    HW249423  11.388   9.798   1.368
15806SOL     OW49424  10.807   7.518   5.777
15806SOL    HW149425  10.876  29.612   5.712
15806SOL    HW249426  -0.291   7.455   5.735
15807SOL     OW49427   7.657   6.009  10.413
15807SOL    HW149428   7.578  17.026  10.463
15807SOL    HW249429  -3.348  16.964  10.385
15808SOL     OW49430   0.133   4.945   9.475
15808SOL    HW149431  11.265   4.969   9.467
15808SOL    HW249432  11.126   5.007   9.419
15809SOL     OW49433   8.603   4.781   0.508
15809SOL    HW149434   8.686   4.779   0.460
15809SOL    HW249435   8.558   4.701   0.483
15810SOL     OW49436   3.861  11.555  11.026
15810SOL    HW149437   3.776   0.533  10.986
15810SOL    HW249438  14.963  11.601  10.970
15811SOL     OW49439  10.058   9.279  10.002
15811SOL    HW149440  10.109   9.300  20.963
15811SOL    HW249441  -0.956   9.347  10.065
15812SOL     OW49442   6.455   5.573   8.672
15812SOL    HW149443  -4.610   5.645  19.769
15812SOL    HW249444  -4.616 -16.479  -2.454
15813SOL     OW49445   5.205   6.045   4.310
15813SOL    HW149446  27.335 -15.953   4.318
15813SOL    HW249447  -5.832  28.105  -6.824
15814SOL     OW49448   0.133   2.130   6.424
15814SOL    HW149449   0.227 -19.965   6.420
15814SOL    HW249450  22.174   2.046   6.449
15815SOL     OW49451   3.342  10.165   0.362
15815SOL    HW149452   3.346 -11.866   0.280
15815SOL    HW249453   3.433  10.156   0.389
15816SOL     OW49454   9.048   0.240   1.567
15816SOL    HW149455   9.141   0.261  12.600
15816SOL    HW249456  31.099  33.402  12.687
15817SOL     OW49457   5.338   8.662   6.161
15817SOL    HW149458   5.421   8.620   6.181
15817SOL    HW249459   5.284  30.671   6.124
15818SOL     OW49460   4.209   8.002   9.756
15818SOL    HW149461 -28.972  -3.036   9.829
15818SOL    HW249462   4.256   8.085   9.763
15819SOL     OW49463   9.329   0.839  -1.027
15819SOL    HW149464   9.329   0.934  10.019
15819SOL    HW249465   9.298   0.808  21.137
15820SOL     OW49466   3.760   6.987   8.732
15820SOL    HW149467 -40.431   6.976   8.821
15820SOL    HW249468   3.794   7.077  19.769
15821SOL     OW49469   8.969   5.039   8.505
15821SOL    HW149470  31.129   5.072  19.584
15821SOL    HW249471   8.911   5.116   8.503
15822SOL     OW49472   2.255   5.283   5.586
15822SOL    HW149473   2.325   5.348  -5.464
15822SOL    HW249474  -8.861   5.324   5.546
15823SOL     OW49475   8.218   5.052   9.552
15823SOL    HW149476   8.293   5.058   9.492
15823SOL    HW249477  -2.825   5.138   9.595
15824SOL     OW49478   6.411   2.543   7.909
15824SOL    HW149479   6.477   2.611  -3.121
15824SOL    HW249480  17.483   2.487   7.839
15825SOL     OW49481   3.825   2.966   3.188
15825SOL    HW149482   3.871 -30.201  14.295
15825SOL    HW249483   3.812   3.053   3.225
15826SOL     OW49484   6.079   2.351   9.545
15826SOL    HW149485  17.173   2.286   9.588
15826SOL    HW249486   6.029   2.302   9.480
15827SOL     OW49487   6.315  -0.107   6.009
15827SOL    HW149488   6.223  21.987   6.034
15827SOL    HW249489 -15.768  10.914 -16.164
15828SOL     OW49490   6.465   3.737  10.949
15828SOL    HW149491   6.500   3.694  11.026
15828SOL    HW249492  17.548  -7.218  10.947
15829SOL     OW49493   8.389   3.686   5.129
15829SOL    HW149494  -2.577  -7.408   5.103
15829SOL    HW249495  30.428   3.640  -5.837
15830SOL     OW49496   2.129   3.871   8.300
15830SOL    HW149497   2.082   3.930 -24.760
15830SOL    HW249498   2.069  14.897   8.227
15831SOL     OW49499   1.000   2.201   8.182
15831SOL    HW149500  12.068   2.285   8.147
15831SOL    HW249501   1.074  13.181   8.164
15832SOL     OW49502  12.946   8.830   9.242
15832SOL    HW149503  -9.043  -2.178   9.254
15832SOL    HW249504 -20.164   8.734   9.237
15833SOL     OW49505   0.252   6.256   5.803
15833SOL    HW149506  22.361   6.243  38.832
15833SOL    HW249507 -21.917   6.223   5.803
15834SOL     OW49508  10.840   7.851   4.134
15834SOL    HW149509  10.884   7.768 -17.965
15834SOL    HW249510  10.881 -14.164   4.076
15835SOL     OW49511   1.957   8.379  10.310
15835SOL    HW149512   1.945   8.285  10.326
15835SOL    HW249513 -20.187   8.421  10.366
15836SOL     OW49514  10.819   4.471   4.000
15836SOL    HW149515  10.744  15.522  -7.098
15836SOL    HW249516  10.893   4.456   3.941
15837SOL     OW49517   7.490  10.282   3.134
15837SOL    HW149518   7.506  -0.728  -7.996
15837SOL    HW249519   7.397  10.298  -7.892
15838SOL     OW49520   4.894   3.233   6.026
15838SOL    HW149521   4.846  14.290   5.945
15838SOL    HW249522   4.838  36.292   6.075
15839SOL     OW49523  10.967   9.700   8.123
15839SOL    HW149524  11.015   9.773   8.163
15839SOL    HW249525  11.027   9.626  19.168
15840SOL     OW49526   9.283   6.195   5.056
15840SOL    HW149527   9.230  -4.796   5.120
15840SOL    HW249528   9.353  -4.784  -6.007
15841SOL     OW49529  11.119   7.056   6.258
15841SOL    HW149530   0.011   7.119 -15.844
15841SOL    HW249531  11.116   7.052   6.354
15842SOL     OW49532   3.797   6.661   5.067
15842SOL    HW149533  -7.233   6.610   4.987
15842SOL    HW249534  14.813   6.596 -16.945
15843SOL     OW49535  10.503   5.439   6.037
15843SOL    HW149536  10.416   5.407   6.015
15843SOL    HW249537  10.562   5.368   6.011
15844SOL     OW49538  -0.060   2.324   7.237
15844SOL    HW149539  11.066   2.289  -3.822
15844SOL    HW249540  -0.071   2.311   7.331
15845SOL     OW49541   9.056   4.587   6.994
15845SOL    HW149542  20.171  15.674   6.960
15845SOL    HW249543  -1.976   4.594 -26.029
15846SOL     OW49544  10.964   1.934   7.454
15846SOL    HW149545  10.894   1.999  -3.582
15846SOL    HW249546  11.002  -9.095   7.367
15847SOL     OW49547  -3.506   9.071   5.185
15847SOL    HW149548  29.655   8.993  -5.889
15847SOL    HW249549  29.621   9.136  -5.924
15848SOL     OW49550   1.354   6.014   1.718
15848SOL    HW149551   1.376   6.107   1.714
15848SOL    HW249552   1.308  17.037  -9.404
15849SOL     OW49553   8.187   4.435   4.167
15849SOL    HW149554  30.222   4.519   4.178
15849SOL    HW249555   8.182   4.417   4.073
15850SOL     OW49556   3.493   8.475  -0.458
15850SOL    HW149557  14.526   8.391  -0.502
15850SOL    HW249558   3.586 -13.581  21.617
15851SOL     OW49559   8.276   8.507   8.096
15851SOL    HW149560   8.371 -13.575   8.089
15851SOL    HW249561   8.249   8.578   8.038
15852SOL     OW49562  10.775   5.273   3.909
15852SOL    HW149563  10.687   5.304   3.887
15852SOL    HW249564  -0.278   5.213   3.983
15853SOL     OW49565   7.889   4.902   3.086
15853SOL    HW149566   7.829   4.976   3.093
15853SOL    HW249567   7.944   4.909  25.243
15854SOL     OW49568   0.712   2.246   0.530
15854SOL    HW149569   0.792   2.292   0.553
15854SOL    HW249570   0.685   2.285   0.446
15855SOL     OW49571   3.317   1.539   5.222
15855SOL    HW149572   3.412   1.536  -5.826
15855SOL    HW249573   3.285   1.488  16.187
15856SOL     OW49574  10.253   4.630   5.769
15856SOL    HW149575  -0.772  -6.442   5.858
15856SOL    HW249576  10.158   4.628   5.758
15857SOL     OW49577   6.847   2.036   1.337
15857SOL    HW149578   6.915   1.982   1.379
15857SOL    HW249579   6.895   2.096  -9.759
15858SOL     OW49580   6.419   1.422   9.765
15858SOL    HW149581   6.376   1.392 -12.234
15858SOL    HW249582   6.448  -9.529   9.785
15859SOL     OW49583   3.454  -0.602   0.833
15859SOL    HW149584  25.538  -0.509   0.811
15859SOL    HW249585   3.365  10.412  11.850
15860SOL     OW49586   5.516   9.252   2.291
15860SOL    HW149587   5.524   9.348  13.330
15860SOL    HW249588   5.436  20.275   2.340
15861SOL     OW49589   6.217   2.807   6.175
15861SOL    HW149590   6.164   2.774  -4.937
15861SOL    HW249591   6.286   2.742 -26.931
15862SOL     OW49592   9.026   3.711   3.595
15862SOL    HW149593  20.009  14.798   3.655
15862SOL    HW249594   9.030  14.662   3.632
15863SOL     OW49595  10.034   9.464   5.029
15863SOL    HW149596  -1.007   9.487   5.122
15863SOL    HW249597  -0.927   9.411   5.018
15864SOL     OW49598   8.302   1.256   0.456
15864SOL    HW149599  41.385   1.345   0.465
15864SOL    HW249600  19.379   1.237  11.582
15865SOL     OW49601   1.153   1.028   1.004
15865SOL    HW149602   1.118   1.050   0.918
15865SOL    HW249603  12.118   1.031   1.063
15866SOL     OW49604   7.094   0.218   6.029
15866SOL    HW149605   7.157   0.204  16.997
15866SOL    HW249606  -4.025  11.286  17.024
15867SOL     OW49607   6.327   0.942   7.729
15867SOL    HW149608   6.284   0.997   7.663
15867SOL    HW249609 -15.781   0.977  -3.227
15868SOL     OW49610   8.293   2.386  -0.439
15868SOL    HW149611   8.350   2.371  -0.364
15868SOL    HW249612 -13.870   2.410  10.639
15869SOL     OW49613  10.271  10.793   6.887
15869SOL    HW149614  10.203 -11.272   6.953
15869SOL    HW249615  10.239  -0.200   6.810
15870SOL     OW49616   3.433   3.271   6.489
15870SOL    HW149617   3.496  -7.699   6.473
15870SOL    HW249618  -7.691   3.308   6.461
15871SOL     OW49619   7.480   5.231   0.663
15871SOL    HW149620  18.505   5.229   0.758
15871SOL    HW249621   7.411   5.288 -10.410
15872SOL     OW49622   0.598   2.002   1.076
15872SOL    HW149623   0.615   1.935   1.142
15872SOL    HW249624   0.548   2.069   1.122
15873SOL     OW49625   2.039   5.240   2.036
15873SOL    HW149626  -9.051   5.226   2.116
15873SOL    HW249627  13.139  38.429 -20.021
15874SOL     OW49628   8.162   4.731   7.382
15874SOL    HW149629  -2.798  -6.359   7.366
15874SOL    HW249630   8.165   4.802  18.356
15875SOL     OW49631   1.684   2.342   3.860
15875SOL    HW149632  -9.373   2.346   3.954
15875SOL    HW249633   1.758   2.401 -18.232
15876SOL     OW49634   8.304   7.429   4.154
15876SOL    HW149635   8.380   7.415   4.212
15876SOL    HW249636   8.268  -3.698   4.141
15877SOL     OW49637  10.541  10.185   4.634
15877SOL    HW149638  10.470  10.160   4.694
15877SOL    HW249639  10.619  10.189  26.769
15878SOL     OW49640   3.065   7.547   0.154
15878SOL    HW149641   3.117  40.724   0.209
15878SOL    HW249642   3.007   7.502   0.215
15879SOL     OW49643   1.459   2.453   8.976
15879SOL    HW149644  12.527   2.527   8.923
15879SOL    HW249645   1.465  35.603   9.066
15880SOL     OW49646   1.956   3.283   7.735
15880SOL    HW149647   1.999  14.273 -25.453
15880SOL    HW249648   1.897  25.299  -3.263
15881SOL     OW49649   2.627  10.156   2.912
15881SOL    HW149650   2.665  10.194   2.992
15881SOL    HW249651   2.701  21.152   2.870
15882SOL     OW49652   1.114   8.699  10.721
15882SOL    HW149653   1.156   8.784  -0.333
15882SOL    HW249654   1.113   8.689  21.856
15883SOL     OW49655   9.099   4.387   9.929
15883SOL    HW149656 -12.944  15.373  -1.040
15883SOL    HW249657   9.176  15.453  -1.161
15884SOL     OW49658   4.326   7.171   0.599
15884SOL    HW149659   4.268   7.104   0.563
15884SOL    HW249660   4.330   7.152   0.693
15885SOL     OW49661   7.819  -0.017   4.720
15885SOL    HW149662  18.938  22.017   4.748
15885SOL    HW249663  18.832 -11.006  15.836
15886SOL     OW49664   5.172   0.580   6.547
15886SOL    HW149665   5.086   0.579   6.505
15886SOL    HW249666   5.183  11.531  -4.460
15887SOL     OW49667   2.097   1.590   1.163
15887SOL    HW149668   2.156  12.689  -9.923
15887SOL    HW249669   2.079  12.560   1.101
15888SOL     OW49670   7.245   1.754   3.100
15888SOL    HW149671   7.299   1.788 -19.051
15888SOL    HW249672   7.290   1.675   3.128
15889SOL     OW49673  12.117   3.471   3.973
15889SOL    HW149674 -21.020 -18.620   3.880
15889SOL    HW249675   1.084   3.382   4.008
15890SOL     OW49676   0.337   0.170   8.737
15890SOL    HW149677   0.405   0.178   8.805
15890SOL    HW249678  11.308   0.230  30.844
15891SOL     OW49679   9.162   1.731   5.508
15891SOL    HW149680 -12.992   1.710   5.452
15891SOL    HW249681   9.213   1.794   5.456
15892SOL     OW49682   4.783  11.091   2.827
15892SOL    HW149683   4.852 -10.948  -8.264
15892SOL    HW249684   4.702  11.126   2.791
15893SOL     OW49685   3.611   7.814   5.179
15893SOL    HW149686  25.657   7.890   5.131
15893SOL    HW249687  25.768   7.847   5.225
15894SOL     OW49688   9.135   3.282   5.867
15894SOL    HW149689   9.131   3.250   5.776
15894SOL    HW249690  31.131  25.407 -27.240
15895SOL     OW49691   0.510   8.370   1.451
15895SOL    HW149692   0.571 -13.652   1.497
15895SOL    HW249693   0.437   8.359   1.511
15896SOL     OW49694  11.596   5.631   3.988
15896SOL    HW149695 -10.549   5.598   3.927
15896SOL    HW249696 -21.507  16.597  -6.992
15897SOL     OW49697   2.918  10.995   3.861
15897SOL    HW149698   2.834  10.954  14.881
15897SOL    HW249699   2.910  11.026  14.991
15898SOL     OW49700   0.860   1.601   6.780
15898SOL    HW149701   0.938   1.568   6.736
15898SOL    HW249702   0.876  12.734   6.792
15899SOL     OW49703   1.351   8.019  10.276
15899SOL    HW149704   1.310  -3.024 -22.929
15899SOL    HW249705   1.377   7.928 -22.824
15900SOL     OW49706  10.373   1.141   2.872
15900SOL    HW149707  10.280   1.126   2.860
15900SOL    HW249708  10.382  -9.875   2.965
15901SOL     OW49709   1.253   5.197   6.241
15901SOL    HW149710   1.312   5.222   6.312
15901SOL    HW249711 -20.770   5.184 -15.914
15902SOL     OW49712   6.430   1.809   4.461
15902SOL    HW149713   6.442   1.788   4.368
15902SOL    HW249714   6.371   1.740   4.493
15903SOL     OW49715   1.761   6.900   9.152
15903SOL    HW149716   1.738 -15.162   9.243
15903SOL    HW249717   1.723   6.814   9.133
15904SOL     OW49718  12.025   0.441   3.682
15904SOL    HW149719 -10.044   0.385  14.645
15904SOL    HW249720 -10.111   0.392   3.741
15905SOL     OW49721   3.679   3.182   0.682
15905SOL    HW149722  14.797   3.192   0.627
15905SOL    HW249723   3.665   3.087   0.686
15906SOL     OW49724   1.062   6.028   5.941
15906SOL    HW149725  12.165  -5.050   6.002
15906SOL    HW249726   0.977   6.009  17.020
15907SOL     OW49727  -0.216   0.287  10.267
15907SOL    HW149728  10.846  11.240  10.231
15907SOL    HW249729  -0.302 -10.766  21.347
15908SOL     OW49730   9.698   4.721   2.989
15908SOL    HW149731 -23.499  37.881  -8.087
15908SOL    HW249732   9.664   4.660   3.054
15909SOL     OW49733   3.130   9.847   6.686
15909SOL    HW149734 -19.042  20.906   6.700
15909SOL    HW249735  -7.864   9.893   6.758
15910SOL     OW49736   8.636   5.572   5.155
15910SOL    HW149737   8.619   5.488   5.199
15910SOL    HW249738   8.579  -5.468   5.078
15911SOL     OW49739  11.885   8.969  10.484
15911SOL    HW149740   0.892   8.887  10.498
15911SOL    HW249741   0.894   9.012  10.414
15912SOL     OW49742  11.360   8.907   1.258
15912SOL    HW149743   0.250   8.954   1.212
15912SOL    HW249744 -10.744   8.815   1.251
15913SOL     OW49745   8.873   3.432   5.053
15913SOL    HW149746   8.872  -7.629  16.186
15913SOL    HW249747   8.887 -18.552   5.051
15914SOL     OW49748   9.708  11.267   1.480
15914SOL    HW149749  -1.238  11.252   1.496
15914SOL    HW249750 -12.413   0.146 -20.570
15915SOL     OW49751   0.781  10.010   4.917
15915SOL    HW149752   0.810   9.919  -6.116
15915SOL    HW249753   0.843  10.051   4.856
15916SOL     OW49754   3.151   8.840   3.633
15916SOL    HW149755   3.073  -2.144   3.631
15916SOL    HW249756   3.172   8.826   3.541
15917SOL     OW49757   4.656   3.967  10.460
15917SOL    HW149758   4.681  26.100  10.535
15917SOL    HW249759   4.653   3.877  10.495
15918SOL     OW49760   9.258   5.054  10.754
15918SOL    HW149761 -12.840 -27.972  10.742
15918SOL    HW249762   9.270   5.044  10.849
15919SOL     OW49763   3.020   9.296   5.091
15919SOL    HW149764   2.966   9.236  27.118
15919SOL    HW249765  -7.951   9.325   5.031
15920SOL     OW49766   2.419   9.807  10.113
15920SOL    HW149767   2.380  20.879  10.032
15920SOL    HW249768   2.422   9.712  -0.938
15921SOL     OW49769   5.816   7.870   0.982
15921SOL    HW149770   5.835   7.829   0.897
15921SOL    HW249771   5.901  18.917 -10.015
15922SOL     OW49772  -0.600   4.551   2.744
15922SOL    HW149773  32.473   4.481  24.869
15922SOL    HW249774 -11.555   4.559   2.790
15923SOL     OW49775   3.111   1.496   6.137
15923SOL    HW149776   3.117   1.445   6.056
15923SOL    HW249777   3.189   1.471   6.187
15924SOL     OW49778  11.239   6.064   3.287
15924SOL    HW149779  11.233   5.970  14.343
15924SOL    HW249780 -10.786 -15.982   3.359
15925SOL     OW49781   4.275   1.434   1.828
15925SOL    HW149782   4.336  12.413   1.870
15925SOL    HW249783   4.226  12.419   1.766
15926SOL     OW49784   6.245   1.956   2.845
15926SOL    HW149785   6.199   2.038  24.907
15926SOL    HW249786   6.338   1.977   2.832
15927SOL     OW49787   3.028   5.611   5.311
15927SOL    HW149788   3.008  -5.455   5.401
15927SOL    HW249789   3.087   5.685  27.398
15928SOL     OW49790   9.642   6.222   5.411
15928SOL    HW149791  20.687  28.318   5.317
15928SOL    HW249792   9.556   6.181   5.423
15929SOL     OW49793   8.611   8.361   9.387
15929SOL    HW149794   8.592  -2.596   9.344
15929SOL    HW249795  -2.352 -13.699  20.482
15930SOL     OW49796   7.529   2.953   6.752
15930SOL    HW149797   7.440  13.991   6.788
15930SOL    HW249798   7.540  24.947   6.711
15931SOL     OW49799   8.683   2.593   5.404
15931SOL    HW149800   8.624   2.547  27.423
15931SOL    HW249801   8.634   2.596  -5.553
15932SOL     OW49802   1.473   9.678   9.986
15932SOL    HW149803  23.509  -1.403 -12.018
15932SOL    HW249804   1.531   9.744  -1.015
15933SOL     OW49805  -0.980   6.709   2.797
15933SOL    HW149806  21.175   6.727 -19.338
15933SOL    HW249807  10.096  28.736   2.869
15934SOL     OW49808   4.608   1.719   4.342
15934SOL    HW149809   4.551  12.696   4.297
15934SOL    HW249810  15.635  34.920   4.294
15935SOL     OW49811   7.532   3.551  10.124
15935SOL    HW149812   7.599   3.544  10.192
15935SOL    HW249813   7.489   3.635 -11.937
15936SOL     OW49814   3.260   5.556   8.653
15936SOL    HW149815  14.206   5.538 -24.464
15936SOL    HW249816 -18.784  -5.532   8.728
15937SOL     OW49817   4.079  10.166  11.381
15937SOL    HW149818   4.096  10.120  11.299
15937SOL    HW249819   4.003  10.120   0.379
15938SOL     OW49820  -0.278   4.136   2.944
15938SOL    HW149821  10.824   4.208   2.937
15938SOL    HW249822  -0.361   4.177   2.969
15939SOL     OW49823   5.245   6.024   1.624
15939SOL    HW149824   5.338   6.022  23.682
15939SOL    HW249825   5.242   6.027  12.760
15940SOL     OW49826   9.177   3.958  10.508
15940SOL    HW149827   9.200  -7.173  10.494
15940SOL    HW249828   9.109  -7.085  -0.463
15941SOL     OW49829  10.956   7.031   8.180
15941SOL    HW149830  10.875   7.017   8.131
15941SOL    HW249831  -0.048   7.112  -2.896
15942SOL     OW49832   5.562   4.559   1.236
15942SOL    HW149833 -16.501   4.607   1.317
15942SOL    HW249834   5.594  -6.423   1.167
15943SOL     OW49835  10.106   8.426   7.759
15943SOL    HW149836  10.034   8.458   7.705
15943SOL    HW249837  10.064  19.411   7.825
15944SOL     OW49838   3.675   7.216   0.055
15944SOL    HW149839   3.717  -3.882  -0.008
15944SOL    HW249840   3.599   7.167   0.086
15945SOL     OW49841   1.751  10.833  10.924
15945SOL    HW149842  12.771  10.910  -0.168
15945SOL    HW249843   1.764  10.762 -11.219
15946SOL     OW49844   4.595   4.496   9.828
15946SOL    HW149845   4.526 -17.646   9.848
15946SOL    HW249846   4.549  -6.462   9.809
15947SOL     OW49847  10.453   6.277   8.065
15947SOL    HW149848  10.424   6.298   8.154
15947SOL    HW249849  10.374  28.332   8.018
15948SOL     OW49850   4.398   1.775   6.583
15948SOL    HW149851  -6.719 -20.251 -26.557
15948SOL    HW249852  15.510   1.818   6.538
15949SOL     OW49853   7.106   1.342   5.628
15949SOL    HW149854  -3.908   1.296   5.548
15949SOL    HW249855 -25.999   1.435   5.608
15950SOL     OW49856   9.885   7.222   2.826
15950SOL    HW149857   9.861   7.209   2.734
15950SOL    HW249858  20.858   7.174  -8.165
15951SOL     OW49859   8.234   9.474   2.548
15951SOL    HW149860   8.289   9.452   2.624
15951SOL    HW249861   8.145   9.454   2.578
15952SOL     OW49862   5.104   3.286  10.643
15952SOL    HW149863   5.081   3.337  10.565
15952SOL    HW249864  16.168   3.200  10.609
15953SOL     OW49865   8.111   8.401   3.778
15953SOL    HW149866  -2.919   8.496  14.820
15953SOL    HW249867 -13.902  19.412   3.715
15954SOL     OW49868   8.679   4.916   3.496
15954SOL    HW149869   8.686   5.011  25.587
15954SOL    HW249870   8.766   4.883   3.515
15955SOL     OW49871   3.575   6.290   6.879
15955SOL    HW149872   3.578   6.344   6.958
15955SOL    HW249873   3.619   6.209 -48.293
15956SOL     OW49874   1.324  10.835   7.148
15956SOL    HW149875  -9.737  10.768 -26.036
15956SOL    HW249876   1.241  10.878   7.166
15957SOL     OW49877   0.953   4.400   9.689
15957SOL    HW149878   0.918   4.483   9.722
15957SOL    HW249879  23.105   4.380   9.747
15958SOL     OW49880   2.346   8.121   8.874
15958SOL    HW149881   2.393 -13.996   8.800
15958SOL    HW249882   2.325   8.046   8.930
15959SOL     OW49883   5.568  10.160  10.213
15959SOL    HW149884   5.568  21.126  10.274
15959SOL    HW249885   5.516  10.228  10.256
15960SOL     OW49886   1.460  10.680  10.685
15960SOL    HW149887   1.405  10.691  10.763
15960SOL    HW249888   1.399  10.655  10.616
15961SOL     OW49889   6.248   6.810   7.718
15961SOL    HW149890   6.153   6.803   7.721
15961SOL    HW249891   6.269  17.864   7.626
15962SOL     OW49892   5.842  10.949   0.240
15962SOL    HW149893  16.912  10.863   0.212
15962SOL    HW249894   5.834  10.942   0.335
15963SOL     OW49895   3.413  -0.275  -0.068
15963SOL    HW149896   3.465  -0.266   0.013
15963SOL    HW249897   3.353  21.731  10.989
15964SOL     OW49898   1.078   4.213  -0.401
15964SOL    HW149899  12.095  -6.798  -0.490
15964SOL    HW249900  -9.973  -6.921  10.637
15965SOL     OW49901   7.979   2.002   1.996
15965SOL    HW149902   8.006   2.073   1.937
15965SOL    HW249903   7.964  -9.112  -9.101
15966SOL     OW49904   8.087  11.641  12.124
15966SOL    HW149905   8.091   0.632  12.214
15966SOL    HW249906  -2.967  11.720 -10.007
15967SOL     OW49907   1.937   7.994   3.916
15967SOL    HW149908   1.952   7.987   4.010
15967SOL    HW249909   1.860   8.050  -7.131
15968SOL     OW49910   3.933   6.419  10.109
15968SOL    HW149911  -7.020   6.429  10.068
15968SOL    HW249912   3.923   6.325  10.122
15969SOL     OW49913   7.880   0.346  10.658
15969SOL    HW149914   7.805   0.322  10.712
15969SOL    HW249915   7.871   0.292  -0.461
15970SOL     OW49916   4.714   5.768  10.284
15970SOL    HW149917  -6.268   5.820  10.227
15970SOL    HW249918   4.665   5.712  10.223
15971SOL     OW49919   5.655   3.142   0.416
15971SOL    HW149920   5.595   3.073   0.391
15971SOL    HW249921   5.600   3.211   0.452
15972SOL     OW49922   9.954   3.480   6.120
15972SOL    HW149923  -1.056   3.430   6.197
15972SOL    HW249924  -1.177  -7.539   6.139
15973SOL     OW49925   6.796   9.346   1.554
15973SOL    HW149926 -15.261   9.274  -9.427
15973SOL    HW249927   6.701   9.341   1.544
15974SOL     OW49928  12.583   6.205   2.539
15974SOL    HW149929   1.626   6.253   2.543
15974SOL    HW249930  -9.545   6.234  24.695
15975SOL     OW49931   7.586   1.216   8.607
15975SOL    HW149932   7.558  -9.913   8.590
15975SOL    HW249933  -3.464   1.261   8.523
15976SOL     OW49934   5.297   1.502   4.446
15976SOL    HW149935  -5.698   1.457  15.414
15976SOL    HW249936   5.331   1.459   4.525
15977SOL     OW49937  10.585   6.229   5.515
15977SOL    HW149938  10.527  28.242   5.553
15977SOL    HW249939  10.670   6.187  16.548
15978SOL     OW49940   8.750   1.703   9.352
15978SOL    HW149941   8.655   1.711  -1.690
15978SOL    HW249942  -2.270   1.671   9.440
15979SOL     OW49943   5.263   8.066  10.872
15979SOL    HW149944   5.288   8.156  10.849
15979SOL    HW249945   5.317   8.045  10.948
15980SOL     OW49946   4.692   5.655   9.605
15980SOL    HW149947  -6.394   5.613  -1.362
15980SOL    HW249948   4.629   5.653 -34.625
15981SOL     OW49949   2.871   3.441   6.060
15981SOL    HW149950   2.792   3.488   6.089
15981SOL    HW249951  -8.190   3.410   5.972
15982SOL     OW49952   2.182   8.330   5.532
15982SOL    HW149953   2.252   8.393   5.514
15982SOL    HW249954   2.149   8.306   5.445
15983SOL     OW49955   5.116   2.414  11.379
15983SOL    HW149956  27.131  -8.623 -10.630
15983SOL    HW249957   5.069   2.448  11.302
15984SOL     OW49958   1.628   0.644  12.255
15984SOL    HW149959   1.706  33.708  -9.819
15984SOL    HW249960   1.645   0.715 -31.841
15985SOL     OW49961  10.383   9.317   1.845
15985SOL    HW149962  -0.729  20.405   1.806
15985SOL    HW249963  21.394  20.339   1.934
15986SOL     OW49964   1.917  11.022   5.049
15986SOL    HW149965  12.878  11.077   5.050
15986SOL    HW249966   1.941  11.012   5.141
15987SOL     OW49967   4.448   4.359   8.657
15987SOL    HW149968   4.385   4.429   8.640
15987SOL    HW249969   4.483   4.336   8.571
15988SOL     OW49970   6.510   8.215   8.248
15988SOL    HW149971  17.635   8.200   8.287
15988SOL    HW249972   6.490   8.306   8.268
15989SOL     OW49973   1.498   6.349   5.500
15989SOL    HW149974   1.590   6.330   5.518
15989SOL    HW249975   1.478   6.424   5.555
15990SOL     OW49976   7.403   1.437   5.180
15990SOL    HW149977   7.458   1.404   5.110
15990SOL    HW249978   7.457   1.501  27.305
15991SOL     OW49979   5.505   8.777   6.845
15991SOL    HW149980   5.518   8.841   6.915
15991SOL    HW249981   5.411  -2.258   6.826
15992SOL     OW49982  10.932   9.764   1.580
15992SOL    HW149983  10.866   9.695   1.586
15992SOL    HW249984  10.929   9.792   1.488
15993SOL     OW49985  10.034   8.989   9.057
15993SOL    HW149986   9.986  31.082   9.139
15993SOL    HW249987  10.078  19.944 -13.010
15994SOL     OW49988   7.255   1.322   6.701
15994SOL    HW149989   7.177   1.273   6.675
15994SOL    HW249990   7.266  -9.651   6.633
15995SOL     OW49991   7.624   1.640   1.651
15995SOL    HW149992 -14.543   1.618   1.621
15995SOL    HW249993  18.688  12.607   1.709
15996SOL     OW49994   2.947  12.236  11.079
15996SOL    HW149995   2.993  -9.922   0.068
15996SOL    HW249996  14.035  12.264  11.001
15997SOL     OW49997   6.980   0.157  11.715
15997SOL    HW149998   7.057   0.099   0.682
15997SOL    HW249999  17.953   0.104 -32.487
15998SOL     OW50000   3.024  -0.598   4.665
15998SOL    HW150001  -8.015  10.429   4.760
15998SOL    HW250002 -18.967  -0.569   4.643
15999SOL     OW50003   6.384  -1.305   3.901
15999SOL    HW150004   6.396  31.828   3.995
15999SOL    HW250005   6.370  31.720   3.893
16000SOL     OW50006  11.084   5.412   5.978
16000SOL    HW150007 -10.997   5.390   6.071
16000SOL    HW250008  11.006   5.370  16.982
16001SOL     OW50009   8.199   5.464  10.119
16001SOL    HW150010   8.231   5.538  10.067
16001SOL    HW250011  19.309   5.399  10.115
16002SOL     OW50012   9.816  10.414   7.009
16002SOL    HW150013   9.724 -11.681   6.990
16002SOL    HW250014  -1.223  10.465   7.090
16003SOL     OW50015   7.485   1.698   1.148
16003SOL    HW150016  18.581   1.776   1.156
16003SOL    HW250017  -3.571   1.690  23.133
16004SOL     OW50018  11.348   8.060   8.076
16004SOL    HW150019 -10.789   8.136   8.071
16004SOL    HW250020 -10.782   7.994   8.124
16005SOL     OW50021   8.335   6.756   4.533
16005SOL    HW150022  30.403  17.751  -6.590
16005SOL    HW250023   8.246  -4.270 -39.593
16006SOL     OW50024   9.892   4.104   2.956
16006SOL    HW150025   9.857   4.090   3.045
16006SOL    HW250026   9.841   4.177  36.040
16007SOL     OW50027   5.029   9.171  -0.131
16007SOL    HW150028   5.048   9.169  33.082
16007SOL    HW250029   4.938  -1.841  10.903
16008SOL     OW50030   8.688   9.629   6.148
16008SOL    HW150031 -13.394 -12.506   6.070
16008SOL    HW250032  -2.261 -34.500   6.153
16009SOL     OW50033   7.689   4.548   1.953
16009SOL    HW150034   7.651 -17.447   1.976
16009SOL    HW250035   7.632 -17.566  46.043
16010SOL     OW50036   3.237   2.800   8.826
16010SOL    HW150037 -18.818   2.884   8.786
16010SOL    HW250038   3.307   2.740   8.799
16011SOL     OW50039   4.659   7.395   1.176
16011SOL    HW150040   4.725   7.441   1.125
16011SOL    HW250041   4.614   7.464   1.225
16012SOL     OW50042   2.187   6.376   6.684
16012SOL    HW150043 -19.832 -37.856   6.683
16012SOL    HW250044   2.201   6.417   6.770
16013SOL     OW50045   8.704   3.629   9.050
16013SOL    HW150046   8.719   3.536   9.032
16013SOL    HW250047   8.710  -7.404   9.146
16014SOL     OW50048   1.232  11.005  11.029
16014SOL    HW150049   1.179  10.980  10.954
16014SOL    HW250050  12.345  11.054  10.992
16015SOL     OW50051  -0.241   7.333   4.668
16015SOL    HW150052  21.905  -3.654  15.665
16015SOL    HW250053  -0.262  18.420   4.749
16016SOL     OW50054   8.592   5.691  10.307
16016SOL    HW150055   8.672   5.729  10.344
16016SOL    HW250056  -2.427 -27.440  10.214
16017SOL     OW50057  -1.192   2.965  11.250
16017SOL    HW150058   9.781   2.954  11.181
16017SOL    HW250059   9.902   3.037 -10.860
16018SOL     OW50060   1.199   8.662   5.992
16018SOL    HW150061   1.168   8.695   6.077
16018SOL    HW250062  12.224  19.607   5.997
16019SOL     OW50063   5.754   5.229   8.888
16019SOL    HW150064   5.722   5.140   8.872
16019SOL    HW250065   5.840  -5.808  -2.194
16020SOL     OW50066   3.612   1.642  -1.131
16020SOL    HW150067   3.552  -9.337  -1.088
16020SOL    HW250068   3.565   1.613  20.870
16021SOL     OW50069   1.348   1.748  10.806
16021SOL    HW150070   1.393   1.688  -0.294
16021SOL    HW250071   1.270 -20.379  10.833
16022SOL     OW50072   5.755   9.822   9.040
16022SOL    HW150073 -16.401  -1.192 -13.089
16022SOL    HW250074  -5.232   9.902   9.044
16023SOL     OW50075   2.054  10.489   6.259
16023SOL    HW150076  13.032  10.511   6.329
16023SOL    HW250077   2.016  10.412   6.216
16024SOL     OW50078   1.161   6.517  10.654
16024SOL    HW150079  12.129  -4.587  10.653
16024SOL    HW250080   1.236 -15.610  10.687
16025SOL     OW50081   5.471   7.624   9.057
16025SOL    HW150082   5.519  -3.440 -12.944
16025SOL    HW250083   5.538  -3.397  31.071
16026SOL     OW50084   1.352   0.990   2.647
16026SOL    HW150085  23.348   1.004   2.692
16026SOL    HW250086   1.412  12.000  13.755
16027SOL     OW50087   1.111   1.153   9.475
16027SOL    HW150088  12.105  12.266   9.433
16027SOL    HW250089  -9.837   1.180 -23.639
16028SOL     OW50090   5.208   7.361   5.449
16028SOL    HW150091  -5.868   7.278   5.480
16028SOL    HW250092   5.214   7.414  16.568
16029SOL     OW50093   9.244   8.514   3.731
16029SOL    HW150094   9.330  -2.495   3.705
16029SOL    HW250095   9.255 -24.632   3.822
16030SOL     OW50096  -0.363   7.390   8.832
16030SOL    HW150097  10.651   7.468   8.880
16030SOL    HW250098  -0.418 -25.798 -13.213
16031SOL     OW50099  -0.409  10.417   2.507
16031SOL    HW150100  -0.415  10.449   2.597
16031SOL    HW250101  10.721  10.385   2.499
16032SOL     OW50102   4.231   0.559   1.524
16032SOL    HW150103  26.368   0.577  -9.442
16032SOL    HW250104  15.265   0.643   1.477
16033SOL     OW50105   8.382   6.694   9.776
16033SOL    HW150106  -2.746   6.703   9.812
16033SOL    HW250107   8.439 -15.387   9.852
16034SOL     OW50108  -0.816  10.046  11.603
16034SOL    HW150109  32.261  10.132  11.602
16034SOL    HW250110  -0.889   9.984   0.567
16035SOL     OW50111   8.591   6.044   5.418
16035SOL    HW150112 -13.484 -16.104  16.523
16035SOL    HW250113 -13.398   6.056   5.388
16036SOL     OW50114   3.027   0.984   5.350
16036SOL    HW150115   2.995   0.991   5.440
16036SOL    HW250116   3.080   0.904  -5.690
16037SOL     OW50117   5.555   2.664   1.042
16037SOL    HW150118  16.499 -19.407   1.049
16037SOL    HW250119   5.582  -8.411  23.206
16038SOL     OW50120   4.109   5.919   2.520
16038SOL    HW150121   4.124  28.032   2.432
16038SOL    HW250122   4.030  16.905  13.551
16039SOL     OW50123   4.295   9.177   7.469
16039SOL    HW150124 -39.941   9.226   7.494
16039SOL    HW250125   4.288  -1.945   7.518
16040SOL     OW50126   5.666   9.373   0.255
16040SOL    HW150127  16.764   9.304   0.288
16040SOL    HW250128   5.610  -1.646   0.329
16041SOL     OW50129   8.396   3.486   2.074
16041SOL    HW150130   8.350   3.403  35.184
16041SOL    HW250131   8.362   3.540  13.042
16042SOL     OW50132   9.362  -0.291   3.293
16042SOL    HW150133   9.318  10.668   3.320
16042SOL    HW250134  -1.729  -0.260 -29.900
16043SOL     OW50135   2.617   3.574   8.905
16043SOL    HW150136   2.545  -7.513   8.948
16043SOL    HW250137  13.723   3.583   8.973
16044SOL     OW50138   3.205   1.680   7.084
16044SOL    HW150139   3.163   1.759   7.050
16044SOL    HW250140   3.257 -20.432  18.050
16045SOL     OW50141   3.183   6.640   0.567
16045SOL    HW150142   3.200   6.685   0.484
16045SOL    HW250143   3.096   6.602   0.555
16046SOL     OW50144   7.532   3.945   8.039
16046SOL    HW150145 -25.494  -7.118   8.043
16046SOL    HW250146   7.512   3.946   7.945
16047SOL     OW50147   0.273  13.944   8.444
16047SOL    HW150148   0.366  -8.157   8.437
16047SOL    HW250149   0.253 -30.172   8.360
16048SOL     OW50150   9.768   2.184   3.419
16048SOL    HW150151  -1.247 -19.804   3.433
16048SOL    HW250152  20.839   2.139   3.498
16049SOL     OW50153   4.020   4.441   1.352
16049SOL    HW150154  -7.021   4.431   1.447
16049SOL    HW250155   3.975   4.363   1.319
16050SOL     OW50156   9.737   1.770   6.431
16050SOL    HW150157   9.703  12.816  17.560
16050SOL    HW250158   9.675  12.861   6.379
16051SOL     OW50159   2.491   1.097   7.956
16051SOL    HW150160  13.593   1.025 -14.123
16051SOL    HW250161  24.572  -9.909   7.866
16052SOL     OW50162   8.073   6.014   7.847
16052SOL    HW150163   8.083  16.999   7.769
16052SOL    HW250164   8.163   6.027   7.878
16053SOL     OW50165   7.736   6.086   4.883
16053SOL    HW150166   7.660   6.029   4.875
16053SOL    HW250167 -36.440   6.141  15.999
16054SOL     OW50168   9.773   6.798   4.466
16054SOL    HW150169  20.882  -4.262 -17.550
16054SOL    HW250170   9.709   6.728  -6.563
16055SOL     OW50171   5.474   3.349   1.032
16055SOL    HW150172   5.422   3.275  12.102
16055SOL    HW250173 -27.662   3.353   0.938
16056SOL     OW50174  10.730   2.750   4.359
16056SOL    HW150175  -0.315   2.836   4.402
16056SOL    HW250176  -0.297 -30.348   4.267
16057SOL     OW50177   5.062   7.558   2.669
16057SOL    HW150178   5.142  18.546   2.668
16057SOL    HW250179   5.088   7.642  13.746
16058SOL     OW50180   5.379   5.769   8.639
16058SOL    HW150181   5.409   5.685  -2.436
16058SOL    HW250182   5.285   5.758   8.652
16059SOL     OW50183  10.092   5.033   5.988
16059SOL    HW150184  10.149  -6.081   6.007
16059SOL    HW250185  -0.912 -28.049   5.907
16060SOL     OW50186  -0.962   8.100   4.636
16060SOL    HW150187  -0.877  19.138   4.681
16060SOL    HW250188  21.126   8.035   4.566
16061SOL     OW50189   2.207   5.657   1.503
16061SOL    HW150190   2.159 -38.419  -9.543
16061SOL    HW250191  24.233  -5.445   1.453
16062SOL     OW50192   9.280   0.081   5.677
16062SOL    HW150193   9.351   0.145   5.683
16062SOL    HW250194  -1.716  -0.001  38.771
16063SOL     OW50195   4.167   6.546   4.884
16063SOL    HW150196   4.164   6.633  15.962
16063SOL    HW250197   4.208  17.598   4.799
16064SOL     OW50198   5.232   2.584   0.023
16064SOL    HW150199  16.295  -8.467  -0.069
16064SOL    HW250200   5.166 -19.562  11.080
16065SOL     OW50201   0.283   5.717   0.533
16065SOL    HW150202   0.189   5.729   0.538
16065SOL    HW250203   0.294   5.625  22.589
16066SOL     OW50204   4.186   0.561   6.325
16066SOL    HW150205   4.246   0.632   6.344
16066SOL    HW250206  -6.818   0.520   6.246
16067SOL     OW50207   7.227   2.913   6.822
16067SOL    HW150208  -3.822 -30.276   6.886
16067SOL    HW250209   7.141   2.954  -4.222
16068SOL     OW50210   3.738   5.692  10.781
16068SOL    HW150211   3.668   5.719  10.721
16068SOL    HW250212   3.761   5.772  10.829
16069SOL     OW50213   4.287   8.468   8.531
16069SOL    HW150214   4.259   8.484   8.621
16069SOL    HW250215   4.206   8.448   8.483
16070SOL     OW50216   8.720   8.781   7.039
16070SOL    HW150217   8.662   8.821  -4.066
16070SOL    HW250218   8.665   8.716   7.083
16071SOL     OW50219   2.909   0.725   5.744
16071SOL    HW150220   2.899 -10.220 -38.402
16071SOL    HW250221   2.826   0.688   5.771
16072SOL     OW50222   5.193   5.874   4.595
16072SOL    HW150223  16.250   5.879  15.728
16072SOL    HW250224   5.279 -16.217  -6.485
16073SOL     OW50225   9.179   6.452   2.103
16073SOL    HW150226   9.134   6.489   2.028
16073SOL    HW250227   9.195   6.526   2.161
16074SOL     OW50228   5.098  -1.795   1.696
16074SOL    HW150229  27.229  20.349   1.646
16074SOL    HW250230  16.203   9.197   1.747
16075SOL     OW50231   5.963   3.015   3.924
16075SOL    HW150232   6.053   3.049   3.931
16075SOL    HW250233  16.947   3.090  -7.094
16076SOL     OW50234   9.215   1.379   4.972
16076SOL    HW150235   9.169  12.368   4.905
16076SOL    HW250236   9.148   1.399 -17.041
16077SOL     OW50237   3.760   6.745   4.718
16077SOL    HW150238  -7.253  -4.365   4.778
16077SOL    HW250239   3.666   6.733   4.708
16078SOL     OW50240  -0.202   9.310   8.015
16078SOL    HW150241  21.867   9.362   7.935
16078SOL    HW250242  10.908   9.353   8.063
16079SOL     OW50243  -2.084   7.040   2.996
16079SOL    HW150244   8.965   7.102  -7.971
16079SOL    HW250245  30.964   6.982  25.102
16080SOL     OW50246   8.193   8.422   7.810
16080SOL    HW150247 -13.800  -2.583   7.785
16080SOL    HW250248   8.212   8.345  18.903
16081SOL     OW50249   3.652  10.063  11.396
16081SOL    HW150250 -18.462   9.992  11.343
16081SOL    HW250251 -29.389  10.026   0.398
16082SOL     OW50252  12.306   7.152   6.973
16082SOL    HW150253  -9.846   7.118   7.026
16082SOL    HW250254   1.339  29.240  18.074
16083SOL     OW50255   8.522   4.799  10.971
16083SOL    HW150256   8.487  15.756  11.004
16083SOL    HW250257   8.566  26.854  10.889
16084SOL     OW50258   1.692   0.857   1.355
16084SOL    HW150259   1.744   0.933  23.459
16084SOL    HW250260   1.623   0.853  23.501
16085SOL     OW50261   5.178   4.072   8.435
16085SOL    HW150262   5.267  15.074   8.436
16085SOL    HW250263   5.190  26.241   8.463
16086SOL     OW50264   3.903   3.858   4.426
16086SOL    HW150265   3.950  -7.262  26.486
16086SOL    HW250266  -7.147   3.901   4.341
16087SOL     OW50267  10.776   0.867   7.155
16087SOL    HW150268  -0.287 -10.264 -48.061
16087SOL    HW250269  10.692   0.913   7.159
16088SOL     OW50270   8.204   7.999   6.233
16088SOL    HW150271   8.148   8.030  17.343
16088SOL    HW250272  19.222   7.906   6.224
16089SOL     OW50273   1.361   2.584   8.727
16089SOL    HW150274   1.411   2.665  41.852
16089SOL    HW250275   1.421   2.522   8.684
16090SOL     OW50276   1.801   9.383   1.976
16090SOL    HW150277   1.751  31.515  24.117
16090SOL    HW250278   1.738   9.317  24.025
16091SOL     OW50279   3.209   1.978   1.689
16091SOL    HW150280   3.214   1.966  12.824
16091SOL    HW250281  14.156   1.996   1.672
16092SOL     OW50282   5.432   2.613   4.847
16092SOL    HW150283  16.465  -8.386   4.934
16092SOL    HW250284   5.470   2.527   4.865
16093SOL     OW50285  -0.913   7.874   4.192
16093SOL    HW150286  -0.999  18.880  26.247
16093SOL    HW250287  21.166   7.965   4.160
16094SOL     OW50288   2.835   2.050  -0.956
16094SOL    HW150289   2.857  12.997  10.095
16094SOL    HW250290  13.896   2.090  10.168
16095SOL     OW50291   9.838   2.827   8.569
16095SOL    HW150292   9.756 -19.295   8.594
16095SOL    HW250293   9.901   2.801   8.636
16096SOL     OW50294   6.516   7.569   1.038
16096SOL    HW150295   6.495   7.476 -10.012
16096SOL    HW250296  28.574   7.588   1.129
16097SOL     OW50297   0.939   0.223   1.358
16097SOL    HW150298 -10.009   0.196   1.359
16097SOL    HW250299   0.923  11.289  -9.773
16098SOL     OW50300   8.807   8.623   3.400
16098SOL    HW150301   8.785 -13.390   3.335
16098SOL    HW250302   8.768   8.655   3.481
16099SOL     OW50303   5.463  -0.390   4.840
16099SOL    HW150304   5.453  10.736   4.880
16099SOL    HW250305   5.459  21.706   4.746
16100SOL     OW50306   3.152   9.916   3.548
16100SOL    HW150307   3.217   9.954  14.646
16100SOL    HW250308   3.193   9.920 -40.697
16101SOL     OW50309   6.743  10.754   5.665
16101SOL    HW150310   6.654  21.777   5.631
16101SOL    HW250311   6.776 -11.412   5.688
16102SOL     OW50312   9.254   0.985   4.873
16102SOL    HW150313  -1.781  12.054  -6.258
16102SOL    HW250314  -1.832   1.055 -39.240
16103SOL     OW50315   5.977   7.593   0.694
16103SOL    HW150316   5.938   7.512   0.664
16103SOL    HW250317   6.062   7.567   0.730
16104SOL     OW50318   7.387   2.426   1.314
16104SOL    HW150319   7.346  24.586   1.346
16104SOL    HW250320   7.474   2.426   1.354
16105SOL     OW50321   8.721   6.485   9.615
16105SOL    HW150322  19.737   6.396   9.639
16105SOL    HW250323   8.640 -26.596   9.581
16106SOL     OW50324   6.348  10.299   8.267
16106SOL    HW150325   6.361  10.281   8.174
16106SOL    HW250326  17.410  10.216   8.310
16107SOL     OW50327   5.906   7.794   9.338
16107SOL    HW150328   5.994   7.786   9.303
16107SOL    HW250329  16.956   7.834   9.424
16108SOL     OW50330   7.020  -1.214   1.015
16108SOL    HW150331   7.099  -1.162  23.108
16108SOL    HW250332   6.974  20.868  12.138
16109SOL     OW50333   0.046   3.446   1.496
16109SOL    HW150334  -0.016   3.414   1.430
16109SOL    HW250335   0.128   3.400   1.477
16110SOL     OW50336   6.099   7.021   0.876
16110SOL    HW150337  -4.964   6.948   0.818
16110SOL    HW250338   6.077  -4.050 -10.076
16111SOL     OW50339   9.201   6.123   9.596
16111SOL    HW150340   9.115 -26.957  20.617
16111SOL    HW250341   9.211   6.054   9.530
16112SOL     OW50342   5.063   0.085   0.611
16112SOL    HW150343  16.057   0.165   0.634
16112SOL    HW250344  16.033   0.025   0.582
16113SOL     OW50345   8.810  11.023  10.795
16113SOL    HW150346  19.775  10.979  -0.286
16113SOL    HW250347   8.782  11.037  10.885
16114SOL     OW50348   7.351   5.945   9.755
16114SOL    HW150349   7.432   5.970   9.799
16114SOL    HW250350  29.367   6.014   9.778
16115SOL     OW50351  11.697  11.877   4.493
16115SOL    HW150352 -10.330   0.808  -6.621
16115SOL    HW250353   0.643   0.931  15.517
16116SOL     OW50354   8.438   9.229  11.059
16116SOL    HW150355   8.387  20.283  11.139
16116SOL    HW250356   8.497   9.157 -10.998
16117SOL     OW50357   0.022   4.313   6.459
16117SOL    HW150358   0.088   4.364 -15.575
16117SOL    HW250359  -0.061   4.338   6.500
16118SOL     OW50360   3.376   9.332   5.907
16118SOL    HW150361   3.437   9.285   5.849
16118SOL    HW250362   3.319   9.380   5.848
16119SOL     OW50363   7.587   1.551   8.435
16119SOL    HW150364  -3.376   1.589   8.479
16119SOL    HW250365   7.615  34.657   8.345
16120SOL     OW50366   3.491   1.950   9.441
16120SOL    HW150367  -7.599   1.978   9.364
16120SOL    HW250368  -7.611   1.956  20.553
16121SOL     OW50369   0.774   6.311   2.409
16121SOL    HW150370   0.728   6.270   2.483
16121SOL    HW250371   0.750   6.257   2.333
16122SOL     OW50372   5.409   1.513   2.431
16122SOL    HW150373   5.356   1.586   2.399
16122SOL    HW250374   5.454   1.479   2.354
16123SOL     OW50375   1.689   1.705   6.459
16123SOL    HW150376   1.640   1.736   6.535
16123SOL    HW250377  23.700  12.723   6.395
16124SOL     OW50378   2.138   0.848   1.155
16124SOL    HW150379   2.208   0.782   1.158
16124SOL    HW250380   2.146 -10.154   1.067
16125SOL     OW50381   4.521   1.684   6.813
16125SOL    HW150382   4.454  12.775  -4.273
16125SOL    HW250383   4.602  12.773  28.879
16126SOL     OW50384   4.071   8.803   3.931
16126SOL    HW150385   4.091  41.954   3.844
16126SOL    HW250386   3.992   8.850  14.996
16127SOL     OW50387   2.257   6.886   3.522
16127SOL    HW150388   2.196   6.955   3.495
16127SOL    HW250389  13.302   6.828   3.446
16128SOL     OW50390   1.950   8.942   5.926
16128SOL    HW150391  -9.141   8.892   5.989
16128SOL    HW250392   1.886 -13.086   5.877
16129SOL     OW50393   1.884   2.778   4.150
16129SOL    HW150394   1.907   2.696 -17.884
16129SOL    HW250395   1.942   2.780   4.074
16130SOL     OW50396   8.145   7.375  10.179
16130SOL    HW150397   8.120  -3.720  10.253
16130SOL    HW250398  30.298   7.427  10.212
16131SOL     OW50399  10.324   6.308   7.004
16131SOL    HW150400  10.367   6.393   7.000
16131SOL    HW250401  10.369   6.261   7.075
16132SOL     OW50402   9.668   6.360   8.111
16132SOL    HW150403   9.694   6.287   8.055
16132SOL    HW250404  20.789   6.391   8.150
16133SOL     OW50405   8.454   5.902   1.851
16133SOL    HW150406  19.537   5.850   1.919
16133SOL    HW250407  30.513   5.985   1.894
16134SOL     OW50408   8.133   9.034   7.669
16134SOL    HW150409 -13.900   9.084  40.855
16134SOL    HW250410   8.190  19.999   7.652
16135SOL     OW50411  10.482   4.520   8.555
16135SOL    HW150412  10.458   4.458   8.624
16135SOL    HW250413  10.550   4.476   8.505
16136SOL     OW50414   5.012   0.628  11.334
16136SOL    HW150415   4.970   0.546  11.359
16136SOL    HW250416   5.008   0.682   0.374
16137SOL     OW50417   3.590   4.670   8.098
16137SOL    HW150418   3.506  -6.393   8.059
16137SOL    HW250419   3.580   4.762   8.122
16138SOL     OW50420   2.250   9.400  -1.653
16138SOL    HW150421   2.303   9.394  31.545
16138SOL    HW250422   2.302   9.455  -1.712
16139SOL     OW50423   8.203   4.565   7.814
16139SOL    HW150424  19.168 -17.463  29.863
16139SOL    HW250425  19.211   4.523   7.895
16140SOL     OW50426   5.872   3.042   8.977
16140SOL    HW150427  16.963   2.981   8.925
16140SOL    HW250428  -5.122   3.126   8.966
16141SOL     OW50429   5.279  13.982   2.528
16141SOL    HW150430   5.329 -30.178   2.446
16141SOL    HW250431  16.328  -8.007   2.559
16142SOL     OW50432  10.284   0.092   7.110
16142SOL    HW150433  10.333   0.027   7.160
16142SOL    HW250434  21.380   0.169 -14.971
16143SOL     OW50435   9.058   4.986   5.386
16143SOL    HW150436   9.020   4.942  16.350
16143SOL    HW250437  20.146   4.917   5.432
16144SOL     OW50438   4.811   3.764  10.201
16144SOL    HW150439  26.916   3.799  10.116
16144SOL    HW250440 -17.295   3.841  10.252
16145SOL     OW50441  12.227   1.548   1.673
16145SOL    HW150442 -20.854   1.633  -9.347
16145SOL    HW250443  12.281   1.486   1.723
16146SOL     OW50444   0.928   2.372   0.867
16146SOL    HW150445 -21.122   2.425  11.832
16146SOL    HW250446  23.088   2.342   0.908
16147SOL     OW50447   7.433   8.589   5.764
16147SOL    HW150448  18.426  -2.483   5.688
16147SOL    HW250449  18.479  30.763   5.751
16148SOL     OW50450  10.964   9.784   2.045
16148SOL    HW150451  10.996   9.705   2.089
16148SOL    HW250452   0.000   9.842   2.042
16149SOL     OW50453   6.167   4.946   1.237
16149SOL    HW150454  -4.950   4.895   1.215
16149SOL    HW250455   6.168   5.017  -9.867
16150SOL     OW50456   0.626   1.867   2.185
16150SOL    HW150457   0.581  -9.177  13.140
16150SOL    HW250458   0.719   1.861  13.202
16151SOL     OW50459   1.947   8.259   2.432
16151SOL    HW150460  13.060   8.250  13.411
16151SOL    HW250461   1.988   8.268  35.637
16152SOL     OW50462   9.652   2.006   5.163
16152SOL    HW150463   9.634   2.086  16.254
16152SOL    HW250464   9.570   1.989   5.117
16153SOL     OW50465   0.928  -1.109   9.537
16153SOL    HW150466   0.986  21.034   9.495
16153SOL    HW250467   0.948  -1.191   9.492
16154SOL     OW50468   3.841  10.375   1.216
16154SOL    HW150469   3.804  10.288   1.231
16154SOL    HW250470   3.854  10.411   1.304
16155SOL     OW50471   7.548   8.250   5.427
16155SOL    HW150472   7.458   8.264   5.455
16155SOL    HW250473  18.592  30.238   5.401
16156SOL     OW50474   4.132   1.423   9.799
16156SOL    HW150475  15.213  23.553   9.869
16156SOL    HW250476   4.203   1.405   9.737
16157SOL     OW50477   1.742   9.434   8.781
16157SOL    HW150478  23.831   9.368   8.713
16157SOL    HW250479   1.769  20.429   8.861
16158SOL     OW50480   6.593   3.888   7.507
16158SOL    HW150481  17.553   3.852  18.508
16158SOL    HW250482   6.612  -7.074  29.534
16159SOL     OW50483   0.762   3.437   6.487
16159SOL    HW150484 -10.309 -18.732   6.489
16159SOL    HW250485   0.723 -29.640   6.564
16160SOL     OW50486   3.605   5.150   1.828
16160SOL    HW150487   3.620   5.059  -9.187
16160SOL    HW250488   3.515   5.151   1.796
16161SOL     OW50489   6.519   2.590   8.432
16161SOL    HW150490  17.626   2.608   8.498
16161SOL    HW250491   6.438   2.585  30.561
16162SOL     OW50492   8.405   1.305   5.624
16162SOL    HW150493   8.396   1.365   5.698
16162SOL    HW250494   8.319 -20.814   5.615
16163SOL     OW50495   3.234   5.118   0.109
16163SOL    HW150496  14.362   5.102  11.116
16163SOL    HW250497   3.244   5.130   0.203
16164SOL     OW50498   1.049   8.555   4.894
16164SOL    HW150499  45.257  19.644  -6.211
16164SOL    HW250500  12.138   8.474  -6.134
16165SOL     OW50501   3.786   9.503   1.274
16165SOL    HW150502   3.701   9.474   1.242
16165SOL    HW250503  -7.190  -1.579   1.216
16166SOL     OW50504   4.513   9.141   8.125
16166SOL    HW150505  26.552   9.057   8.102
16166SOL    HW250506   4.527  31.264   8.041
16167SOL     OW50507   5.744   8.648   1.698
16167SOL    HW150508  16.826   8.733   1.707
16167SOL    HW250509  16.758   8.645   1.605
16168SOL     OW50510   4.864  -1.029   9.342
16168SOL    HW150511   4.788  -1.039   9.400
16168SOL    HW250512   4.841  21.001   9.263
16169SOL     OW50513   3.301   3.407   4.202
16169SOL    HW150514   3.211   3.439  -6.843
16169SOL    HW250515   3.346  -7.568  -6.784
16170SOL     OW50516   8.760   8.514   8.714
16170SOL    HW150517  30.861   8.493 -13.456
16170SOL    HW250518   8.820   8.586   8.736
16171SOL     OW50519   5.480  -0.519   5.069
16171SOL    HW150520  16.608  32.628   5.091
16171SOL    HW250521   5.470  -0.499  16.016
16172SOL     OW50522  10.027   1.848   3.618
16172SOL    HW150523  10.016   1.760 -29.465
16172SOL    HW250524  10.113  -9.193   3.576
16173SOL     OW50525   2.925   8.155   0.367
16173SOL    HW150526  -8.091  -2.970   0.331
16173SOL    HW250527   2.882   8.201   0.296
16174SOL     OW50528  -0.398   5.638   8.690
16174SOL    HW150529  43.690   5.592   8.735
16174SOL    HW250530  21.680   5.602  41.720
16175SOL     OW50531   9.800   5.441   0.818
16175SOL    HW150532   9.740   5.424  33.864
16175SOL    HW250533   9.744  27.548 -10.149
16176SOL     OW50534   7.763   6.597   2.667
16176SOL    HW150535   7.724   6.679   2.636
16176SOL    HW250536   7.688  17.584 -19.385
16177SOL     OW50537   1.656   7.275  -1.214
16177SOL    HW150538  -9.476   7.256   9.835
16177SOL    HW250539   1.690   7.279   9.915
16178SOL     OW50540   4.029   7.203   9.605
16178SOL    HW150541   4.002   7.291   9.631
16178SOL    HW250542 -40.150 -14.881  20.551
16179SOL     OW50543   3.661   5.640   3.185
16179SOL    HW150544   3.628  16.757  14.270
16179SOL    HW250545   3.733   5.608   3.239
16180SOL     OW50546   4.125  10.283   3.827
16180SOL    HW150547  -6.976  10.355   3.841
16180SOL    HW250548   4.075 -22.902   3.780
16181SOL     OW50549   2.268   3.849   4.574
16181SOL    HW150550   2.229   3.829   4.659
16181SOL    HW250551   2.194   3.878  -6.520
16182SOL     OW50552   1.708   9.904   0.808
16182SOL    HW150553  -9.378  -1.219   0.805
16182SOL    HW250554  12.835   9.885   0.774
16183SOL     OW50555  12.630   4.638   8.012
16183SOL    HW150556 -20.436   4.566   7.979
16183SOL    HW250557 -20.556   4.595   8.065
16184SOL     OW50558   8.482   9.040   7.123
16184SOL    HW150559   8.528   9.055  -3.834
16184SOL    HW250560  -2.557 -12.954   7.080
16185SOL     OW50561  -1.354   3.727   1.086
16185SOL    HW150562  31.854   3.719  12.092
16185SOL    HW250563  -1.405   3.666   1.033
16186SOL     OW50564   1.280   3.937  10.781
16186SOL    HW150565  -9.720 -18.058  10.804
16186SOL    HW250566   1.192   3.960  10.751
16187SOL     OW50567   8.907   4.073  11.040
16187SOL    HW150568   8.961   4.020  11.099
16187SOL    HW250569   8.879  -7.028  10.972
16188SOL     OW50570   4.710   4.071   0.235
16188SOL    HW150571   4.696   4.037   0.324
16188SOL    HW250572  15.714   4.160   0.238
16189SOL     OW50573   7.481   2.608  -0.926
16189SOL    HW150574   7.519   2.671  32.253
16189SOL    HW250575   7.528   2.622  -1.008
16190SOL     OW50576   3.749   5.306   2.993
16190SOL    HW150577  -7.359 -27.773  14.087
16190SOL    HW250578   3.788   5.238   3.048
16191SOL     OW50579   9.897   3.965   0.652
16191SOL    HW150580  20.876 -18.079 -10.453
16191SOL    HW250581   9.937   4.043   0.691
16192SOL     OW50582   2.368   3.140   9.512
16192SOL    HW150583   2.438   3.088   9.472
16192SOL    HW250584  13.351   3.075   9.553
16193SOL     OW50585   4.132   8.663   1.085
16193SOL    HW150586   4.184  19.706  12.044
16193SOL    HW250587   4.192   8.693 -20.925
16194SOL     OW50588   6.329   0.964   0.841
16194SOL    HW150589   6.315   0.871   0.823
16194SOL    HW250590   6.255   0.989   0.896
16195SOL     OW50591   0.136   1.484   1.823
16195SOL    HW150592   0.087   1.549   1.873
16195SOL    HW250593   0.222   1.480   1.866
16196SOL     OW50594   5.187   8.620   5.594
16196SOL    HW150595   5.236  -2.445  38.635
16196SOL    HW250596 -16.875   8.550  -5.383
16197SOL     OW50597   7.400   0.232   4.677
16197SOL    HW150598  18.379   0.168   4.640
16197SOL    HW250599  18.524   0.186  -6.360
16198SOL     OW50600   9.324   2.313   7.225
16198SOL    HW150601  -1.749  -8.694   7.141
16198SOL    HW250602  31.326  -8.757   7.272
16199SOL     OW50603   6.940   3.401   3.820
16199SOL    HW150604   6.902   3.318   3.850
16199SOL    HW250605   7.031  -7.661 -18.282
16200SOL     OW50606   2.849  10.839   1.321
16200SOL    HW150607  13.825  10.906   1.297
16200SOL    HW250608   2.934  10.878   1.298
16201SOL     OW50609   3.749   3.137  10.024
16201SOL    HW150610   3.843   3.125  10.041
16201SOL    HW250611   3.706   3.083  -0.949
16202SOL     OW50612   8.603   2.392   9.972
16202SOL    HW150613 -35.511   2.353  10.047
16202SOL    HW250614   8.510  -8.651   9.994
16203SOL     OW50615   0.788   2.541   1.073
16203SOL    HW150616   0.731  13.520   1.027
16203SOL    HW250617   0.826   2.596 -10.036
16204SOL     OW50618  -0.524   4.192   7.985
16204SOL    HW150619  -0.556   4.155   7.903
16204SOL    HW250620  10.580   4.257  18.998
16205SOL     OW50621   7.055   2.815   8.926
16205SOL    HW150622   7.115   2.742   8.942
16205SOL    HW250623   7.048   2.860   9.010
16206SOL     OW50624   2.419  10.570   6.174
16206SOL    HW150625   2.498  10.552   6.225
16206SOL    HW250626   2.371  -0.406  17.266
16207SOL     OW50627   9.836   5.660   0.404
16207SOL    HW150628 -12.186  27.704   0.336
16207SOL    HW250629  20.794   5.611   0.394
16208SOL     OW50630   2.011   3.298   1.449
16208SOL    HW150631  24.024   3.246   1.494
16208SOL    HW250632   1.969   3.382   1.432
16209SOL     OW50633   2.953  -1.516   8.504
16209SOL    HW150634   2.921  42.640 -13.485
16209SOL    HW250635   2.895  31.543   8.456
16210SOL     OW50636   7.864   9.162   6.751
16210SOL    HW150637  -3.109  -1.847  17.729
16210SOL    HW250638 -14.272 -23.880   6.765
16211SOL     OW50639   3.301   3.742   2.723
16211SOL    HW150640   3.337   3.763   2.809
16211SOL    HW250641  14.294   3.659   2.736
16212SOL     OW50642   0.405  -0.743  10.465
16212SOL    HW150643   0.423  21.387  10.544
16212SOL    HW250644  11.446  -0.678  10.394
16213SOL     OW50645   5.366   6.370   9.709
16213SOL    HW150646   5.447   6.403  -1.370
16213SOL    HW250647   5.323   6.448   9.744
16214SOL     OW50648   2.665   1.466   1.469
16214SOL    HW150649   2.649   1.501   1.557
16214SOL    HW250650   2.583   1.482   1.423
16215SOL     OW50651   9.010   9.284   9.103
16215SOL    HW150652   9.017   9.229  20.221
16215SOL    HW250653   8.950   9.354   9.129
16216SOL     OW50654   8.205   2.720   9.108
16216SOL    HW150655  30.196   2.725   9.143
16216SOL    HW250656   8.195  -8.363   9.022
16217SOL     OW50657   8.946  -0.455   2.703
16217SOL    HW150658   9.028  -0.409   2.684
16217SOL    HW250659   8.915  10.555  35.736
16218SOL     OW50660   7.514   4.866   0.868
16218SOL    HW150661  -3.474   4.910   0.801
16218SOL    HW250662   7.578   4.813   0.916
16219SOL     OW50663   1.760   8.913   0.587
16219SOL    HW150664  23.788  19.889  11.676
16219SOL    HW250665   1.698  31.063  11.607
16220SOL     OW50666   3.451   9.096   7.812
16220SOL    HW150667   3.448  -1.928   7.907
16220SOL    HW250668   3.396 -12.915   7.774
16221SOL     OW50669  11.787   0.196   8.266
16221SOL    HW150670 -10.276   0.217   8.358
16221SOL    HW250671  11.696   0.167   8.264
16222SOL     OW50672   5.534   8.197  -0.162
16222SOL    HW150673  27.581  19.226  21.828
16222SOL    HW250674  27.617  -2.932  -0.128
16223SOL     OW50675   0.917   1.574   1.544
16223SOL    HW150676 -10.040  23.623  34.699
16223SOL    HW250677   0.877   1.495  12.546
16224SOL     OW50678   0.795   9.420   9.080
16224SOL    HW150679   0.743   9.473   9.019
16224SOL    HW250680   0.882   9.416   9.040
16225SOL     OW50681  11.101   6.343   0.535
16225SOL    HW150682   0.052  61.620  11.628
16225SOL    HW250683   0.138   6.360 -10.559
16226SOL     OW50684   8.041   8.755   9.884
16226SOL    HW150685   8.013   8.819  20.859
16226SOL    HW250686   8.136   8.757   9.881
16227SOL     OW50687   2.310  -0.382   7.808
16227SOL    HW150688  24.403  10.666  52.060
16227SOL    HW250689   2.256  -0.460  18.839
16228SOL     OW50690   8.222  11.407  -2.018
16228SOL    HW150691   8.230  11.448  31.187
16228SOL    HW250692   8.216 -10.598  31.040
16229SOL     OW50693   4.415   4.633   4.675
16229SOL    HW150694   4.381   4.716   4.707
16229SOL    HW250695  -6.580  37.773  -6.447
16230SOL     OW50696   9.373   8.714   4.341
16230SOL    HW150697   9.320   8.682   4.414
16230SOL    HW250698   9.463   8.688   4.363
16231SOL     OW50699   4.018   7.059   7.761
16231SOL    HW150700   3.941   7.084   7.710
16231SOL    HW250701   3.998   6.970  18.831
16232SOL     OW50702   7.735   6.994   8.728
16232SOL    HW150703   7.805   7.033   8.675
16232SOL    HW250704  29.739   7.051   8.713
16233SOL     OW50705   7.521  -3.466   9.245
16233SOL    HW150706   7.442  73.790 -12.785
16233SOL    HW250707   7.560  -3.550   9.223
16234SOL     OW50708   3.086   8.504   1.453
16234SOL    HW150709   3.070   8.542   1.366
16234SOL    HW250710   2.998   8.492   1.490
16235SOL     OW50711   2.423   5.159   8.387
16235SOL    HW150712   2.476  -5.958   8.368
16235SOL    HW250713   2.373   5.174   8.307
16236SOL     OW50714   8.614   9.393   1.249
16236SOL    HW150715   8.647  20.512   1.290
16236SOL    HW250716   8.531   9.419   1.208
16237SOL     OW50717  10.783  -2.814   6.822
16237SOL    HW150718  10.857  30.256   6.858
16237SOL    HW250719  10.802  19.357  28.921
16238SOL     OW50720   7.091   8.126   7.803
16238SOL    HW150721  18.220   8.146  -3.264
16238SOL    HW250722  29.170   8.032   7.820
16239SOL     OW50723   0.196   8.735   5.308
16239SOL    HW150724   0.119   8.679   5.321
16239SOL    HW250725  22.334  19.750  16.419
16240SOL     OW50726   0.528   9.871   6.078
16240SOL    HW150727   0.535   9.929   6.153
16240SOL    HW250728   0.447  20.862   6.092
16241SOL     OW50729   8.721   9.083   1.670
16241SOL    HW150730   8.808  20.147  -9.339
16241SOL    HW250731   8.716   9.119   1.582
16242SOL     OW50732  11.573   4.644   8.990
16242SOL    HW150733  11.514   4.684  20.093
16242SOL    HW250734 -10.564   4.598   8.929
16243SOL     OW50735  -1.111   5.597   9.086
16243SOL    HW150736  -1.049   5.661   9.050
16243SOL    HW250737  20.893   5.650  31.192
16244SOL     OW50738   6.190   3.287   4.074
16244SOL    HW150739   6.271   3.337 -18.009
16244SOL    HW250740  -4.910  -7.697  -6.917
16245SOL     OW50741   7.924   2.768   4.878
16245SOL    HW150742   7.932   2.801   4.967
16245SOL    HW250743   7.865   2.693   4.886
16246SOL     OW50744   9.008  11.278  11.399
16246SOL    HW150745   8.933 -10.748  11.373
16246SOL    HW250746   9.005 -21.917 -10.738
16247SOL     OW50747   0.573   2.104   5.780
16247SOL    HW150748   0.636  13.201   5.737
16247SOL    HW250749   0.622   2.066  -5.186
16248SOL     OW50750   3.360   7.172   3.221
16248SOL    HW150751  -7.725   7.093 -18.831
16248SOL    HW250752   3.321   7.242   3.273
16249SOL     OW50753   4.395   1.772   7.978
16249SOL    HW150754  -6.635  23.946   7.965
16249SOL    HW250755   4.326  -9.276   8.043
16250SOL     OW50756   7.196   9.282   0.314
16250SOL    HW150757   7.261   9.232   0.264
16250SOL    HW250758  -3.922   9.282   0.259
16251SOL     OW50759   0.649   8.483   1.818
16251SOL    HW150760   0.634   8.531  -9.304
16251SOL    HW250761   0.675   8.395   1.790
16252SOL     OW50762   6.316   9.123  13.005
16252SOL    HW150763  28.449   9.147  -8.999
16252SOL    HW250764   6.379  20.145  -9.144
16253SOL     OW50765   5.336   5.500  10.726
16253SOL    HW150766  16.299   5.496  10.784
16253SOL    HW250767   5.312   5.445 -11.428
16254SOL     OW50768   4.028   5.883   5.215
16254SOL    HW150769   4.101   5.860  27.351
16254SOL    HW250770   3.952   5.884   5.273
16255SOL     OW50771   2.749   7.862  10.406
16255SOL    HW150772   2.773   7.859  10.498
16255SOL    HW250773   2.774  -3.090  10.377
16256SOL     OW50774   2.562   7.269   6.019
16256SOL    HW150775   2.541   7.180   5.991
16256SOL    HW250776  13.518   7.306   6.047
16257SOL     OW50777   3.825   0.817   6.605
16257SOL    HW150778   3.731   0.830   6.592
16257SOL    HW250779   3.861   0.812   6.517
16258SOL     OW50780   8.036  10.304   7.477
16258SOL    HW150781   7.942  21.362 -14.602
16258SOL    HW250782   8.066  10.337 -25.727
16259SOL     OW50783   8.241   7.981   5.923
16259SOL    HW150784 -13.833   7.975   6.018
16259SOL    HW250785 -24.940   8.051  39.025
16260SOL     OW50786   4.587   6.232   1.746
16260SOL    HW150787   4.632   6.256   1.827
16260SOL    HW250788  -6.501   6.153  23.848
16261SOL     OW50789   7.969   6.121   1.416
16261SOL    HW150790  18.964   6.038  34.548
16261SOL    HW250791   7.923   6.183   1.474
16262SOL     OW50792   7.555   1.055   4.345
16262SOL    HW150793   7.478   1.070   4.400
16262SOL    HW250794   7.567   0.960   4.345
16263SOL     OW50795   9.011   2.983   7.733
16263SOL    HW150796  -2.026   3.078  -3.316
16263SOL    HW250797   9.097  13.999 -14.311
16264SOL     OW50798   8.374   9.780   0.152
16264SOL    HW150799   8.407   9.801   0.239
16264SOL    HW250800   8.342   9.863   0.118
16265SOL     OW50801   8.462  10.590   7.233
16265SOL    HW150802   8.405  10.665   7.212
16265SOL    HW250803   8.545  10.630   7.260
16266SOL     OW50804   1.848   8.571   1.981
16266SOL    HW150805   1.883   8.560   2.070
16266SOL    HW250806   1.753  -2.465   1.993
16267SOL     OW50807   3.493   6.381   9.496
16267SOL    HW150808   3.567   6.440   9.507
16267SOL    HW250809   3.452  17.449   9.414
16268SOL     OW50810   2.803   4.686   8.281
16268SOL    HW150811  13.886   4.771   8.282
16268SOL    HW250812   2.874   4.622   8.278
16269SOL     OW50813   0.704   0.142   7.833
16269SOL    HW150814   0.728  11.235   7.909
16269SOL    HW250815   0.771   0.074   7.829
16270SOL     OW50816   8.725   4.336   4.760
16270SOL    HW150817 -13.426   4.400   4.765
16270SOL    HW250818   8.710   4.277   4.833
16271SOL     OW50819   7.287   1.728   2.196
16271SOL    HW150820   7.216   1.664   2.196
16271SOL    HW250821  29.323   1.812 -19.873
16272SOL     OW50822   9.405  11.277   7.487
16272SOL    HW150823   9.335 -21.777  -3.554
16272SOL    HW250824   9.404 -10.836   7.577
16273SOL     OW50825   2.851   8.128  10.321
16273SOL    HW150826   2.848   8.174  10.237
16273SOL    HW250827   2.778   8.165  21.410
16274SOL     OW50828   7.471   3.335  10.743
16274SOL    HW150829   7.516  -7.715  10.827
16274SOL    HW250830   7.400   3.271  10.745
16275SOL     OW50831   3.501   1.035  10.202
16275SOL    HW150832  -7.587  -9.947  10.261
16275SOL    HW250833 -29.637   0.947  10.234
16276SOL     OW50834   8.339   2.839   3.197
16276SOL    HW150835   8.289   2.759  -7.855
16276SOL    HW250836   8.320  13.905   3.287
16277SOL     OW50837   4.653  10.202   0.818
16277SOL    HW150838 -17.444  10.185   0.726
16277SOL    HW250839   4.606  10.132   0.865
16278SOL     OW50840   6.507   7.117   6.033
16278SOL    HW150841  -4.458   7.122 -27.026
16278SOL    HW250842   6.439   7.171 -27.044
16279SOL     OW50843   3.972   8.795   5.803
16279SOL    HW150844   3.925   8.847  16.908
16279SOL    HW250845 -18.016  -2.216   5.811
16280SOL     OW50846  10.298   2.918   5.436
16280SOL    HW150847 -11.832   2.849   5.478
16280SOL    HW250848  32.468  -8.150 -16.634
16281SOL     OW50849  10.593  10.088   9.734
16281SOL    HW150850  10.605  10.131   9.819
16281SOL    HW250851  10.632  10.149   9.671
16282SOL     OW50852   4.799   5.854   9.789
16282SOL    HW150853   4.785 -16.301   9.731
16282SOL    HW250854  15.929   5.880   9.773
16283SOL     OW50855   9.017   8.776   1.317
16283SOL    HW150856  20.104   8.698   1.288
16283SOL    HW250857   9.060   8.848   1.271
16284SOL     OW50858   6.950   8.897  10.490
16284SOL    HW150859  -4.186   8.899 -11.588
16284SOL    HW250860   6.974 -13.218  10.575
16285SOL     OW50861   1.430   7.728  10.228
16285SOL    HW150862   1.377   7.682  10.164
16285SOL    HW250863   1.520   7.705  10.206
16286SOL     OW50864   2.753   6.743   9.758
16286SOL    HW150865   2.822  17.810   9.698
16286SOL    HW250866  -8.336   6.677   9.710
16287SOL     OW50867   6.432  10.692   7.379
16287SOL    HW150868   6.411  10.785   7.384
16287SOL    HW250869   6.527  10.690  18.409
16288SOL     OW50870   0.865   9.925   1.772
16288SOL    HW150871   0.798   9.861   1.798
16288SOL    HW250872   0.898   9.893   1.688
16289SOL     OW50873   1.824   4.753   6.753
16289SOL    HW150874   1.820   4.678   6.812
16289SOL    HW250875   1.740   4.797   6.763
16290SOL     OW50876   1.634   4.244   5.988
16290SOL    HW150877   1.704   4.207   6.042
16290SOL    HW250878 -20.399 -17.787   5.920
16291SOL     OW50879   4.383   4.366   0.752
16291SOL    HW150880  -6.647   4.272   0.734
16291SOL    HW250881   4.472 -17.682  44.923
16292SOL     OW50882   0.179   1.101   3.814
16292SOL    HW150883   0.156   1.093  14.946
16292SOL    HW250884  11.231   1.011   3.783
16293SOL     OW50885   6.259   9.023   6.531
16293SOL    HW150886   6.274   8.949   6.590
16293SOL    HW250887  17.204  -2.003   6.533
16294SOL     OW50888   4.175   7.033   9.943
16294SOL    HW150889   4.147   7.120   9.971
16294SOL    HW250890   4.254  -3.991   9.892
16295SOL     OW50891   7.597   8.586  10.469
16295SOL    HW150892  -3.481 -13.529  10.549
16295SOL    HW250893   7.523  19.663  10.421
16296SOL     OW50894   4.902   5.912   8.509
16296SOL    HW150895   4.902  16.858   8.489
16296SOL    HW250896   4.976   5.923   8.570
16297SOL     OW50897   2.258   1.904   7.036
16297SOL    HW150898   2.181 -20.128  18.046
16297SOL    HW250899   2.262   1.826  18.019
16298SOL     OW50900   4.540   4.606  10.629
16298SOL    HW150901   4.611   4.595  10.567
16298SOL    HW250902   4.474   4.656 -11.498
16299SOL     OW50903   1.307   0.069  -2.559
16299SOL    HW150904   1.373   0.128   8.444
16299SOL    HW250905  12.263  22.187  41.572
16300SOL     OW50906   8.881   5.647   8.696
16300SOL    HW150907   8.861   5.653   8.789
16300SOL    HW250908   8.912   5.558   8.684
16301SOL     OW50909   2.080   3.785   2.641
16301SOL    HW150910   2.100   3.738   2.722
16301SOL    HW250911   2.059  -7.324   2.578
16302SOL     OW50912   8.801   0.548   2.002
16302SOL    HW150913 -24.238   0.505  -9.006
16302SOL    HW250914   8.765   0.487   1.937
16303SOL     OW50915   4.210  12.032   7.518
16303SOL    HW150916   4.161  12.059   7.441
16303SOL    HW250917  -6.802  -9.966   7.560
16304SOL     OW50918  10.107   5.979  -0.693
16304SOL    HW150919  10.133  -5.040  21.475
16304SOL    HW250920  10.171  -5.126  -0.722
16305SOL     OW50921   8.322  10.660   8.397
16305SOL    HW150922 -35.887  10.582  52.534
16305SOL    HW250923   8.282  10.730   8.345
16306SOL     OW50924   7.671   3.779   7.026
16306SOL    HW150925   7.760   3.765   7.057
16306SOL    HW250926 -14.399   3.841   6.954
16307SOL     OW50927   4.949   3.048   2.085
16307SOL    HW150928  15.918   3.037   2.021
16307SOL    HW250929   4.980   2.960  35.222
16308SOL     OW50930   5.046   9.757   9.202
16308SOL    HW150931   4.958   9.722   9.192
16308SOL    HW250932   5.056   9.818   9.129
16309SOL     OW50933  10.179   9.169  10.972
16309SOL    HW150934  -0.779   9.182  11.019
16309SOL    HW250935  -0.853   9.227  10.895
16310SOL     OW50936   7.303  10.478   1.364
16310SOL    HW150937   7.376  10.510   1.417
16310SOL    HW250938   7.245  10.554   1.355
16311SOL     OW50939   3.940   9.683   8.998
16311SOL    HW150940  14.908   9.701   9.060
16311SOL    HW250941  37.067   9.763   8.947
16312SOL     OW50942   2.251   9.504   9.758
16312SOL    HW150943   2.306   9.441   9.712
16312SOL    HW250944   2.283   9.590   9.729
16313SOL     OW50945   5.617   8.034  10.380
16313SOL    HW150946   5.654  19.026  10.453
16313SOL    HW250947   5.542   8.081  10.417
16314SOL     OW50948   1.648   6.260   8.125
16314SOL    HW150949   1.632   6.173  -2.879
16314SOL    HW250950   1.573  28.391 -24.966
16315SOL     OW50951   2.567  10.137   6.777
16315SOL    HW150952   2.616  -0.873   6.853
16315SOL    HW250953  35.629  32.146  -4.230
16316SOL     OW50954   1.544  10.228   7.927
16316SOL    HW150955   1.595  10.253  19.045
16316SOL    HW250956   1.606  10.177   7.875
16317SOL     OW50957   0.074   3.777   1.785
16317SOL    HW150958   0.120   3.724  12.890
16317SOL    HW250959   0.045   3.854   1.833
16318SOL     OW50960   3.924   9.789   3.225
16318SOL    HW150961   3.855  -1.247  14.331
16318SOL    HW250962 -18.097  -1.322   3.255
16319SOL     OW50963   8.341  10.957  11.209
16319SOL    HW150964  19.316 -11.110   0.238
16319SOL    HW250965   8.341  -0.000   0.120
16320SOL     OW50966  -0.637   1.456  -0.244
16320SOL    HW150967  21.516  12.435  10.793
16320SOL    HW250968  10.421   1.520  -0.313
16321SOL     OW50969   0.253   8.619   4.275
16321SOL    HW150970   0.262  -2.450  -6.856
16321SOL    HW250971  22.361  -2.329  26.352
16322SOL     OW50972   0.981   8.902   1.048
16322SOL    HW150973   0.966  19.877   0.978
16322SOL    HW250974  -9.987  19.904   1.100
16323SOL     OW50975   4.868   3.395   0.421
16323SOL    HW150976   4.803   3.391  11.531
16323SOL    HW250977   4.952   3.388   0.467
16324SOL     OW50978   9.729   8.829   9.016
16324SOL    HW150979   9.786   8.904   9.000
16324SOL    HW250980  -1.374   8.860  31.159
16325SOL     OW50981  -0.300  10.952   4.072
16325SOL    HW150982  10.807  10.963   4.005
16325SOL    HW250983  21.717  10.890   4.034
16326SOL     OW50984   2.432  10.432   2.857
16326SOL    HW150985  -8.515  -0.609   2.878
16326SOL    HW250986   2.388  -0.607   2.942
16327SOL     OW50987   3.904   0.353   4.768
16327SOL    HW150988  -7.213  22.477   4.735
16327SOL    HW250989  -7.146 -21.816 -17.341
16328SOL     OW50990  -0.182  10.109  10.547
16328SOL    HW150991  10.835  10.105 -11.439
16328SOL    HW250992  -0.258  10.074  21.542
16329SOL     OW50993   7.978   3.373   1.672
16329SOL    HW150994   7.952   3.313   1.742
16329SOL    HW250995  18.970  -7.697   1.595
16330SOL     OW50996   7.188   0.488   9.161
16330SOL    HW150997  18.284   0.493   9.083
16330SOL    HW250998   7.132   0.413   9.145
16331SOL     OW50999   1.835   5.729   3.218
16331SOL    HW151000   1.903   5.765   3.160
16331SOL    HW251001 -20.326   5.756   3.177
16332SOL     OW51002   5.356   1.491   4.861
16332SOL    HW151003   5.378  -9.580   4.949
16332SOL    HW251004  16.339   1.423   4.825
16333SOL     OW51005   3.389   9.974   1.132
16333SOL    HW151006  -7.710   9.977   1.057
16333SOL    HW251007   3.354 -12.174   1.188
16334SOL     OW51008   9.642   3.967   8.226
16334SOL    HW151009   9.658   3.981   8.132
16334SOL    HW251010  -1.369   4.048   8.267
16335SOL     OW51011   7.379  11.736   4.483
16335SOL    HW151012  18.420 -10.312   4.574
16335SOL    HW251013  29.539  11.772  15.484
16336SOL     OW51014   3.089   3.758   4.007
16336SOL    HW151015  36.226   3.801   3.924
16336SOL    HW251016   3.163   3.781  -6.976
16337SOL     OW51017  -1.184   0.760   5.363
16337SOL    HW151018  -1.090   0.776   5.361
16337SOL    HW251019  20.856   0.846  38.499
16338SOL     OW51020   5.792  -0.317   2.327
16338SOL    HW151021   5.844  -0.378  -8.765
16338SOL    HW251022   5.704  21.757  13.329
16339SOL     OW51023   5.852   2.580   1.870
16339SOL    HW151024  16.864   2.592  13.000
16339SOL    HW251025  -5.093   2.597  23.950
16340SOL     OW51026  10.876   1.092   8.263
16340SOL    HW151027  10.956  -9.900   8.241
16340SOL    HW251028  10.906  23.086  19.335
16341SOL     OW51029   2.379   4.671   4.486
16341SOL    HW151030   2.288   4.700  15.526
16341SOL    HW251031  13.450   4.694  26.478
16342SOL     OW51032   1.921   8.099   6.548
16342SOL    HW151033   1.950   8.185  -4.519
16342SOL    HW251034   1.982   8.038   6.507
16343SOL     OW51035   5.419  10.012   8.507
16343SOL    HW151036   5.432  10.080   8.573
16343SOL    HW251037   5.489 -12.052   8.443
16344SOL     OW51038  10.987   7.632   5.219
16344SOL    HW151039  10.950   7.720  38.337
16344SOL    HW251040  11.032  18.664  27.214
16345SOL     OW51041   3.050   7.144   5.686
16345SOL    HW151042  14.108   7.073  -5.415
16345SOL    HW251043   3.016  -3.939   5.764
16346SOL     OW51044   6.790   2.755   3.688
16346SOL    HW151045   6.817   2.679   3.637
16346SOL    HW251046   6.825  -8.210   3.640
16347SOL     OW51047   9.420   0.729   0.946
16347SOL    HW151048   9.395   0.651   0.897
16347SOL    HW251049   9.418   0.701   1.038
16348SOL     OW51050   8.946   7.612   5.787
16348SOL    HW151051   8.963   7.679   5.853
16348SOL    HW251052  -2.050   7.644   5.708
16349SOL     OW51053  12.219  -0.051   3.000
16349SOL    HW151054  -9.887  10.985   2.908
16349SOL    HW251055  -9.848   0.042  14.057
16350SOL     OW51056   6.992   7.206   9.139
16350SOL    HW151057  -4.061   7.201   9.234
16350SOL    HW251058   7.076   7.163   9.125
16351SOL     OW51059   3.006   5.466   5.094
16351SOL    HW151060  14.041   5.526  38.287
16351SOL    HW251061  25.156  16.445   5.116
16352SOL     OW51062   2.873   0.348   5.578
16352SOL    HW151063   2.802   0.398   5.537
16352SOL    HW251064   2.854   0.257  49.716
16353SOL     OW51065   7.477   7.202   0.778
16353SOL    HW151066  18.493   7.283 -10.218
16353SOL    HW251067  40.554   7.207   0.692
16354SOL     OW51068   5.667   5.596   2.116
16354SOL    HW151069  -5.337  -5.362  -8.888
16354SOL    HW251070  -5.435   5.566  -8.858
16355SOL     OW51071   0.948   4.448   1.867
16355SOL    HW151072   0.953   4.462  13.001
16355SOL    HW251073  23.056  -6.682  46.012
16356SOL     OW51074   2.188   0.504  11.417
16356SOL    HW151075   2.265   0.517   0.323
16356SOL    HW251076   2.117   0.485  11.355
16357SOL     OW51077   3.224  10.681   0.940
16357SOL    HW151078  14.257  10.657   0.847
16357SOL    HW251079   3.318  -0.351   0.956
16358SOL     OW51080  -0.544   0.363   0.109
16358SOL    HW151081  10.528  22.423   0.021
16358SOL    HW251082  21.550   0.457   0.120
16359SOL     OW51083  10.296   7.364   7.552
16359SOL    HW151084  -0.761   7.447   7.596
16359SOL    HW251085 -22.732   7.345   7.573
16360SOL     OW51086   4.234   5.530   0.294
16360SOL    HW151087 -28.810   5.590   0.300
16360SOL    HW251088   4.159   5.586   0.275
16361SOL     OW51089   3.586   1.671   3.069
16361SOL    HW151090  25.582  23.791   3.044
16361SOL    HW251091  25.698   1.726  14.179
16362SOL     OW51092   2.191   2.480   2.795
16362SOL    HW151093   2.206   2.409  35.977
16362SOL    HW251094  13.147   2.518   2.821
16363SOL     OW51095   3.534   9.222   0.538
16363SOL    HW151096   3.591   9.273   0.596
16363SOL    HW251097   3.462   9.193   0.595
16364SOL     OW51098   6.865   3.877   6.407
16364SOL    HW151099   6.784   3.881   6.458
16364SOL    HW251100   6.926   3.932   6.455
16365SOL     OW51101   5.298   8.793   4.609
16365SOL    HW151102  -5.666  -2.206   4.652
16365SOL    HW251103   5.232   8.863   4.608
16366SOL     OW51104   8.913   6.051   1.536
16366SOL    HW151105   8.879  28.100  12.660
16366SOL    HW251106   8.935   5.971  12.529
16367SOL     OW51107   7.508   1.240   8.342
16367SOL    HW151108  18.595   1.161   8.319
16367SOL    HW251109   7.529   1.303  -2.766
16368SOL     OW51110   6.789   3.851   4.137
16368SOL    HW151111  17.830   3.904   4.058
16368SOL    HW251112  17.851   3.763  -6.931
16369SOL     OW51113   4.883   6.865   0.184
16369SOL    HW151114   4.790   6.885   0.188
16369SOL    HW251115  26.992   6.905   0.102
16370SOL     OW51116   1.843   3.571   6.910
16370SOL    HW151117  12.855  -7.413   6.837
16370SOL    HW251118   1.864   3.487 -26.249
16371SOL     OW51119   0.038   8.734   1.750
16371SOL    HW151120   0.085   8.731  -9.207
16371SOL    HW251121   0.054  -2.217   1.716
16372SOL     OW51122   6.094   7.373   3.973
16372SOL    HW151123   6.062  40.565   3.921
16372SOL    HW251124   6.130   7.312  14.948
16373SOL     OW51125   3.700   9.947   2.159
16373SOL    HW151126   3.700   9.852   2.169
16373SOL    HW251127   3.789  21.013   2.184
16374SOL     OW51128   4.571   0.242  10.112
16374SOL    HW151129  -6.403  22.285  -0.869
16374SOL    HW251130 -17.460  22.381  10.055
16375SOL     OW51131   9.056   1.087   0.834
16375SOL    HW151132  20.044  12.188  11.927
16375SOL    HW251133  -1.948  12.064   0.897
16376SOL     OW51134   3.800   4.378   4.847
16376SOL    HW151135   3.803  -6.566   4.842
16376SOL    HW251136   3.887   4.350   4.821
16377SOL     OW51137   2.502  10.643   5.095
16377SOL    HW151138   2.444  10.599  -6.008
16377SOL    HW251139   2.494  10.591   5.175
16378SOL     OW51140  -0.144   7.881   6.112
16378SOL    HW151141  10.897  18.862  -5.004
16378SOL    HW251142  10.971  18.978  17.138
16379SOL     OW51143  -2.927   4.699   3.611
16379SOL    HW151144  19.163   4.788   3.579
16379SOL    HW251145  30.267  26.731   3.575
16380SOL     OW51146   1.748   9.394   3.598
16380SOL    HW151147  12.873   9.436   3.593
16380SOL    HW251148   1.761   9.320  -7.382
16381SOL     OW51149   9.105  10.411   0.188
16381SOL    HW151150   9.076  10.463   0.263
16381SOL    HW251151   9.061  10.327   0.199
16382SOL     OW51152   2.685   0.786   1.498
16382SOL    HW151153   2.631  11.788   1.430
16382SOL    HW251154   2.685  22.800   1.568
16383SOL     OW51155   7.285   8.493   5.246
16383SOL    HW151156   7.348   8.462   5.181
16383SOL    HW251157   7.213   8.430   5.241
16384SOL     OW51158   2.764   4.745   0.125
16384SOL    HW151159   2.760   4.679   0.056
16384SOL    HW251160   2.852   4.782   0.117
16385SOL     OW51161   1.999  11.015   9.980
16385SOL    HW151162   2.050  10.968   9.914
16385SOL    HW251163   2.006  -0.078  10.059
16386SOL     OW51164   9.009   3.363   1.821
16386SOL    HW151165   9.075 -18.757   1.765
16386SOL    HW251166   9.058  25.478   1.895
16387SOL     OW51167  -0.154   6.470  10.340
16387SOL    HW151168  10.815   6.520  10.300
16387SOL    HW251169  -0.075   6.522  10.325
16388SOL     OW51170   8.349   5.727   5.371
16388SOL    HW151171   8.331  16.854  -5.635
16388SOL    HW251172   8.360  27.818   5.276
16389SOL     OW51173   9.185  12.183  10.687
16389SOL    HW151174   9.232  12.100  10.698
16389SOL    HW251175  31.314  -9.848  -0.418
16390SOL     OW51176   5.985   6.601  10.337
16390SOL    HW151177  28.105   6.533  10.390
16390SOL    HW251178 -16.132  17.701  10.401
16391SOL     OW51179   5.294   8.251   9.293
16391SOL    HW151180   5.203   8.271   9.315
16391SOL    HW251181   5.295   8.156  20.321
16392SOL     OW51182   0.019  -0.413   6.269
16392SOL    HW151183  -0.002  10.554   6.327
16392SOL    HW251184   0.098  -0.374   6.306
16393SOL     OW51185   9.328   8.874   5.417
16393SOL    HW151186 -12.724  30.946  27.404
16393SOL    HW251187  -1.720  20.008  -5.607
16394SOL     OW51188   7.799  10.531   7.964
16394SOL    HW151189   7.808  10.495   7.876
16394SOL    HW251190   7.730  10.596   7.957
16395SOL     OW51191   9.791   3.142  10.401
16395SOL    HW151192   9.775   3.232  10.429
16395SOL    HW251193   9.871   3.116  10.448
16396SOL     OW51194   2.495   8.565   3.942
16396SOL    HW151195   2.415  19.627  37.014
16396SOL    HW251196  -8.532  19.676   4.004
16397SOL     OW51197   9.460   2.770   6.025
16397SOL    HW151198   9.536   2.729  17.105
16397SOL    HW251199   9.399  -8.254   6.097
16398SOL     OW51200   1.350  10.785   1.379
16398SOL    HW151201  12.353  10.702   1.347
16398SOL    HW251202   1.296 -11.227   1.337
16399SOL     OW51203   4.199   2.139   9.790
16399SOL    HW151204  -6.928  -8.934   9.770
16399SOL    HW251205   4.243   2.144 -12.374
16400SOL     OW51206  -0.153   1.048   4.746
16400SOL    HW151207  10.811   1.092  26.788
16400SOL    HW251208  -0.185   1.008   4.827
16401SOL     OW51209   7.642   8.602  -1.140
16401SOL    HW151210   7.686  -2.404  21.017
16401SOL    HW251211   7.712  41.685  -1.194
16402SOL     OW51212   6.175  -1.484   4.152
16402SOL    HW151213   6.200  42.619   4.226
16402SOL    HW251214   6.086   9.583  -6.868
16403SOL     OW51215   4.671   3.301   7.183
16403SOL    HW151216  15.770   3.266   7.249
16403SOL    HW251217   4.596  14.282  18.224
16404SOL     OW51218   6.995   8.089   6.322
16404SOL    HW151219   6.988   8.092  17.266
16404SOL    HW251220   6.987  19.035   6.343
16405SOL     OW51221   7.523  -0.528   7.660
16405SOL    HW151222  -3.499  10.418   7.647
16405SOL    HW251223   7.434  -0.525  29.774
16406SOL     OW51224   8.421   1.226   4.997
16406SOL    HW151225   8.360  -9.879   5.031
16406SOL    HW251226   8.505   1.206   5.039
16407SOL     OW51227   8.574   1.390   3.051
16407SOL    HW151228   8.631   1.455  -7.948
16407SOL    HW251229  -2.460   1.314  47.266
16408SOL     OW51230   6.252   7.743   6.036
16408SOL    HW151231   6.194   7.674   6.001
16408SOL    HW251232  17.353   7.696   6.091
16409SOL     OW51233  11.244   5.090   1.358
16409SOL    HW151234 -43.935   5.075   1.451
16409SOL    HW251235  11.204   5.008   1.328
16410SOL     OW51236  11.116  10.156   4.365
16410SOL    HW151237   0.020  10.228   4.337
16410SOL    HW251238  11.055  21.124   4.387
16411SOL     OW51239   0.878   3.167   8.385
16411SOL    HW151240   0.961   3.164   8.338
16411SOL    HW251241  11.890   3.259   8.380
16412SOL     OW51242   6.087   6.003  10.177
16412SOL    HW151243   6.099  17.028  -0.768
16412SOL    HW251244   6.020   5.940  10.151
16413SOL     OW51245   3.622   5.119   6.909
16413SOL    HW151246   3.556   5.189  -4.129
16413SOL    HW251247  -7.432   5.075   6.826
16414SOL     OW51248   4.423   8.606  10.106
16414SOL    HW151249  15.522   8.619  -0.860
16414SOL    HW251250  15.515   8.628  10.029
16415SOL     OW51251   4.262   0.387   9.491
16415SOL    HW151252   4.354  11.400   9.490
16415SOL    HW251253   4.230  11.401  -1.462
16416SOL     OW51254   4.000   9.171   3.701
16416SOL    HW151255   3.918  -1.830   3.670
16416SOL    HW251256   4.067 -12.871   3.643
16417SOL     OW51257  10.401   0.571   5.487
16417SOL    HW151258  10.374   0.483   5.514
16417SOL    HW251259  10.419   0.616  16.608
16418SOL     OW51260   2.534   6.940   5.614
16418SOL    HW151261  -8.412   6.925   5.600
16418SOL    HW251262   2.510   7.006   5.549
16419SOL     OW51263   7.271   2.755   0.873
16419SOL    HW151264   7.177   2.777   0.877
16419SOL    HW251265   7.315  -8.200   0.880
16420SOL     OW51266   5.496   2.518   2.262
16420SOL    HW151267  -5.556   2.424 -19.804
16420SOL    HW251268  16.574   2.549   2.344
16421SOL     OW51269   5.429   3.643   5.197
16421SOL    HW151270   5.521   3.657  -5.866
16421SOL    HW251271  16.441  36.846   5.234
16422SOL     OW51272   8.402  10.611   4.387
16422SOL    HW151273   8.445  10.590   4.469
16422SOL    HW251274   8.473  10.623   4.324
16423SOL     OW51275   2.727  10.553   2.980
16423SOL    HW151276   2.788 -22.624   2.936
16423SOL    HW251277   2.705  10.619 -19.164
16424SOL     OW51278   9.992  11.152   3.944
16424SOL    HW151279  10.011  11.150 -18.229
16424SOL    HW251280 -23.222 -10.939   3.949
16425SOL     OW51281   6.983   4.739   9.103
16425SOL    HW151282  -4.132  26.877  20.142
16425SOL    HW251283   7.058   4.796   9.120
16426SOL     OW51284  10.392   6.754   3.811
16426SOL    HW151285  10.415   6.736   3.720
16426SOL    HW251286  10.407   6.848  14.861
16427SOL     OW51287   7.510   1.271   9.767
16427SOL    HW151288  -3.593   1.337  20.779
16427SOL    HW251289   7.572   1.265   9.694
16428SOL     OW51290   7.923   1.202   5.468
16428SOL    HW151291   7.915  12.147 -16.627
16428SOL    HW251292   7.837  12.267   5.503
16429SOL     OW51293   4.930   5.902   3.137
16429SOL    HW151294   4.974   5.840   3.196
16429SOL    HW251295   4.938   5.862   3.050
16430SOL     OW51296   5.428   2.231   5.816
16430SOL    HW151297   5.358   2.172  -5.254
16430SOL    HW251298   5.408  -8.796   5.909
16431SOL     OW51299   5.417   0.830   3.342
16431SOL    HW151300   5.480   0.809  -7.766
16431SOL    HW251301   5.445   0.780  -7.621
16432SOL     OW51302   0.760   8.755   4.875
16432SOL    HW151303   0.681   8.758  -6.110
16432SOL    HW251304  22.856   8.662   4.862
16433SOL     OW51305   9.279   1.337   3.537
16433SOL    HW151306   9.195   1.317   3.580
16433SOL    HW251307   9.311   1.252   3.507
16434SOL     OW51308   7.751   0.081   0.014
16434SOL    HW151309   7.816  33.187  -0.054
16434SOL    HW251310   7.768   0.012   0.078
16435SOL     OW51311   4.622   5.756   5.337
16435SOL    HW151312  15.592  38.898   5.276
16435SOL    HW251313  15.740   5.750   5.282
16436SOL     OW51314   1.058   2.461   6.284
16436SOL    HW151315   1.120   2.422   6.345
16436SOL    HW251316   1.093   2.441  28.277
16437SOL     OW51317   9.851  11.576   7.206
16437SOL    HW151318   9.823 -21.569 -25.825
16437SOL    HW251319  -1.268  11.570  18.192
16438SOL     OW51320   7.770   9.941   3.265
16438SOL    HW151321 -14.314  10.036 -18.809
16438SOL    HW251322  -3.339   9.916   3.204
16439SOL     OW51323   8.983   7.952   3.198
16439SOL    HW151324  20.006   7.953   3.293
16439SOL    HW251325   8.910   7.904   3.161
16440SOL     OW51326   5.542  12.422   9.771
16440SOL    HW151327   5.485   1.456   9.751
16440SOL    HW251328   5.487  -9.719   9.818
16441SOL     OW51329  10.000   3.147   6.553
16441SOL    HW151330  21.129   3.116  -4.476
16441SOL    HW251331   9.947  -7.972   6.556
16442SOL     OW51332   1.817   9.554   3.056
16442SOL    HW151333   1.893   9.496   3.064
16442SOL    HW251334   1.827  -1.423   3.128
16443SOL     OW51335   8.741   7.814  10.362
16443SOL    HW151336   8.767   7.774  21.485
16443SOL    HW251337   8.821   7.809  10.308
16444SOL     OW51338   2.686   1.874   0.002
16444SOL    HW151339   2.600   1.841  11.016
16444SOL    HW251340  24.763  13.007  11.018
16445SOL     OW51341   5.390   3.813   9.136
16445SOL    HW151342   5.302   3.843   9.159
16445SOL    HW251343   5.427   3.782  20.258
16446SOL     OW51344   4.312   5.660   5.227
16446SOL    HW151345  26.391   5.626   5.316
16446SOL    HW251346   4.386   5.618  27.263
16447SOL     OW51347   2.715   7.719   3.487
16447SOL    HW151348   2.681   7.782   3.550
16447SOL    HW251349   2.705   7.634  14.569
16448SOL     OW51350   3.369  -0.590   3.810
16448SOL    HW151351   3.330  -0.574   3.724
16448SOL    HW251352   3.321  21.413   3.844
16449SOL     OW51353   2.413   1.277   4.767
16449SOL    HW151354   2.506   1.293  15.820
16449SOL    HW251355   2.406   1.182   4.759
16450SOL     OW51356   2.429   6.010   3.110
16450SOL    HW151357   2.461   6.042   3.195
16450SOL    HW251358   2.333   6.012   3.118
16451SOL     OW51359   0.856  10.500   8.057
16451SOL    HW151360   0.901  10.572   8.012
16451SOL    HW251361   0.797  10.544  19.158
16452SOL     OW51362   3.163   8.286   5.352
16452SOL    HW151363   3.216  -2.728  -5.763
16452SOL    HW251364   3.166   8.363   5.410
16453SOL     OW51365   9.032   7.691   9.576
16453SOL    HW151366   8.963   7.746  20.579
16453SOL    HW251367   9.069  29.822   9.648
16454SOL     OW51368   0.170   3.598   1.077
16454SOL    HW151369   0.165   3.688   1.043
16454SOL    HW251370   0.234  14.643  -9.892
16455SOL     OW51371   5.971   9.530   5.313
16455SOL    HW151372   6.017   9.613  27.386
16455SOL    HW251373  -5.088   9.519   5.406
16456SOL     OW51374   5.345   5.407   1.397
16456SOL    HW151375   5.268  16.481   1.352
16456SOL    HW251376  -5.673  27.553  12.502
16457SOL     OW51377   3.257   4.276  10.123
16457SOL    HW151378 -18.886  26.422  10.149
16457SOL    HW251379   3.205  -6.841  10.104
16458SOL     OW51380   6.843   1.836   9.255
16458SOL    HW151381   6.923   1.824   9.204
16458SOL    HW251382   6.807  12.788   9.264
16459SOL     OW51383   5.392   7.096   6.196
16459SOL    HW151384   5.297   7.086   6.188
16459SOL    HW251385  27.500   7.121   6.108
16460SOL     OW51386   8.646   6.064   6.506
16460SOL    HW151387   8.712   6.132   6.502
16460SOL    HW251388  -2.362   6.004  -4.466
16461SOL     OW51389   8.635   4.473   2.519
16461SOL    HW151390  19.615   4.422   2.575
16461SOL    HW251391   8.712   4.487   2.574
16462SOL     OW51392  10.364   6.169   5.096
16462SOL    HW151393  10.383   6.218  16.215
16462SOL    HW251394  10.410  -4.954   5.107
16463SOL     OW51395  -0.200   7.433   8.400
16463SOL    HW151396  -0.271   7.388   8.446
16463SOL    HW251397  10.914   7.428   8.459
16464SOL     OW51398   1.966   0.712   0.626
16464SOL    HW151399   1.969 -10.339   0.721
16464SOL    HW251400 -20.147   0.629   0.593
16465SOL     OW51401   0.960   4.406   8.481
16465SOL    HW151402   1.053  15.465   8.464
16465SOL    HW251403   0.940  15.495  -2.479
16466SOL     OW51404   4.874  13.470  11.521
16466SOL    HW151405   4.833   2.388 -10.483
16466SOL    HW251406   4.814 -19.577  11.499
16467SOL     OW51407   7.974   1.884   6.174
16467SOL    HW151408 -14.031   1.824  17.204
16467SOL    HW251409 -14.066   1.971   6.180
16468SOL     OW51410   4.815   6.138   3.218
16468SOL    HW151411   4.764   6.113   3.295
16468SOL    HW251412   4.875  -4.975   3.204
16469SOL     OW51413   8.124   7.544   1.362
16469SOL    HW151414  19.204 -25.494   1.329
16469SOL    HW251415   8.074   7.572   1.439
16470SOL     OW51416   9.003   3.260   7.669
16470SOL    HW151417   8.914   3.289  -3.353
16470SOL    HW251418   9.057   3.336 -25.429
16471SOL     OW51419   8.317   2.266   3.146
16471SOL    HW151420  41.520   2.282 -18.890
16471SOL    HW251421   8.319   2.322   3.068
16472SOL     OW51422   5.592   2.498   7.274
16472SOL    HW151423   5.550   2.560  29.295
16472SOL    HW251424   5.555   2.413   7.250
16473SOL     OW51425  10.758   3.557   0.073
16473SOL    HW151426  10.728  14.595   0.164
16473SOL    HW251427  10.853   3.547   0.079
16474SOL     OW51428   3.023   5.565   8.891
16474SOL    HW151429   3.028  16.700  41.999
16474SOL    HW251430  -8.104   5.542   8.859
16475SOL     OW51431   4.946   5.240   9.053
16475SOL    HW151432  -6.100   5.329  -1.954
16475SOL    HW251433   5.026   5.239   9.000
16476SOL     OW51434   3.858   7.888   3.351
16476SOL    HW151435   3.949   7.906   3.375
16476SOL    HW251436  25.942  -3.230   3.296
16477SOL     OW51437   6.318   4.303   3.045
16477SOL    HW151438   6.348   4.356   2.970
16477SOL    HW251439   6.324   4.213   3.014
16478SOL     OW51440   9.151   7.282  12.279
16478SOL    HW151441   9.217  -3.716  12.224
16478SOL    HW251442   9.072   7.282  -9.855
16479SOL     OW51443   6.689   4.526   6.249
16479SOL    HW151444   6.602   4.532   6.289
16479SOL    HW251445   6.749  15.597  -4.722
16480SOL     OW51446   5.067   5.817  10.840
16480SOL    HW151447   5.043  27.863  10.927
16480SOL    HW251448   5.163   5.821  10.841
16481SOL     OW51449   7.380   2.987   3.448
16481SOL    HW151450   7.377  25.103  -7.504
16481SOL    HW251451   7.299   2.936   3.441
16482SOL     OW51452  10.425   9.038   3.664
16482SOL    HW151453 -11.666  20.160   3.712
16482SOL    HW251454 -11.612   8.980  36.845
16483SOL     OW51455   4.280   6.578   9.354
16483SOL    HW151456  15.331  28.629  31.342
16483SOL    HW251457   4.286   6.497   9.404
16484SOL     OW51458   8.464   4.808  10.044
16484SOL    HW151459   8.542   4.752  21.084
16484SOL    HW251460   8.440   4.817  10.136
16485SOL     OW51461   1.489   2.000  -0.433
16485SOL    HW151462  12.482  24.163  -0.440
16485SOL    HW251463  -9.522  13.036  10.698
16486SOL     OW51464  10.396   9.872   7.494
16486SOL    HW151465  10.449   9.794   7.504
16486SOL    HW251466  10.380   9.879   7.400
16487SOL     OW51467   7.577   6.874   6.034
16487SOL    HW151468   7.557  17.892   6.125
16487SOL    HW251469   7.656  17.863  -5.026
16488SOL     OW51470   9.447   9.593   4.560
16488SOL    HW151471   9.511   9.622 -17.584
16488SOL    HW251472  20.430   9.532   4.513
16489SOL     OW51473   5.090   8.698   0.224
16489SOL    HW151474   5.172   8.659   0.196
16489SOL    HW251475  16.120   8.670   0.315
16490SOL     OW51476   6.126   9.605  11.159
16490SOL    HW151477   6.129  20.659  11.064
16490SOL    HW251478   6.037   9.573 -10.904
16491SOL     OW51479   8.380   9.366   7.215
16491SOL    HW151480  30.375   9.412 -14.857
16491SOL    HW251481   8.430  20.459   7.153
16492SOL     OW51482   3.440   6.356  10.002
16492SOL    HW151483  14.464   6.389   9.914
16492SOL    HW251484   3.532   6.376  10.019
16493SOL     OW51485  10.044   7.826   7.965
16493SOL    HW151486  10.061   7.765  -3.003
16493SOL    HW251487  10.040  29.991   8.008
16494SOL     OW51488   8.795   3.644   2.891
16494SOL    HW151489   8.784 -18.430   2.796
16494SOL    HW251490   8.820   3.553   2.907
16495SOL     OW51491   4.564   1.289  -0.232
16495SOL    HW151492  15.677   1.306  21.907
16495SOL    HW251493   4.604   1.286  -0.319
16496SOL     OW51494   6.761   0.915   5.430
16496SOL    HW151495   6.855   0.911  27.492
16496SOL    HW251496   6.744  11.886   5.495
16497SOL     OW51497  10.423   7.566   3.040
16497SOL    HW151498 -11.704   7.595   3.117
16497SOL    HW251499  10.486   7.502   3.074
16498SOL     OW51500   2.072   6.690  10.484
16498SOL    HW151501   2.030   6.638  10.415
16498SOL    HW251502   2.139   6.740  10.438
16499SOL     OW51503   8.717   6.982   1.204
16499SOL    HW151504   8.753  29.117   1.135
16499SOL    HW251505   8.633  29.101  -9.814
16500SOL     OW51506  11.699   3.430   6.068
16500SOL    HW151507   0.630   3.460   6.154
16500SOL    HW251508 -10.320   3.358   6.087
16501SOL     OW51509   1.056   4.166   1.023
16501SOL    HW151510   0.966   4.195   1.040
16501SOL    HW251511   1.075   4.196   0.935
16502SOL     OW51512   3.882   1.276  10.261
16502SOL    HW151513   3.874  23.331  10.353
16502SOL    HW251514 -18.282 -20.767  10.238
16503SOL     OW51515   5.922   9.335   8.896
16503SOL    HW151516  16.907   9.396  -2.093
16503SOL    HW251517   5.860   9.270   8.863
16504SOL     OW51518   8.106   1.455  11.252
16504SOL    HW151519   8.031  23.553  11.196
16504SOL    HW251520   8.088  12.542   0.294
16505SOL     OW51521   4.560   3.410   3.254
16505SOL    HW151522   4.552 -18.750   3.304
16505SOL    HW251523  15.531 -18.612  14.329
16506SOL     OW51524   3.756   3.479   3.876
16506SOL    HW151525   3.846   3.502   3.855
16506SOL    HW251526   3.727  14.587   3.937
16507SOL     OW51527   7.553  10.886   0.326
16507SOL    HW151528  29.616  10.801   0.286
16507SOL    HW251529   7.566  10.868   0.419
16508SOL     OW51530   5.483   0.025   1.805
16508SOL    HW151531   5.447   0.090   1.744
16508SOL    HW251532 -27.579  -0.030  -9.289
16509SOL     OW51533   9.940   7.446   6.688
16509SOL    HW151534   9.997   7.479  28.837
16509SOL    HW251535   9.899   7.524  -4.389
16510SOL     OW51536  11.497   0.234   9.755
16510SOL    HW151537 -10.633  22.379   9.706
16510SOL    HW251538  11.465  11.281  -1.195
16511SOL     OW51539   7.816   5.097   5.845
16511SOL    HW151540   7.749   5.137   5.790
16511SOL    HW251541   7.768   5.059   5.918
16512SOL     OW51542   1.560   6.407   8.503
16512SOL    HW151543   1.508 -26.643   8.460
16512SOL    HW251544  45.653  17.385  41.655
16513SOL     OW51545   7.008   1.418   4.103
16513SOL    HW151546  17.990  -9.640   4.177
16513SOL    HW251547   6.960  -9.557   4.051
16514SOL     OW51548   8.838   0.857   8.886
16514SOL    HW151549   8.819   0.944   8.851
16514SOL    HW251550   8.847   0.871   8.981
16515SOL     OW51551   6.956   7.881   0.734
16515SOL    HW151552   7.021   7.819 -21.311
16515SOL    HW251553   6.930   7.932  11.850
16516SOL     OW51554   2.271   7.660   7.943
16516SOL    HW151555   2.264   7.578   7.895
16516SOL    HW251556  13.387   7.648  19.040
16517SOL     OW51557   9.989   3.557   0.465
16517SOL    HW151558  10.061   3.518   0.516
16517SOL    HW251559   9.951   3.484   0.417
16518SOL     OW51560   5.164   2.975   6.064
16518SOL    HW151561   5.141   2.934 -16.099
16518SOL    HW251562  -5.833 -19.174   6.114
16519SOL     OW51563   3.413  10.841   6.036
16519SOL    HW151564   3.455  10.759   6.011
16519SOL    HW251565  -7.709  -0.198   5.987
16520SOL     OW51566   0.606   6.364   7.857
16520SOL    HW151567   0.632   6.397   7.943
16520SOL    HW251568   0.688   6.352   7.810
16521SOL     OW51569   5.943   0.817   9.335
16521SOL    HW151570  16.889   0.824  -1.686
16521SOL    HW251571 -16.095   0.887   9.386
16522SOL     OW51572   3.679   6.688   1.110
16522SOL    HW151573   3.699   6.764   1.056
16522SOL    HW251574   3.762   6.639   1.114
16523SOL     OW51575   2.225   2.913   4.522
16523SOL    HW151576  -8.889   2.949   4.475
16523SOL    HW251577   2.210   2.818   4.523
16524SOL     OW51578   3.690  11.023   8.494
16524SOL    HW151579   3.597 -11.075   8.477
16524SOL    HW251580   3.691  11.058   8.583
16525SOL     OW51581  10.006  10.820   2.363
16525SOL    HW151582   9.993  10.856   2.275
16525SOL    HW251583   9.943  10.748  13.409
16526SOL     OW51584   6.797   2.416   3.294
16526SOL    HW151585   6.741   2.341  14.354
16526SOL    HW251586  -4.304   2.489   3.284
16527SOL     OW51587   9.393   6.377   4.198
16527SOL    HW151588   9.428  -4.592   4.253
16527SOL    HW251589 -12.692   6.416  -6.929
16528SOL     OW51590   5.199   3.296   8.381
16528SOL    HW151591  38.353   3.355  41.433
16528SOL    HW251592   5.111  14.315  19.390
16529SOL     OW51593   4.247   8.209   3.946
16529SOL    HW151594   4.157   8.242   3.947
16529SOL    HW251595  -6.768   8.207   3.854
16530SOL     OW51596  13.155   1.374  10.456
16530SOL    HW151597 -31.084   1.325  -0.572
16530SOL    HW251598   2.117   1.436  10.529
16531SOL     OW51599   3.640   7.346   0.683
16531SOL    HW151600   3.734  18.390   0.703
16531SOL    HW251601  -7.404   7.294   0.602
16532SOL     OW51602   7.413   5.580   3.830
16532SOL    HW151603  18.417   5.612   3.913
16532SOL    HW251604   7.501   5.616   3.826
16533SOL     OW51605  -0.787   9.609   0.911
16533SOL    HW151606  32.361   9.593   0.821
16533SOL    HW251607  10.249   9.705  11.957
16534SOL     OW51608   0.569   4.110   3.300
16534SOL    HW151609  11.567   4.195  14.354
16534SOL    HW251610   0.580   4.073   3.388
16535SOL     OW51611   4.374  10.067   8.204
16535SOL    HW151612  37.583  10.035  19.249
16535SOL    HW251613  15.419  10.159   8.232
16536SOL     OW51614   9.037   7.923  11.388
16536SOL    HW151615   9.101   7.932   0.419
16536SOL    HW251616  31.166  18.978  11.308
16537SOL     OW51617   9.202   5.056   9.455
16537SOL    HW151618  -1.918   5.032   9.408
16537SOL    HW251619   9.180   5.135  20.544
16538SOL     OW51620   4.749   3.728   3.917
16538SOL    HW151621  26.872  -7.303  15.042
16538SOL    HW251622   4.810   3.678   3.864
16539SOL     OW51623   6.106   4.033   4.014
16539SOL    HW151624 -15.946   4.088   4.088
16539SOL    HW251625   6.185   3.986   3.988
16540SOL     OW51626   8.148  11.805   7.361
16540SOL    HW151627   8.060  11.808   7.325
16540SOL    HW251628  30.235 -10.194   7.412
16541SOL     OW51629   6.062   0.357   0.014
16541SOL    HW151630  28.087  11.333  11.007
16541SOL    HW251631   6.038  11.481  -0.023
16542SOL     OW51632   1.312   1.005  -1.121
16542SOL    HW151633  -9.812   1.011  20.913
16542SOL    HW251634  -9.736   1.066  -1.047
16543SOL     OW51635   7.484   1.118   9.075
16543SOL    HW151636   7.446  12.228   9.127
16543SOL    HW251637   7.448  12.077  20.152
16544SOL     OW51638   7.653   5.861   8.960
16544SOL    HW151639   7.649   5.844 -13.213
16544SOL    HW251640  -3.365   5.955   8.966
16545SOL     OW51641   6.526   7.605   4.584
16545SOL    HW151642   6.507   7.656   4.506
16545SOL    HW251643   6.444   7.559   4.603
16546SOL     OW51644   2.025   4.899   5.485
16546SOL    HW151645  13.093   4.811  16.501
16546SOL    HW251646   2.097  15.974   5.538
16547SOL     OW51647   0.663   1.958   5.292
16547SOL    HW151648   0.625   1.969   5.378
16547SOL    HW251649   0.751 -31.195   5.309
16548SOL     OW51650   5.536   7.643   3.047
16548SOL    HW151651   5.584   7.581   2.993
16548SOL    HW251652   5.517   7.595   3.128
16549SOL     OW51653   9.583  10.618   2.630
16549SOL    HW151654   9.568  10.568   2.711
16549SOL    HW251655   9.554  10.560   2.560
16550SOL     OW51656  11.530   0.952   1.881
16550SOL    HW151657 -10.478   0.953   1.944
16550SOL    HW251658   0.443   1.034   1.897
16551SOL     OW51659   3.988   6.653   6.375
16551SOL    HW151660   4.080   6.648   6.401
16551SOL    HW251661   3.983   6.600  -4.743
16552SOL     OW51662  -1.318   9.740  10.330
16552SOL    HW151663  31.791   9.808  10.263
16552SOL    HW251664   9.650  20.796  10.391
16553SOL     OW51665   5.271   1.242   2.334
16553SOL    HW151666  27.346   1.270   2.426
16553SOL    HW251667  -5.839   1.178   2.325
16554SOL     OW51668   3.919   6.626   6.076
16554SOL    HW151669 -18.100   6.627   6.002
16554SOL    HW251670  -7.146   6.718   6.087
16555SOL     OW51671   4.457   2.239   6.161
16555SOL    HW151672   4.537  24.281   6.122
16555SOL    HW251673  -6.617   2.298  17.134
16556SOL     OW51674   3.918   6.030   7.785
16556SOL    HW151675   3.871   5.948  -3.269
16556SOL    HW251676   3.999  17.060   7.736
16557SOL     OW51677   4.264   2.340   9.955
16557SOL    HW151678   4.359  13.387   9.943
16557SOL    HW251679   4.240  13.304   9.900
16558SOL     OW51680   7.468   9.283   8.020
16558SOL    HW151681   7.398 -12.736   7.993
16558SOL    HW251682 -36.668   9.310 -13.970
16559SOL     OW51683  10.163   3.887   8.243
16559SOL    HW151684  10.189   3.816  -2.738
16559SOL    HW251685  10.069   3.872   8.228
16560SOL     OW51686   3.908   7.086   5.671
16560SOL    HW151687   3.898   7.084   5.576
16560SOL    HW251688   3.818   7.086   5.705
16561SOL     OW51689   5.696   3.638   3.221
16561SOL    HW151690   5.765  -7.468   3.211
16561SOL    HW251691   5.670   3.659   3.131
16562SOL     OW51692   4.184   5.691  10.360
16562SOL    HW151693   4.119   5.686  -0.609
16562SOL    HW251694   4.139   5.653  10.284
16563SOL     OW51695   2.265   0.436   9.680
16563SOL    HW151696   2.352   0.459   9.649
16563SOL    HW251697   2.214   0.420   9.600
16564SOL     OW51698   1.960   4.114   1.827
16564SOL    HW151699   2.030   4.056  12.896
16564SOL    HW251700   1.966  -6.926   1.731
16565SOL     OW51701   6.268   8.543   1.773
16565SOL    HW151702  -4.865   8.530   1.791
16565SOL    HW251703 -37.887   8.576   1.683
16566SOL     OW51704   1.031   1.076   8.946
16566SOL    HW151705  12.162  12.095   8.926
16566SOL    HW251706   1.018   1.044   9.035
16567SOL     OW51707   1.121   1.935   7.508
16567SOL    HW151708  -9.983   1.888   7.562
16567SOL    HW251709  12.174   2.018  18.593
16568SOL     OW51710   3.093  11.513   6.703
16568SOL    HW151711   3.109 -10.484   6.748
16568SOL    HW251712   2.998  11.504   6.702
16569SOL     OW51713   2.116   8.352   5.807
16569SOL    HW151714  -8.914   8.349   5.712
16569SOL    HW251715   2.022 -24.760  -5.218
16570SOL     OW51716   2.314   3.652   8.090
16570SOL    HW151717  -8.757   3.684  -3.033
16570SOL    HW251718   2.319   3.729   8.146
16571SOL     OW51719   6.847   4.362   3.395
16571SOL    HW151720   6.800   4.439   3.361
16571SOL    HW251721 -26.196 -28.766  -7.702
16572SOL     OW51722   5.510   3.266   6.288
16572SOL    HW151723   5.519   3.361   6.282
16572SOL    HW251724   5.440  14.284   6.226
16573SOL     OW51725   1.270   4.773   8.153
16573SOL    HW151726   1.246   4.692   8.110
16573SOL    HW251727   1.193   4.798 -13.877
16574SOL     OW51728   4.421   3.270   4.862
16574SOL    HW151729   4.350   3.319  -6.135
16574SOL    HW251730   4.397   3.272   4.769
16575SOL     OW51731   7.710  11.405   8.013
16575SOL    HW151732   7.722  11.326   8.066
16575SOL    HW251733   7.786   0.367   7.954
16576SOL     OW51734   3.759   5.321   5.052
16576SOL    HW151735   3.834   5.318   4.992
16576SOL    HW251736   3.728   5.412   5.047
16577SOL     OW51737   0.543   4.044   7.379
16577SOL    HW151738   0.593  15.154   7.421
16577SOL    HW251739   0.610  26.063  29.426
16578SOL     OW51740   7.857   7.844   1.384
16578SOL    HW151741   7.884   7.770   1.438
16578SOL    HW251742   7.859   7.919   1.444
16579SOL     OW51743   7.367   8.541   7.134
16579SOL    HW151744   7.317  41.739  18.192
16579SOL    HW251745   7.344   8.481  18.244
16580SOL     OW51746   9.878   1.567   5.130
16580SOL    HW151747   9.879   1.640   5.191
16580SOL    HW251748   9.926  23.678   5.054
16581SOL     OW51749   4.820   0.636   6.996
16581SOL    HW151750  -6.128   0.648   7.023
16581SOL    HW251751   4.771   0.642   7.078
16582SOL     OW51752   8.700   9.696   9.044
16582SOL    HW151753   8.780   9.748  31.112
16582SOL    HW251754   8.657 -12.380   8.959
16583SOL     OW51755   1.872   1.676  10.251
16583SOL    HW151756  12.901   1.645  21.381
16583SOL    HW251757   1.927   1.754 -22.860
16584SOL     OW51758   0.765   9.111   3.973
16584SOL    HW151759   0.795   9.086   3.886
16584SOL    HW251760   0.831  -1.963   4.032
16585SOL     OW51761   7.197   4.982   8.998
16585SOL    HW151762   7.185   5.073   8.968
16585SOL    HW251763 -14.885  27.009  -2.122
16586SOL     OW51764  10.264   9.974   0.019
16586SOL    HW151765 -11.867   9.943   0.094
16586SOL    HW251766  10.211  10.044  -0.019
16587SOL     OW51767   6.124   2.188   3.526
16587SOL    HW151768   6.071  -8.772  -7.518
16587SOL    HW251769   6.184 -19.885   3.451
16588SOL     OW51770  10.956   0.151   2.197
16588SOL    HW151771  10.992   0.234   2.166
16588SOL    HW251772  10.862   0.165   2.200
16589SOL     OW51773   3.410   2.873   4.739
16589SOL    HW151774   3.475   2.928  -6.344
16589SOL    HW251775  -7.711   2.922   4.731
16590SOL     OW51776   8.514  -0.067   3.718
16590SOL    HW151777  -2.550  10.970   3.626
16590SOL    HW251778 -13.488  -0.123   3.724
16591SOL     OW51779   3.451  10.514  11.402
16591SOL    HW151780  25.436  10.496 -10.681
16591SOL    HW251781  -7.582  10.609  11.389
16592SOL     OW51782   7.427  -0.306   3.744
16592SOL    HW151783   7.346  10.751  25.775
16592SOL    HW251784 -14.683  -0.337  14.869
16593SOL     OW51785   0.134  10.796   3.321
16593SOL    HW151786  33.299 -11.357   3.359
16593SOL    HW251787   0.134  10.778   3.227
16594SOL     OW51788   7.743  10.600   9.056
16594SOL    HW151789 -14.244  10.627  20.090
16594SOL    HW251790  -3.307  10.539  20.023
16595SOL     OW51791   8.005   1.734   4.480
16595SOL    HW151792   7.938   1.683   4.433
16595SOL    HW251793  30.060   1.825   4.463
16596SOL     OW51794   8.673   6.022   2.085
16596SOL    HW151795   8.757   6.067   2.083
16596SOL    HW251796   8.608   6.089   2.065
16597SOL     OW51797   4.219   5.307   8.230
16597SOL    HW151798   4.213   5.333  30.217
16597SOL    HW251799   4.216  16.429  19.318
16598SOL     OW51800   4.729   2.989   8.318
16598SOL    HW151801   4.652   2.935   8.334
16598SOL    HW251802   4.803   2.929  19.364
16599SOL     OW51803   1.481   3.801   6.791
16599SOL    HW151804   1.576   3.789   6.784
16599SOL    HW251805  12.509   3.858  17.906
16600SOL     OW51806  10.328  11.849   9.635
16600SOL    HW151807  10.345 -21.207   9.706
16600SOL    HW251808  10.235  11.861  20.654
16601SOL     OW51809   2.994   0.059  11.440
16601SOL    HW151810   3.039   0.011  11.510
16601SOL    HW251811 -19.113  -0.009   0.339
16602SOL     OW51812   4.798  11.227   4.295
16602SOL    HW151813  15.775  11.231   4.367
16602SOL    HW251814   4.878   0.227   4.330
16603SOL     OW51815   9.336   5.160   3.121
16603SOL    HW151816   9.420   5.113  25.203
16603SOL    HW251817   9.302 -16.926  -7.830
16604SOL     OW51818   9.217   1.526   1.927
16604SOL    HW151819  -1.822  12.658   1.905
16604SOL    HW251820  20.348   1.499  12.961
16605SOL     OW51821   7.789   5.429   7.714
16605SOL    HW151822  18.901   5.468   7.763
16605SOL    HW251823   7.831   5.375  18.688
16606SOL     OW51824   8.071   8.186   0.083
16606SOL    HW151825  19.191   8.153   0.044
16606SOL    HW251826  -2.942   8.262   0.134
16607SOL     OW51827   3.298   9.593   9.886
16607SOL    HW151828   3.283   9.511  -1.199
16607SOL    HW251829  36.375   9.660   9.831
16608SOL     OW51830   6.201   0.344   5.404
16608SOL    HW151831   6.208   0.439   5.390
16608SOL    HW251832  -4.929   0.331  -5.607
16609SOL     OW51833   0.928   2.866  10.691
16609SOL    HW151834   0.994   2.818  10.741
16609SOL    HW251835   0.979  13.961  10.632
16610SOL     OW51836   1.426   8.546   6.071
16610SOL    HW151837  -9.676   8.603   6.026
16610SOL    HW251838  -9.565  41.623   6.000
16611SOL     OW51839   3.702   2.576   9.465
16611SOL    HW151840   3.632  -8.427   9.520
16611SOL    HW251841   3.655  46.688   9.395
16612SOL     OW51842   8.830   4.381   6.112
16612SOL    HW151843  19.899   4.369   6.021
16612SOL    HW251844   8.794   4.295  -4.903
16613SOL     OW51845   9.103   3.598   9.580
16613SOL    HW151846 -12.890  -7.415   9.612
16613SOL    HW251847   9.121  -7.515   9.520
16614SOL     OW51848  -0.502   5.360   7.313
16614SOL    HW151849  32.686   5.366  40.365
16614SOL    HW251850  -0.564  16.337  18.317
16615SOL     OW51851   4.462   0.167   2.815
16615SOL    HW151852 -39.676   0.098   2.752
16615SOL    HW251853 -17.696   0.137  35.978
16616SOL     OW51854   5.083   9.263   0.145
16616SOL    HW151855   5.055   9.355  11.177
16616SOL    HW251856   5.032  20.268  11.258
16617SOL     OW51857   8.082   8.201   1.758
16617SOL    HW151858  19.215   8.187   1.742
16617SOL    HW251859   8.047   8.226   1.673
16618SOL     OW51860   6.262   0.915   3.387
16618SOL    HW151861  39.366   0.916   3.292
16618SOL    HW251862  28.295   0.991   3.420
16619SOL     OW51863   8.136   6.561  -0.112
16619SOL    HW151864  -2.958   6.511  10.867
16619SOL    HW251865 -24.991   6.652  -0.141
16620SOL     OW51866   1.162   0.426   9.661
16620SOL    HW151867   1.141   0.510   9.702
16620SOL    HW251868   1.079   0.397   9.622
16621SOL     OW51869   0.349   2.411   0.421
16621SOL    HW151870   0.358  24.486   0.326
16621SOL    HW251871   0.315   2.499   0.438
16622SOL     OW51872   9.137   8.446   9.492
16622SOL    HW151873   9.082   8.465   9.416
16622SOL    HW251874  20.150   8.512   9.557
16623SOL     OW51875   1.122   1.997   4.844
16623SOL    HW151876   1.102  -8.969  15.824
16623SOL    HW251877   1.215   2.005   4.862
16624SOL     OW51878  10.390  11.499   7.889
16624SOL    HW151879  10.411  11.576   7.837
16624SOL    HW251880  21.374   0.493   7.959
16625SOL     OW51881   3.229   5.060   9.832
16625SOL    HW151882   3.315   5.093  20.847
16625SOL    HW251883  36.289   5.089  -1.277
16626SOL     OW51884   0.668   3.460  11.523
16626SOL    HW151885   0.696   3.537  11.473
16626SOL    HW251886   0.621   3.497   0.559
16627SOL     OW51887  10.136   1.142   2.169
16627SOL    HW151888  21.170   1.112  13.300
16627SOL    HW251889  10.225   1.120  24.222
16628SOL     OW51890   0.704   6.523   3.178
16628SOL    HW151891   0.721  28.668   3.111
16628SOL    HW251892  11.829   6.505  14.256
16629SOL     OW51893   9.725  11.013   0.230
16629SOL    HW151894   9.663  10.964   0.177
16629SOL    HW251895   9.739  11.094   0.181
16630SOL     OW51896   4.716   4.635   6.340
16630SOL    HW151897   4.808   4.663   6.337
16630SOL    HW251898   4.679   4.684 -15.666
16631SOL     OW51899   5.122   6.849   1.473
16631SOL    HW151900 -16.959   6.873  23.644
16631SOL    HW251901  -6.010   6.836   1.450
16632SOL     OW51902   1.361   7.563   1.186
16632SOL    HW151903   1.441   7.602   1.220
16632SOL    HW251904   1.363   7.582   1.092
16633SOL     OW51905   4.314   6.541   9.085
16633SOL    HW151906  15.345 -26.665  20.088
16633SOL    HW251907   4.407   6.561  -1.959
16634SOL     OW51908  10.472   2.259   3.233
16634SOL    HW151909  10.505 -19.856   3.315
16634SOL    HW251910  -0.635  13.360   3.259
16635SOL     OW51911   6.713   4.334   1.649
16635SOL    HW151912  28.750   4.417   1.626
16635SOL    HW251913   6.806   4.350  -9.407
16636SOL     OW51914   7.353  11.103   0.888
16636SOL    HW151915  -3.726   0.148   0.911
16636SOL    HW251916  -3.664  11.064   0.972
16637SOL     OW51917  10.267   9.437   4.659
16637SOL    HW151918  10.215   9.370   4.703
16637SOL    HW251919  10.279   9.404  -6.469
16638SOL     OW51920   2.682   2.710   1.663
16638SOL    HW151921   2.652   2.740   1.749
16638SOL    HW251922   2.723   2.787   1.624
16639SOL     OW51923   2.319   4.835   1.988
16639SOL    HW151924   2.325   4.829  35.011
16639SOL    HW251925  13.289  15.939   2.004
16640SOL     OW51926   2.393   6.638   9.208
16640SOL    HW151927   2.470   6.694   9.223
16640SOL    HW251928  -8.698   6.645 -12.791
16641SOL     OW51929   0.461   9.787   7.425
16641SOL    HW151930  11.477  20.811   7.517
16641SOL    HW251931   0.477   9.700   7.389
16642SOL     OW51932   3.735   4.834   9.072
16642SOL    HW151933   3.710   4.760   9.017
16642SOL    HW251934   3.705  37.929   9.160
16643SOL     OW51935  10.817   4.001  10.260
16643SOL    HW151936  10.764   4.078  10.241
16643SOL    HW251937  10.886   4.003  10.193
16644SOL     OW51938   8.587   5.040   4.057
16644SOL    HW151939  41.716   5.129   4.022
16644SOL    HW251940 -13.513 -17.025   4.149
16645SOL     OW51941   4.181   9.119   6.830
16645SOL    HW151942  15.281  20.222   6.791
16645SOL    HW251943  15.245   9.035   6.792
16646SOL     OW51944   8.706   8.642  10.116
16646SOL    HW151945  30.764   8.605  10.030
16646SOL    HW251946   8.621  30.741 -11.923
16647SOL     OW51947  -0.484  -1.012  10.046
16647SOL    HW151948  10.624  -0.947  10.032
16647SOL    HW251949  43.599  21.117  10.078
16648SOL     OW51950   1.836   2.707   2.274
16648SOL    HW151951   1.924 -19.343   2.247
16648SOL    HW251952   1.780   2.783   2.258
16649SOL     OW51953   1.611   5.505   3.894
16649SOL    HW151954   1.603   5.483  -7.052
16649SOL    HW251955  -9.518 -16.556  -7.173
16650SOL     OW51956   3.998   8.449   5.569
16650SOL    HW151957   4.042  30.458  16.562
16650SOL    HW251958   4.054   8.526  16.596
16651SOL     OW51959   8.771   1.373   0.238
16651SOL    HW151960   8.790  12.372   0.153
16651SOL    HW251961   8.714   1.310  22.361
16652SOL     OW51962   9.849   3.871  10.608
16652SOL    HW151963   9.800  14.975  -0.381
16652SOL    HW251964  -1.194   3.903  -0.522
16653SOL     OW51965  -0.149   4.469   4.675
16653SOL    HW151966  -0.071  -6.619 -17.375
16653SOL    HW251967  10.865   4.520   4.752
16654SOL     OW51968   9.765   5.763   2.727
16654SOL    HW151969   9.734  27.761  13.807
16654SOL    HW251970   9.772   5.825  13.838
16655SOL     OW51971   2.131   3.163   2.021
16655SOL    HW151972   2.037  47.313  24.117
16655SOL    HW251973   2.163   3.223   2.089
16656SOL     OW51974   1.109   9.073   8.724
16656SOL    HW151975  -9.943   8.979   8.709
16656SOL    HW251976   1.047   9.115   8.665
16657SOL     OW51977   1.270   4.401   5.534
16657SOL    HW151978   1.363  15.464   5.535
16657SOL    HW251979   1.265   4.321  16.625
16658SOL     OW51980   0.382   7.459   9.823
16658SOL    HW151981   0.456 -14.577   9.866
16658SOL    HW251982   0.311 -25.595   9.825
16659SOL     OW51983   9.516   7.711  10.736
16659SOL    HW151984   9.548  40.917  -0.328
16659SOL    HW251985  -1.462  29.730  10.694
16660SOL     OW51986   2.076   9.556   5.733
16660SOL    HW151987   2.063  -1.556   5.794
16660SOL    HW251988   2.090   9.514   5.648
16661SOL     OW51989   5.726   7.235  10.508
16661SOL    HW151990   5.738  18.213  10.580
16661SOL    HW251991  16.690  18.240  10.459
16662SOL     OW51992   8.772  11.409   3.427
16662SOL    HW151993  -2.215  11.418   3.347
16662SOL    HW251994  19.876   0.360  14.537
16663SOL     OW51995   5.927   8.040  -2.130
16663SOL    HW151996   5.908   7.952  41.997
16663SOL    HW251997   5.967   8.084  -2.205
16664SOL     OW51998   3.714  10.712   8.687
16664SOL    HW151999   3.701  10.670  19.641
16664SOL    HW252000   3.739  10.640  30.825
16665SOL     OW52001   0.769   9.168   9.688
16665SOL    HW152002   0.712   9.135  -1.421
16665SOL    HW252003   0.842   9.106   9.691
16666SOL     OW52004   0.843   4.541   1.335
16666SOL    HW152005   0.907   4.519   1.403
16666SOL    HW252006  55.987  15.650   1.374
16667SOL     OW52007   8.504   3.554  12.637
16667SOL    HW152008   8.595  14.612 -20.503
16667SOL    HW252009  30.539   3.550  12.551
16668SOL     OW52010   3.336   9.557   0.232
16668SOL    HW152011  -7.781  31.692   0.226
16668SOL    HW252012   3.331   9.519   0.320
16669SOL     OW52013  10.945   6.608   7.548
16669SOL    HW152014  10.903   6.523   7.560
16669SOL    HW252015  10.995  39.718   7.467
16670SOL     OW52016   6.104   1.204   6.816
16670SOL    HW152017  28.215   1.126   6.860
16670SOL    HW252018  39.272   1.276  17.895
16671SOL     OW52019   8.718   9.252   5.913
16671SOL    HW152020   8.709   9.346   5.901
16671SOL    HW252021   8.810  20.273   5.894
16672SOL     OW52022   2.484   9.586  10.923
16672SOL    HW152023   2.529   9.599  -0.200
16672SOL    HW252024   2.405   9.537  -0.139
16673SOL     OW52025   7.848   4.608   1.432
16673SOL    HW152026   7.766  -6.435   1.480
16673SOL    HW252027  18.864   4.587   1.341
16674SOL     OW52028  -0.207   3.581   0.757
16674SOL    HW152029  -0.138   3.520   0.732
16674SOL    HW252030  10.770   3.527   0.805
16675SOL     OW52031   9.396   2.576   4.633
16675SOL    HW152032  -1.729 -19.482   4.671
16675SOL    HW252033  -1.664   2.517   4.560
16676SOL     OW52034   8.525   3.923   8.078
16676SOL    HW152035  19.591 -18.204   8.157
16676SOL    HW252036   8.435   3.949   8.094
16677SOL     OW52037  11.444   2.377   5.045
16677SOL    HW152038  11.465 -30.830   5.014
16677SOL    HW252039   0.338   2.408   4.984
16678SOL     OW52040  10.761   1.740   8.529
16678SOL    HW152041  10.797   1.772   8.611
16678SOL    HW252042  10.813   1.784  -2.579
16679SOL     OW52043   2.218   8.570   7.963
16679SOL    HW152044   2.210   8.569  18.907
16679SOL    HW252045  13.224   8.655   7.990
16680SOL     OW52046   5.292   6.167  10.612
16680SOL    HW152047 -27.756  17.221  10.675
16680SOL    HW252048  27.296   6.212  10.649
16681SOL     OW52049   9.435   3.739   5.956
16681SOL    HW152050   9.422   3.764  28.127
16681SOL    HW252051 -12.627   3.822   5.911
16682SOL     OW52052   3.182   9.947   1.963
16682SOL    HW152053  25.242  -1.012   2.011
16682SOL    HW252054   3.277  -1.094  24.034
16683SOL     OW52055   9.381   3.503   5.835
16683SOL    HW152056  31.466   3.532   5.744
16683SOL    HW252057   9.390  -7.456   5.886
16684SOL     OW52058   0.389   8.581   6.513
16684SOL    HW152059   0.427  -2.372   6.500
16684SOL    HW252060  11.372   8.568   6.437
16685SOL     OW52061   4.765   2.120   3.549
16685SOL    HW152062   4.803   2.084   3.629
16685SOL    HW252063   4.751   2.044   3.493
16686SOL     OW52064   4.049   0.682   4.949
16686SOL    HW152065   4.046   0.661   5.043
16686SOL    HW252066  -7.012   0.600   4.906
16687SOL     OW52067  -0.306   7.863   1.745
16687SOL    HW152068  21.728   7.937   1.705
16687SOL    HW252069  10.701   7.787  12.736
16688SOL     OW52070   0.043   9.132   7.835
16688SOL    HW152071   0.017   9.224   7.847
16688SOL    HW252072  -0.023  20.122   7.886
16689SOL     OW52073   8.762   5.752   3.788
16689SOL    HW152074   8.708   5.676  14.850
16689SOL    HW252075  19.834   5.733 -29.418
16690SOL     OW52076   7.193   3.633   4.922
16690SOL    HW152077   7.222   3.650  16.051
16690SOL    HW252078 -14.840  -7.486   4.896
16691SOL     OW52079  10.041   6.228   2.982
16691SOL    HW152080  -0.958   6.302   3.026
16691SOL    HW252081   9.955 -15.819   2.954
16692SOL     OW52082   2.272   8.140   0.745
16692SOL    HW152083   2.228   8.062   0.779
16692SOL    HW252084  -8.748   8.193   0.822
16693SOL     OW52085   6.779   0.037   1.855
16693SOL    HW152086   6.743  11.034   1.932
16693SOL    HW252087   6.787  22.046   1.790
16694SOL     OW52088  10.072   5.169   2.063
16694SOL    HW152089  21.117   5.243   2.124
16694SOL    HW252090  10.152  -5.865   2.012
16695SOL     OW52091   4.066   6.884   0.944
16695SOL    HW152092   3.973  -4.175 -10.104
16695SOL    HW252093   4.071   6.979   0.950
16696SOL     OW52094   3.497   2.583  10.045
16696SOL    HW152095   3.577   2.605  -0.947
16696SOL    HW252096 -29.641   2.493  10.070
16697SOL     OW52097   7.922   2.216  10.511
16697SOL    HW152098   7.980   2.155  10.556
16697SOL    HW252099   7.888   2.167 -11.643
16698SOL     OW52100   8.086   2.642   0.031
16698SOL    HW152101   8.104   2.673  11.160
16698SOL    HW252102   8.164   2.593   0.006
16699SOL     OW52103   1.959   6.399   5.686
16699SOL    HW152104   2.017   6.383   5.761
16699SOL    HW252105 -20.176  17.362   5.683
16700SOL     OW52106   1.198  -0.565   6.834
16700SOL    HW152107   1.178  -0.613   6.914
16700SOL    HW252108   1.226  10.562   6.864
16701SOL     OW52109   1.232   2.104   5.238
16701SOL    HW152110   1.304   2.153  16.239
16701SOL    HW252111  12.242   2.045   5.169
16702SOL     OW52112   6.810   6.926   9.165
16702SOL    HW152113   6.838  17.995  -1.788
16702SOL    HW252114   6.721   6.958 -12.924
16703SOL     OW52115   5.116  12.257   4.308
16703SOL    HW152116   5.154  12.344   4.298
16703SOL    HW252117   5.038 -20.848   4.362
16704SOL     OW52118   6.748   4.854   6.324
16704SOL    HW152119   6.808   4.797  -4.762
16704SOL    HW252120   6.694   4.795  -4.662
16705SOL     OW52121   2.153   6.002   4.745
16705SOL    HW152122   2.092   6.007 -17.407
16705SOL    HW252123   2.193  -5.125   4.738
16706SOL     OW52124   1.673   4.316   9.985
16706SOL    HW152125   1.710   4.401  10.008
16706SOL    HW252126  -9.461   4.329  21.028
16707SOL     OW52127   7.008   4.887   0.803
16707SOL    HW152128   7.043   4.959   0.752
16707SOL    HW252129  17.962   4.918   0.833
16708SOL     OW52130   4.695   9.175   4.316
16708SOL    HW152131  15.645  -1.855  -6.691
16708SOL    HW252132   4.705   9.082  -6.741
16709SOL     OW52133   4.588   4.137  13.851
16709SOL    HW152134  26.653  -6.888  13.758
16709SOL    HW252135   4.502  15.189 -41.307
16710SOL     OW52136   6.353  11.399   1.015
16710SOL    HW152137  -4.709   0.377   0.924
16710SOL    HW252138   6.287  11.446   1.066
16711SOL     OW52139   4.220   0.148   4.369
16711SOL    HW152140  -6.863   0.153   4.454
16711SOL    HW252141  26.232   0.116   4.309
16712SOL     OW52142   4.882   5.365   4.204
16712SOL    HW152143   4.788   5.358  15.226
16712SOL    HW252144  15.946   5.278   4.236
16713SOL     OW52145   8.420   7.970   7.627
16713SOL    HW152146 -13.689   7.886   7.663
16713SOL    HW252147  19.552   7.956   7.608
16714SOL     OW52148   9.064   5.280   3.147
16714SOL    HW152149   9.111 -16.863   3.201
16714SOL    HW252150   9.124 -16.780   3.075
16715SOL     OW52151   6.878   5.409   9.125
16715SOL    HW152152  -4.141  -5.665   9.038
16715SOL    HW252153  -4.154  16.543  20.155
16716SOL     OW52154   5.040   2.141   7.834
16716SOL    HW152155   5.103   2.183   7.892
16716SOL    HW252156  16.131   2.079   7.783
16717SOL     OW52157   8.163   0.966   5.932
16717SOL    HW152158   8.138   0.879   5.899
16717SOL    HW252159   8.154   0.958  -5.012
16718SOL     OW52160   2.915   9.837   0.593
16718SOL    HW152161   2.886   9.876   0.511
16718SOL    HW252162   3.009  20.889   0.594
16719SOL     OW52163   9.176   8.198   4.278
16719SOL    HW152164  -1.807 -24.927   4.201
16719SOL    HW252165 -12.904   8.110   4.315
16720SOL     OW52166   3.135   5.892   5.071
16720SOL    HW152167   3.081   5.892   4.992
16720SOL    HW252168  -7.878  -5.056  27.161
16721SOL     OW52169   3.719   5.126   8.067
16721SOL    HW152170  -7.245   5.118   8.009
16721SOL    HW252171   3.728   5.213   8.106
16722SOL     OW52172  -0.178   4.154   9.092
16722SOL    HW152173  10.772   4.168   9.062
16722SOL    HW252174  21.909  15.098   9.101
16723SOL     OW52175   6.926   0.409   0.326
16723SOL    HW152176   7.003   0.361   0.356
16723SOL    HW252177  -4.091   0.501   0.339
16724SOL     OW52178   3.813   3.972   6.334
16724SOL    HW152179   3.855   3.886  17.365
16724SOL    HW252180   3.722   3.952   6.357
16725SOL     OW52181   1.712   0.251   6.069
16725SOL    HW152182  12.831   0.200   6.054
16725SOL    HW252183  12.692  11.265  -5.042
16726SOL     OW52184   8.115   4.886  10.412
16726SOL    HW152185  -2.985   4.956  10.435
16726SOL    HW252186   8.062 -17.273 -22.700
16727SOL     OW52187   2.198   5.448   2.048
16727SOL    HW152188   2.204   5.430   1.955
16727SOL    HW252189   2.289   5.448   2.078
16728SOL     OW52190   2.316   4.972   9.797
16728SOL    HW152191  24.391   4.988  -1.337
16728SOL    HW252192  13.413   4.895   9.806
16729SOL     OW52193  11.011   3.415   8.381
16729SOL    HW152194  11.107   3.410  19.424
16729SOL    HW252195  10.993   3.496   8.334
16730SOL     OW52196   6.216   8.615   2.149
16730SOL    HW152197   6.132  19.657   2.103
16730SOL    HW252198   6.222  19.565   2.183
16731SOL     OW52199   3.279   1.309   6.815
16731SOL    HW152200   3.248   1.400  28.891
16731SOL    HW252201  -7.840   1.257   6.818
16732SOL     OW52202   6.332   2.207   5.383
16732SOL    HW152203 -15.811 -19.851  16.490
16732SOL    HW252204   6.379   2.289  16.408
16733SOL     OW52205   3.063  10.589   3.774
16733SOL    HW152206   3.093  10.649   3.706
16733SOL    HW252207   3.093  -0.537   3.746
16734SOL     OW52208   6.976   2.963   1.087
16734SOL    HW152209   6.941   2.918   1.009
16734SOL    HW252210   6.913 -19.046  56.302
16735SOL     OW52211   1.440   8.296   5.398
16735SOL    HW152212   1.416   8.272  16.348
16735SOL    HW252213  12.407   8.349   5.429
16736SOL     OW52214  -0.939   6.404  -0.538
16736SOL    HW152215  10.087  17.369  -0.480
16736SOL    HW252216  10.089   6.481  10.557
16737SOL     OW52217  10.481   0.218   7.765
16737SOL    HW152218  10.561   0.204  29.895
16737SOL    HW252219  10.446  22.380   7.799
16738SOL     OW52220   8.506   0.082   9.550
16738SOL    HW152221  19.480  11.074   9.500
16738SOL    HW252222   8.567   0.015   9.579
16739SOL     OW52223   6.279   2.131   4.645
16739SOL    HW152224  -4.679   2.080  -6.391
16739SOL    HW252225 -26.832   2.183   4.565
16740SOL     OW52226   5.252   1.146  11.371
16740SOL    HW152227   5.289  45.219  11.353
16740SOL    HW252228   5.160  12.168   0.352
16741SOL     OW52229   9.857   6.579   1.743
16741SOL    HW152230  20.831   6.627   1.692
16741SOL    HW252231   9.934  -4.464   1.686
16742SOL     OW52232  11.046   5.754   5.336
16742SOL    HW152233 -22.011   5.824   5.358
16742SOL    HW252234  11.101  16.721   5.309
16743SOL     OW52235   7.066   9.454   5.074
16743SOL    HW152236   7.151 -12.662 -28.020
16743SOL    HW252237   7.074  20.512   4.980
16744SOL     OW52238   2.524   9.201  13.707
16744SOL    HW152239   2.612   9.213  -8.337
16744SOL    HW252240   2.490   9.289 -19.425
16745SOL     OW52241   4.676   0.606   4.044
16745SOL    HW152242   4.698  11.651   3.951
16745SOL    HW252243 -17.443   0.520  -6.985
16746SOL     OW52244  10.545  11.478   1.737
16746SOL    HW152245  10.620  11.537  12.782
16746SOL    HW252246  -0.566 -32.631 -31.342
16747SOL     OW52247   7.083   2.759   1.259
16747SOL    HW152248  18.093   2.832   1.203
16747SOL    HW252249   7.179  -8.278  12.291
16748SOL     OW52250  10.064  10.715   3.370
16748SOL    HW152251  10.082  10.640   3.314
16748SOL    HW252252   9.971  10.735   3.354
16749SOL     OW52253   7.689  10.649   4.752
16749SOL    HW152254   7.779  10.682   4.762
16749SOL    HW252255   7.638  10.726   4.729
16750SOL     OW52256   9.218   8.320   0.831
16750SOL    HW152257   9.303   8.290  22.877
16750SOL    HW252258  -1.881   8.248  11.852
16751SOL     OW52259   8.065   7.966   4.250
16751SOL    HW152260  30.059   7.999  -6.761
16751SOL    HW252261  19.118  -3.152   4.303
16752SOL     OW52262  -1.238   0.669   9.717
16752SOL    HW152263   9.758   0.680   9.633
16752SOL    HW252264  20.770   0.663   9.781
16753SOL     OW52265   1.143   3.844   4.435
16753SOL    HW152266   1.176   3.803   4.355
16753SOL    HW252267   1.217   3.894  15.509
16754SOL     OW52268   3.887  10.994   5.222
16754SOL    HW152269  15.000  11.045   5.259
16754SOL    HW252270   3.881  11.024  27.210
16755SOL     OW52271   1.513   0.849   1.546
16755SOL    HW152272   1.509   0.880   1.636
16755SOL    HW252273  23.557 -10.280   1.549
16756SOL     OW52274  13.937   1.230   3.407
16756SOL    HW152275  -8.199   1.208   3.333
16756SOL    HW252276 -30.180   1.147   3.431
16757SOL     OW52277   1.048   8.715   4.366
16757SOL    HW152278  23.093   8.714   4.277
16757SOL    HW252279   1.063   8.807   4.386
16758SOL     OW52280   3.600   7.713  -2.362
16758SOL    HW152281   3.554 -14.301  41.848
16758SOL    HW252282  -7.500   7.691  -2.433
16759SOL     OW52283   9.606   2.266   6.910
16759SOL    HW152284  -1.358  13.280  17.896
16759SOL    HW252285   9.570   2.342 -26.254
16760SOL     OW52286   3.186  11.373   1.121
16760SOL    HW152287  -7.819  11.430   1.052
16760SOL    HW252288   3.195 -10.655   1.201
16761SOL     OW52289   7.949  -0.556   6.250
16761SOL    HW152290   7.966  -0.646   6.281
16761SOL    HW252291   7.930  10.532   6.330
16762SOL     OW52292  -0.997   1.902   6.555
16762SOL    HW152293  32.112  12.854   6.592
16762SOL    HW252294  -1.076  12.953   6.501
16763SOL     OW52295   5.381   7.260   7.474
16763SOL    HW152296   5.287   7.246   7.474
16763SOL    HW252297   5.393  18.391  18.487
16764SOL     OW52298   9.592   4.059   0.012
16764SOL    HW152299   9.645  15.150   0.074
16764SOL    HW252300   9.527   4.122  -0.020
16765SOL     OW52301   4.753   6.035   2.903
16765SOL    HW152302   4.799   6.037   2.987
16765SOL    HW252303   4.811   5.988  13.884
16766SOL     OW52304   2.760   2.665   5.948
16766SOL    HW152305  -8.272   2.653   6.043
16766SOL    HW252306   2.695   2.734   5.937
16767SOL     OW52307   9.334   9.095   1.858
16767SOL    HW152308   9.324  20.079   1.780
16767SOL    HW252309   9.391   9.046   1.916
16768SOL     OW52310   9.322   4.330   7.528
16768SOL    HW152311  31.350   4.313  40.726
16768SOL    HW252312   9.258  15.370  29.536
16769SOL     OW52313  12.525   2.463   7.981
16769SOL    HW152314   1.529   2.548  -3.051
16769SOL    HW252315  -9.540   2.421   8.066
16770SOL     OW52316   8.365   8.561   5.913
16770SOL    HW152317   8.444   8.615  -5.128
16770SOL    HW252318   8.340   8.558   6.005
16771SOL     OW52319   4.884   5.898   2.333
16771SOL    HW152320   4.799  -5.182   2.312
16771SOL    HW252321  15.953  16.890  13.450
16772SOL     OW52322   5.398   9.399   0.861
16772SOL    HW152323   5.483   9.391   0.905
16772SOL    HW252324   5.376   9.492   0.868
16773SOL     OW52325   6.734   7.953   9.898
16773SOL    HW152326  17.741   7.968  -1.230
16773SOL    HW252327  -4.301   8.041  20.976
16774SOL     OW52328   2.296   8.462   3.204
16774SOL    HW152329  24.328  19.545  14.314
16774SOL    HW252330   2.275  30.593   3.126
16775SOL     OW52331   6.051   5.201  11.694
16775SOL    HW152332  -4.973  -5.860 -10.477
16775SOL    HW252333   6.120   5.155  11.742
16776SOL     OW52334   1.031   8.675   3.415
16776SOL    HW152335  -9.993   8.609  -7.557
16776SOL    HW252336   1.043   8.758   3.461
16777SOL     OW52337   1.550  -1.173   3.219
16777SOL    HW152338   1.597  42.908  47.408
16777SOL    HW252339   1.616  20.975  58.412
16778SOL     OW52340   8.499   5.550   2.314
16778SOL    HW152341   8.465   5.527  -8.639
16778SOL    HW252342   8.430  27.682   2.275
16779SOL     OW52343   4.602   3.794   9.473
16779SOL    HW152344 -28.509   3.734   9.399
16779SOL    HW252345   4.550   3.745  31.616
16780SOL     OW52346   7.848   0.840   8.587
16780SOL    HW152347   7.938   0.865   8.605
16780SOL    HW252348  18.885  11.785 -24.516
16781SOL     OW52349   4.076   9.550  10.795
16781SOL    HW152350  -6.928   9.621  10.848
16781SOL    HW252351 -29.010  -1.570  10.836
16782SOL     OW52352   2.136   4.787   4.976
16782SOL    HW152353  13.082   4.801   4.983
16782SOL    HW252354   2.146  48.853  15.995
16783SOL     OW52355   3.608   5.283   2.491
16783SOL    HW152356   3.638   5.234  -8.472
16783SOL    HW252357  -7.497 -16.853   2.450
16784SOL     OW52358   4.855   5.382   0.529
16784SOL    HW152359  15.817  16.454  22.563
16784SOL    HW252360  -6.114   5.441   0.502
16785SOL     OW52361   5.914   4.774   5.344
16785SOL    HW152362   5.981   4.826   5.389
16785SOL    HW252363   5.852   4.750   5.414
16786SOL     OW52364   8.077   0.600   7.087
16786SOL    HW152365   8.170   0.599 -15.013
16786SOL    HW252366   8.036   0.643  -4.028
16787SOL     OW52367   2.095   5.125   0.282
16787SOL    HW152368   2.004   5.137   0.308
16787SOL    HW252369   2.095   5.044   0.231
16788SOL     OW52370  -0.095   3.061   5.363
16788SOL    HW152371  -0.082   2.968   5.383
16788SOL    HW252372  55.089   3.102  16.488
16789SOL     OW52373  10.381   2.184   6.032
16789SOL    HW152374  -0.657   2.097  -4.969
16789SOL    HW252375  10.436  -8.862   5.954
16790SOL     OW52376   7.882   9.390   8.371
16790SOL    HW152377   7.904   9.483  30.443
16790SOL    HW252378  18.857  -1.664   8.302
16791SOL     OW52379   3.186   6.726   5.790
16791SOL    HW152380   3.278   6.741   5.771
16791SOL    HW252381   3.168   6.779   5.868
16792SOL     OW52382   0.684   5.150   4.569
16792SOL    HW152383   0.704   5.222   4.629
16792SOL    HW252384   0.769   5.127   4.531
16793SOL     OW52385   7.031   2.021   7.251
16793SOL    HW152386   7.022  13.116   7.173
16793SOL    HW252387   7.126  -9.029   7.261
16794SOL     OW52388   7.424   7.826   9.787
16794SOL    HW152389 -14.702   7.907   9.766
16794SOL    HW252390  -3.583   7.795   9.703
16795SOL     OW52391   8.324   6.796   8.645
16795SOL    HW152392   8.278  17.914   8.615
16795SOL    HW252393  19.391  17.792   8.564
16796SOL     OW52394  10.878  11.471   4.647
16796SOL    HW152395  21.952 -10.565   4.569
16796SOL    HW252396 -22.198   0.477   4.720
16797SOL     OW52397   8.207   0.969   6.738
16797SOL    HW152398   8.295  11.978  -4.279
16797SOL    HW252399   8.219   1.061   6.717
16798SOL     OW52400   0.884   9.683   5.064
16798SOL    HW152401 -10.097   9.639   5.125
16798SOL    HW252402  11.981   9.726   5.001
16799SOL     OW52403   0.379   5.221   6.908
16799SOL    HW152404   0.412   5.151   6.852
16799SOL    HW252405   0.326   5.176  29.053
16800SOL     OW52406   7.412   0.871   9.523
16800SOL    HW152407  29.493   0.775   9.523
16800SOL    HW252408   7.441   0.895  -1.428
16801SOL     OW52409   5.111   9.283   4.523
16801SOL    HW152410   5.022   9.256   4.547
16801SOL    HW252411   5.099 -12.739  -6.592
16802SOL     OW52412   4.011   6.684   1.491
16802SOL    HW152413   4.023   6.733   1.410
16802SOL    HW252414  -7.123  17.711   1.497
16803SOL     OW52415  10.367   9.485   7.546
16803SOL    HW152416  -0.722   9.418   7.593
16803SOL    HW252417  10.307  -1.481   7.539
16804SOL     OW52418   9.481   2.356   4.779
16804SOL    HW152419   9.413  -8.752  -6.264
16804SOL    HW252420   9.444   2.429  15.769
16805SOL     OW52421   8.992   3.847   9.508
16805SOL    HW152422  31.084   3.767   9.559
16805SOL    HW252423   9.067  14.890   9.448
16806SOL     OW52424   6.912   2.697   5.932
16806SOL    HW152425 -26.241   2.686   5.843
16806SOL    HW252426   6.975 -19.310   5.925
16807SOL     OW52427  10.557   6.427   9.755
16807SOL    HW152428  10.463   6.412   9.767
16807SOL    HW252429  10.576   6.393   9.668
16808SOL     OW52430   5.734   3.686   9.836
16808SOL    HW152431   5.649  -7.393  20.896
16808SOL    HW252432   5.713   3.765   9.787
16809SOL     OW52433  10.669  10.026   5.728
16809SOL    HW152434  10.721  10.069   5.796
16809SOL    HW252435  10.717  10.044   5.647
16810SOL     OW52436   0.104   4.153   0.657
16810SOL    HW152437   0.016   4.178   0.628
16810SOL    HW252438   0.144   4.234   0.687
16811SOL     OW52439   5.404   1.607   2.069
16811SOL    HW152440   5.488   1.615   2.024
16811SOL    HW252441   5.351   1.551  -9.027
16812SOL     OW52442   6.807   1.187   0.814
16812SOL    HW152443  28.795   1.197   0.843
16812SOL    HW252444  -4.201   1.109  11.900
16813SOL     OW52445   0.994  11.150  11.540
16813SOL    HW152446   1.015   0.146 -10.453
16813SOL    HW252447   1.015  11.220  11.479
16814SOL     OW52448  10.713  10.671  10.575
16814SOL    HW152449  10.765  -0.333  10.647
16814SOL    HW252450  -0.415  10.663  10.611
16815SOL     OW52451   5.310   4.573  10.192
16815SOL    HW152452   5.344  15.529  10.160
16815SOL    HW252453   5.360  15.679  10.145
16816SOL     OW52454   7.256  10.741   0.928
16816SOL    HW152455   7.243  10.835 -10.122
16816SOL    HW252456   7.196  10.717   0.999
16817SOL     OW52457   8.979   6.769   6.984
16817SOL    HW152458   9.001   6.739 -15.007
16817SOL    HW252459   8.983   6.690   6.930
16818SOL     OW52460   9.481   7.743   9.278
16818SOL    HW152461  -1.507  18.712  -1.722
16818SOL    HW252462  20.435   7.737   9.321
16819SOL     OW52463   3.564   9.371   7.581
16819SOL    HW152464   3.592   9.432   7.513
16819SOL    HW252465   3.474   9.350   7.558
16820SOL     OW52466   9.920   8.037   7.349
16820SOL    HW152467  -1.044   7.986  18.419
16820SOL    HW252468   9.872  19.015   7.293
16821SOL     OW52469   6.347   6.983   1.283
16821SOL    HW152470   6.337   7.076   1.303
16821SOL    HW252471   6.415   6.981   1.215
16822SOL     OW52472   8.007   7.358   6.744
16822SOL    HW152473   8.011  18.400   6.648
16822SOL    HW252474   8.055  -3.761   6.767
16823SOL     OW52475   8.174   1.606   4.212
16823SOL    HW152476  19.203   1.661   4.290
16823SOL    HW252477   8.220   1.528  26.323
16824SOL     OW52478   8.415   0.530  10.952
16824SOL    HW152479   8.321   0.518  10.938
16824SOL    HW252480 -13.624   0.464  10.894
16825SOL     OW52481   9.722   1.800  11.433
16825SOL    HW152482   9.685   1.835  22.391
16825SOL    HW252483  20.818   1.870 -10.613
16826SOL     OW52484   7.238   4.753   7.707
16826SOL    HW152485   7.257 -28.352   7.614
16826SOL    HW252486   7.222   4.841   7.741
16827SOL     OW52487   8.226   1.092   9.146
16827SOL    HW152488   8.188   1.147   9.215
16827SOL    HW252489   8.261   1.155   9.083
16828SOL     OW52490   0.098   9.088   5.366
16828SOL    HW152491   0.133   9.037   5.440
16828SOL    HW252492   0.140   9.173   5.374
16829SOL     OW52493   7.730   7.336   5.961
16829SOL    HW152494  -3.263   7.261  -5.114
16829SOL    HW252495   7.690   7.378  27.964
16830SOL     OW52496   6.281   7.593   4.044
16830SOL    HW152497   6.241 -14.551   3.986
16830SOL    HW252498   6.370   7.604   4.010
16831SOL     OW52499   0.077   6.894  11.288
16831SOL    HW152500   0.131  -4.072 -10.764
16831SOL    HW252501  11.080   6.860  11.370
16832SOL     OW52502   1.284   5.341   3.540
16832SOL    HW152503   1.359  16.437  36.677
16832SOL    HW252504  -9.724   5.282   3.471
16833SOL     OW52505   4.597   0.067  11.181
16833SOL    HW152506   4.634   0.154  11.188
16833SOL    HW252507   4.568  11.085   0.230
16834SOL     OW52508   7.295  10.842  11.027
16834SOL    HW152509   7.300  -0.292  11.016
16834SOL    HW252510   7.343  10.878  10.952
16835SOL     OW52511   8.312   1.753   2.248
16835SOL    HW152512   8.331   1.800  13.206
16835SOL    HW252513   8.320   1.820   2.316
16836SOL     OW52514   9.621   4.216   6.493
16836SOL    HW152515   9.622   4.307   6.521
16836SOL    HW252516   9.700  37.326   6.439
16837SOL     OW52517  -1.269   5.245  12.547
16837SOL    HW152518  20.796   5.191   1.429
16837SOL    HW252519  20.734   5.227 -20.517
16838SOL     OW52520  10.262   0.167   2.248
16838SOL    HW152521  10.279  22.298  13.367
16838SOL    HW252522  10.274   0.077   2.276
16839SOL     OW52523   8.969   5.239   5.862
16839SOL    HW152524   9.032 -16.851  -5.106
16839SOL    HW252525  20.058  16.258  16.823
16840SOL     OW52526   9.543   6.713   7.042
16840SOL    HW152527   9.534   6.621   7.066
16840SOL    HW252528   9.475   6.726  18.015
16841SOL     OW52529   2.102   1.416  10.178
16841SOL    HW152530   2.094   1.431  10.273
16841SOL    HW252531  -9.024   1.386  10.151
16842SOL     OW52532   8.044  -0.192   5.750
16842SOL    HW152533 -14.061  21.831   5.677
16842SOL    HW252534   7.981 -11.252   5.819
16843SOL     OW52535   0.078   1.697   2.977
16843SOL    HW152536   0.091   1.634  24.985
16843SOL    HW252537  22.200   1.777   2.947
16844SOL     OW52538   1.108   5.967   9.662
16844SOL    HW152539  -9.916  -5.084   9.756
16844SOL    HW252540   1.019  16.975   9.648
16845SOL     OW52541   9.529   4.604  -0.051
16845SOL    HW152542   9.497   4.550   0.022
16845SOL    HW252543   9.486  -6.473  10.911
16846SOL     OW52544   3.121   1.905   0.767
16846SOL    HW152545   3.202   1.890  11.757
16846SOL    HW252546   3.070  12.865   0.753
16847SOL     OW52547   4.745   3.697   9.753
16847SOL    HW152548   4.720  47.812  -1.368
16847SOL    HW252549  26.914   3.726  -1.302
16848SOL     OW52550   4.201   0.720   5.952
16848SOL    HW152551   4.296  11.763   5.963
16848SOL    HW252552   4.172   0.650   6.010
16849SOL     OW52553   5.023   9.353   7.135
16849SOL    HW152554  16.102   9.440 -25.983
16849SOL    HW252555   4.969   9.352   7.056
16850SOL     OW52556   5.934  11.138   7.855
16850SOL    HW152557   5.931   0.012   7.895
16850SOL    HW252558   5.908 -10.881   7.924
16851SOL     OW52559   9.689   7.737   7.842
16851SOL    HW152560   9.630   7.812   7.848
16851SOL    HW252561 -23.393   7.744   7.754
16852SOL     OW52562   7.967   1.492   1.363
16852SOL    HW152563   7.887  12.535  12.350
16852SOL    HW252564  19.015  12.440   1.388
16853SOL     OW52565   3.729   5.109   0.244
16853SOL    HW152566   3.677   5.183   0.276
16853SOL    HW252567  25.840   5.065   0.323
16854SOL     OW52568   2.554  10.300   7.725
16854SOL    HW152569 -41.570  10.240  -3.380
16854SOL    HW252570   2.492  -0.685   7.677
16855SOL     OW52571  10.835   9.966   6.435
16855SOL    HW152572  10.851   9.877   6.466
16855SOL    HW252573  10.922  10.004   6.426
16856SOL     OW52574   0.233   4.418   9.610
16856SOL    HW152575 -10.851   4.467 -12.539
16856SOL    HW252576  22.287 -28.655   9.690
16857SOL     OW52577   9.586   5.147   5.811
16857SOL    HW152578   9.578 -38.933   5.757
16857SOL    HW252579   9.673  -5.886   5.851
16858SOL     OW52580   2.123   9.546   8.913
16858SOL    HW152581   2.172  -1.500   8.831
16858SOL    HW252582   2.122  20.497   8.948
16859SOL     OW52583   2.088   4.525   3.251
16859SOL    HW152584  13.158  15.541   3.164
16859SOL    HW252585  13.061  15.632   3.236
16860SOL     OW52586   9.170   3.806   7.079
16860SOL    HW152587   9.183  -7.143   7.049
16860SOL    HW252588   9.212   3.803   7.165
16861SOL     OW52589   4.301   8.405   8.230
16861SOL    HW152590   4.349   8.463  19.328
16861SOL    HW252591   4.234   8.365   8.285
16862SOL     OW52592  10.189   5.143   6.231
16862SOL    HW152593  10.137   5.153   6.152
16862SOL    HW252594  10.280  -5.889   6.201
16863SOL     OW52595   4.408   8.131   2.810
16863SOL    HW152596   4.490  -2.947  13.879
16863SOL    HW252597  26.504   8.225  -8.235
16864SOL     OW52598   8.371   1.056   8.408
16864SOL    HW152599  19.487  12.139   8.368
16864SOL    HW252600   8.400   0.966   8.423
16865SOL     OW52601   7.698   4.444   4.605
16865SOL    HW152602   7.609   4.473 -17.495
16865SOL    HW252603   7.702  -6.590 -17.379
16866SOL     OW52604   3.559   5.624   0.327
16866SOL    HW152605   3.566   5.718   0.344
16866SOL    HW252606   3.469   5.602  11.391
16867SOL     OW52607   2.870   1.232   5.268
16867SOL    HW152608   2.827   1.243   5.353
16867SOL    HW252609   2.926   1.155   5.279
16868SOL     OW52610   1.551   1.257   9.054
16868SOL    HW152611 -20.571   1.332   9.012
16868SOL    HW252612   1.644   1.268  20.073
16869SOL     OW52613   5.444   4.268   2.249
16869SOL    HW152614  -5.633  -6.857   2.269
16869SOL    HW252615   5.535   4.262   2.277
16870SOL     OW52616   4.264   6.667   8.005
16870SOL    HW152617   4.307   6.750   7.985
16870SOL    HW252618  37.328   6.686   8.081
16871SOL     OW52619   2.417   4.365   2.138
16871SOL    HW152620   2.362  37.500   2.215
16871SOL    HW252621 -19.623   4.450   2.119
16872SOL     OW52622   3.868   0.623   1.322
16872SOL    HW152623  -7.159   0.558   1.252
16872SOL    HW252624   3.926   0.594   1.392
16873SOL     OW52625   0.671   4.448   5.090
16873SOL    HW152626  11.696   4.518   5.027
16873SOL    HW252627  11.759  26.460   5.042
16874SOL     OW52628   3.813   8.273   3.716
16874SOL    HW152629   3.765   8.191   3.728
16874SOL    HW252630   3.872  -2.784   3.642
16875SOL     OW52631   6.025   9.097  10.112
16875SOL    HW152632   5.965   9.125  10.182
16875SOL    HW252633  39.088   9.087  10.035
16876SOL     OW52634   8.607  10.979   0.245
16876SOL    HW152635   8.614  10.937   0.330
16876SOL    HW252636   8.514  10.980   0.225
16877SOL     OW52637   1.202   4.667   7.825
16877SOL    HW152638   1.274  15.721  18.803
16877SOL    HW252639   1.137   4.733   7.801
16878SOL     OW52640   3.308   9.262   1.234
16878SOL    HW152641   3.280  -1.688   1.250
16878SOL    HW252642   3.261  -1.830   1.299
16879SOL     OW52643   2.589   3.388   2.090
16879SOL    HW152644   2.631   3.325   2.031
16879SOL    HW252645   2.534 -40.824   2.147
16880SOL     OW52646   7.967   7.326   1.275
16880SOL    HW152647  30.103   7.250  -9.779
16880SOL    HW252648  -3.012  18.436   1.298
16881SOL     OW52649   1.454   2.605   5.350
16881SOL    HW152650   1.445   2.681   5.408
16881SOL    HW252651   1.423  13.675   5.265
16882SOL     OW52652   4.934   7.675   2.451
16882SOL    HW152653   4.939  -3.415  13.572
16882SOL    HW252654  15.882  -3.367  13.465
16883SOL     OW52655   1.233   0.666   3.399
16883SOL    HW152656   1.254   0.756   3.374
16883SOL    HW252657   1.138   0.664   3.408
16884SOL     OW52658   4.692   6.705   1.628
16884SOL    HW152659   4.700  17.650   1.621
16884SOL    HW252660   4.753   6.730   1.698
16885SOL     OW52661   2.898   5.176   9.463
16885SOL    HW152662  35.926   5.202   9.447
16885SOL    HW252663   2.949   5.256  -1.589
16886SOL     OW52664   8.937  -0.033   9.867
16886SOL    HW152665  -2.037  22.005  -1.116
16886SOL    HW252666   8.904  10.935   9.813
16887SOL     OW52667  10.089   3.542   8.118
16887SOL    HW152668  -0.888   3.495   8.172
16887SOL    HW252669  -0.945   3.500   8.032
16888SOL     OW52670   7.796   1.047   5.784
16888SOL    HW152671  18.762   0.989  27.880
16888SOL    HW252672   7.814   1.088   5.869
16889SOL     OW52673   2.037   6.189   3.780
16889SOL    HW152674   1.995   6.175   3.865
16889SOL    HW252675   1.989   6.262   3.741
16890SOL     OW52676   7.702   9.544   0.495
16890SOL    HW152677   7.637   9.520   0.429
16890SOL    HW252678  -3.386  20.586   0.577
16891SOL     OW52679   8.692   6.967   2.278
16891SOL    HW152680   8.602   6.957  -8.790
16891SOL    HW252681   8.744  -4.105   2.204
16892SOL     OW52682   9.756   8.477   8.120
16892SOL    HW152683   9.828   8.515  30.250
16892SOL    HW252684   9.703   8.553  19.134
16893SOL     OW52685  11.327  -1.905   6.239
16893SOL    HW152686  11.324  20.207   6.329
16893SOL    HW252687   0.331  20.089  50.405
16894SOL     OW52688  10.865  10.007   9.604
16894SOL    HW152689  10.849  21.071   9.695
16894SOL    HW252690  10.808  -1.108   9.589
16895SOL     OW52691   8.725   5.464   6.828
16895SOL    HW152692  30.750   5.388   6.850
16895SOL    HW252693   8.700  16.526   6.739
16896SOL     OW52694   9.496   9.198   2.222
16896SOL    HW152695   9.471  -1.749  13.262
16896SOL    HW252696 -12.661   9.152   2.253
16897SOL     OW52697   3.447   2.994   3.919
16897SOL    HW152698   3.386   3.056   3.961
16897SOL    HW252699  14.430   2.934  25.950
16898SOL     OW52700   8.109  -0.101   5.387
16898SOL    HW152701 -13.876  -0.085   5.373
16898SOL    HW252702  19.138  10.845   5.367
16899SOL     OW52703   9.076   3.095   2.429
16899SOL    HW152704   9.097   3.001   2.427
16899SOL    HW252705   9.036  25.192   2.344
16900SOL     OW52706  10.912   4.067   7.200
16900SOL    HW152707  10.999   4.036   7.175
16900SOL    HW252708  -0.183   3.989  -3.845
16901SOL     OW52709   7.259  11.455   2.851
16901SOL    HW152710  29.298  11.536   2.821
16901SOL    HW252711   7.327   0.443 -30.206
16902SOL     OW52712  10.541   9.115  10.047
16902SOL    HW152713  10.563   9.054  10.117
16902SOL    HW252714 -33.712   9.107  10.036
16903SOL     OW52715   1.185   6.326   9.209
16903SOL    HW152716   1.140   6.358   9.287
16903SOL    HW252717   1.276 -15.725  -1.819
16904SOL     OW52718   2.897   9.597   2.661
16904SOL    HW152719   2.809   9.560  13.713
16904SOL    HW252720  13.970   9.610   2.749
16905SOL     OW52721   8.378   0.024   0.897
16905SOL    HW152722   8.469   0.054  11.937
16905SOL    HW252723   8.329  11.134   0.940
16906SOL     OW52724   7.101   6.581   2.876
16906SOL    HW152725   7.087   6.674   2.856
16906SOL    HW252726  29.162   6.573   2.969
16907SOL     OW52727   0.939   6.558   5.033
16907SOL    HW152728   0.850   6.594   5.035
16907SOL    HW252729 -10.046   6.631   5.006
16908SOL     OW52730   6.869   1.669   2.269
16908SOL    HW152731   6.939   1.613   2.236
16908SOL    HW252732   6.857  34.854 -19.879
16909SOL     OW52733   9.284  10.820   7.718
16909SOL    HW152734   9.214  10.785   7.663
16909SOL    HW252735   9.337  -0.168   7.658
16910SOL     OW52736   7.316   9.497   6.104
16910SOL    HW152737 -25.719   9.462   6.075
16910SOL    HW252738 -14.748   9.591   6.114
16911SOL     OW52739   0.549   1.739   4.484
16911SOL    HW152740   0.605   1.725   4.408
16911SOL    HW252741  11.567  23.730 -28.603
16912SOL     OW52742   5.478   1.152   0.537
16912SOL    HW152743   5.420   1.076   0.528
16912SOL    HW252744   5.566  12.155   0.536
16913SOL     OW52745   0.466   4.238  10.894
16913SOL    HW152746   0.386   4.216  10.846
16913SOL    HW252747   0.519   4.289  10.833
16914SOL     OW52748   6.174   3.892   0.516
16914SOL    HW152749  -4.953   3.928   0.503
16914SOL    HW252750 -26.889 -18.139   0.455
16915SOL     OW52751   8.922   9.147  12.012
16915SOL    HW152752   8.878 -12.973  -9.993
16915SOL    HW252753   8.851   9.172 -32.206
16916SOL     OW52754   3.940   2.050   8.591
16916SOL    HW152755   3.940   2.071   8.685
16916SOL    HW252756   3.985   2.124   8.550
16917SOL     OW52757   0.620  12.658  10.956
16917SOL    HW152758   0.527  -9.432  10.936
16917SOL    HW252759   0.643   1.704  10.921
16918SOL     OW52760   4.762  12.383  10.979
16918SOL    HW152761 -28.414 -31.705  11.009
16918SOL    HW252762 -17.251  12.375  11.048
16919SOL     OW52763  11.339   4.664   4.371
16919SOL    HW152764   0.295   4.698   4.460
16919SOL    HW252765  11.414  15.748   4.331
16920SOL     OW52766   3.584   3.530   6.422
16920SOL    HW152767   3.611   3.549   6.512
16920SOL    HW252768   3.662   3.491   6.382
16921SOL     OW52769   1.151  10.421   9.902
16921SOL    HW152770   1.085  10.490   9.898
16921SOL    HW252771   1.195  10.425  -1.223
16922SOL     OW52772   0.429   5.457   6.788
16922SOL    HW152773   0.398   5.376   6.829
16922SOL    HW252774   0.371   5.525   6.823
16923SOL     OW52775   5.183   9.819   3.241
16923SOL    HW152776  16.246  20.808   3.319
16923SOL    HW252777   5.258   9.878  -7.811
16924SOL     OW52778  11.272   2.454   6.116
16924SOL    HW152779   0.312   2.412   6.084
16924SOL    HW252780  11.224   2.385   6.161
16925SOL     OW52781   0.665   8.038   8.908
16925SOL    HW152782  33.770   8.105  20.014
16925SOL    HW252783   0.629   8.076  30.907
16926SOL     OW52784  10.914   0.512   7.636
16926SOL    HW152785  10.989  11.523   7.689
16926SOL    HW252786  10.838   0.470   7.677
16927SOL     OW52787   7.326   6.866   8.308
16927SOL    HW152788   7.281   6.914  19.417
16927SOL    HW252789   7.343  17.971   8.240
16928SOL     OW52790   5.949  10.039   3.326
16928SOL    HW152791   5.971  10.132   3.324
16928SOL    HW252792  17.035  10.002 -18.828
16929SOL     OW52793   7.874   5.691   6.833
16929SOL    HW152794   7.783   5.663   6.825
16929SOL    HW252795   7.869 -16.297  28.938
16930SOL     OW52796  11.730   4.227  10.370
16930SOL    HW152797 -21.389   4.243  10.276
16930SOL    HW252798 -10.263   4.258  10.399
16931SOL     OW52799   8.321   0.890   2.053
16931SOL    HW152800   8.226   0.885   2.062
16931SOL    HW252801  19.395   0.833   2.121
16932SOL     OW52802  10.954  10.204   8.590
16932SOL    HW152803  10.893  10.215   8.664
16932SOL    HW252804  11.032  10.252   8.617
16933SOL     OW52805   8.244   6.135   1.166
16933SOL    HW152806   8.209   6.202   1.224
16933SOL    HW252807   8.320   6.100  -9.828
16934SOL     OW52808   4.056   7.696  10.184
16934SOL    HW152809  15.053   7.758  10.243
16934SOL    HW252810   4.147   7.725  10.180
16935SOL     OW52811   9.044  10.560   0.397
16935SOL    HW152812   8.978  10.625   0.421
16935SOL    HW252813   9.086  10.536  11.519
16936SOL     OW52814   0.852   7.375   2.433
16936SOL    HW152815 -10.196   7.285   2.464
16936SOL    HW252816   0.905   7.369   2.354
16937SOL     OW52817   6.874   2.984   3.558
16937SOL    HW152818  -4.141  13.995   3.470
16937SOL    HW252819  -4.197   3.073  14.586
16938SOL     OW52820  10.239   3.512  10.727
16938SOL    HW152821  10.305   3.575  10.700
16938SOL    HW252822  10.158  14.584  10.688
16939SOL     OW52823   4.212  10.069   3.954
16939SOL    HW152824   4.302  10.064   3.923
16939SOL    HW252825  26.256  10.147   3.911
16940SOL     OW52826   8.977   8.642   0.137
16940SOL    HW152827   9.002   8.600   0.219
16940SOL    HW252828   9.045  -2.332  11.161
16941SOL     OW52829   2.252   4.341   3.688
16941SOL    HW152830  13.381 -17.720   3.661
16941SOL    HW252831  -8.778   4.293   3.771
16942SOL     OW52832   9.750   7.029   0.397
16942SOL    HW152833   9.793   7.058   0.477
16942SOL    HW252834  -1.246  -4.093   0.375
16943SOL     OW52835   0.391   7.235   8.755
16943SOL    HW152836   0.402  -3.785   8.848
16943SOL    HW252837   0.296  -3.817   8.745
16944SOL     OW52838   5.460   4.011   7.813
16944SOL    HW152839   5.451  15.095   7.898
16944SOL    HW252840  27.577   3.926   7.835
16945SOL     OW52841   3.565   5.724   6.822
16945SOL    HW152842   3.572   5.718   6.917
16945SOL    HW252843   3.514  -5.393   6.797
16946SOL     OW52844   2.273   5.702   8.344
16946SOL    HW152845  24.266   5.730  19.414
16946SOL    HW252846   2.275   5.608   8.362
16947SOL     OW52847   7.171   8.882   2.002
16947SOL    HW152848   7.121   8.958   1.972
16947SOL    HW252849  -3.885   8.877   2.096
16948SOL     OW52850   9.112   8.023   5.409
16948SOL    HW152851   9.183   7.960   5.396
16948SOL    HW252852  20.077  30.049  27.516
16949SOL     OW52853  10.256   3.053  10.214
16949SOL    HW152854  10.300   3.018  21.177
16949SOL    HW252855  10.308   3.022  10.288
16950SOL     OW52856   6.907  10.563   5.139
16950SOL    HW152857   6.987  10.614   5.152
16950SOL    HW252858   6.840  10.609   5.189
16951SOL     OW52859   5.185  10.507  -0.306
16951SOL    HW152860   5.187  10.423  21.817
16951SOL    HW252861   5.241  10.495  -0.383
16952SOL     OW52862   4.343   4.414   5.607
16952SOL    HW152863   4.279   4.382   5.543
16952SOL    HW252864 -17.655   4.424   5.558
16953SOL     OW52865   2.743  11.538   0.333
16953SOL    HW152866   2.763   0.495   0.427
16953SOL    HW252867  24.866  11.460   0.297
16954SOL     OW52868   6.242   6.821   9.147
16954SOL    HW152869   6.236  28.995   9.156
16954SOL    HW252870   6.314   6.808  31.164
16955SOL     OW52871   4.507  10.562   6.448
16955SOL    HW152872   4.422 -22.555  17.444
16955SOL    HW252873   4.502  10.488   6.508
16956SOL     OW52874   5.700   7.611   1.794
16956SOL    HW152875   5.691  18.736  12.791
16956SOL    HW252876   5.623  18.644   1.850
16957SOL     OW52877   5.848  10.207  11.397
16957SOL    HW152878   5.789  10.178   0.427
16957SOL    HW252879  -5.224  10.294  11.373
16958SOL     OW52880   5.765   6.124   7.596
16958SOL    HW152881  16.714   6.094   7.605
16958SOL    HW252882  27.894  28.124   7.576
16959SOL     OW52883   3.700   9.450   4.460
16959SOL    HW152884  -7.328   9.373   4.516
16959SOL    HW252885   3.745  -1.613  -6.661
16960SOL     OW52886   2.741   2.500   7.674
16960SOL    HW152887  13.864   2.469 -14.442
16960SOL    HW252888  -8.279   2.519 -14.314
16961SOL     OW52889   2.386   5.610   6.056
16961SOL    HW152890   2.448  -5.361   6.080
16961SOL    HW252891  35.440  -5.428   6.126
16962SOL     OW52892   6.958   6.525   8.288
16962SOL    HW152893   7.043   6.544  -2.711
16962SOL    HW252894  29.020   6.433   8.310
16963SOL     OW52895   1.351   4.452   6.318
16963SOL    HW152896   1.286   4.518  -4.697
16963SOL    HW252897   1.317  -6.670   6.353
16964SOL     OW52898   6.379   0.454   9.588
16964SOL    HW152899  -4.717  22.500   9.518
16964SOL    HW252900  17.476   0.517   9.545
16965SOL     OW52901   3.972   1.752   9.681
16965SOL    HW152902  -7.108   1.675  31.799
16965SOL    HW252903   4.054   1.720   9.643
16966SOL     OW52904   4.137   6.339   1.047
16966SOL    HW152905  15.135  -4.764  12.145
16966SOL    HW252906   4.138   6.421  12.137
16967SOL     OW52907   9.809   5.131   7.057
16967SOL    HW152908   9.850  -5.823  -3.975
16967SOL    HW252909   9.868 -28.038  -4.039
16968SOL     OW52910   1.218   3.638   7.478
16968SOL    HW152911   1.294  14.693   7.535
16968SOL    HW252912   1.143  25.724   7.537
16969SOL     OW52913  10.386   2.991   4.226
16969SOL    HW152914  10.364 -30.138  37.437
16969SOL    HW252915  10.377  -8.137   4.189
16970SOL     OW52916   4.860   8.290   7.161
16970SOL    HW152917   4.777   8.332   7.185
16970SOL    HW252918  -6.203   8.229   7.091
16971SOL     OW52919   8.038   5.263  10.249
16971SOL    HW152920   8.097   5.333  10.221
16971SOL    HW252921   7.962   5.272  10.191
16972SOL     OW52922   6.494   5.839   8.160
16972SOL    HW152923  -4.539  -5.187   8.065
16972SOL    HW252924   6.439   5.762   8.170
16973SOL     OW52925   8.471   0.368   4.476
16973SOL    HW152926   8.526   0.440   4.508
16973SOL    HW252927   8.401   0.361   4.541
16974SOL     OW52928   5.360   7.055   3.323
16974SOL    HW152929   5.340   7.143  14.393
16974SOL    HW252930   5.448  18.078   3.355
16975SOL     OW52931   2.855   1.939   3.812
16975SOL    HW152932  -8.195   1.844   3.817
16975SOL    HW252933 -19.284 -20.106   3.878
16976SOL     OW52934   2.132   7.453   4.863
16976SOL    HW152935   2.214  29.521   4.911
16976SOL    HW252936   2.159   7.453  -6.268
16977SOL     OW52937   2.028   7.393   0.284
16977SOL    HW152938 -31.101  -3.652   0.189
16977SOL    HW252939   2.047   7.304  11.350
16978SOL     OW52940  10.298   4.551   4.018
16978SOL    HW152941  21.284   4.614  15.105
16978SOL    HW252942  10.347   4.603  26.034
16979SOL     OW52943   8.939  12.031  -0.003
16979SOL    HW152944   8.858   0.981   0.047
16979SOL    HW252945   8.993   1.048   0.052
16980SOL     OW52946   3.437   2.741   0.922
16980SOL    HW152947   3.446   2.673  11.895
16980SOL    HW252948   3.491  13.750   0.995
16981SOL     OW52949   4.459  10.585   3.204
16981SOL    HW152950  -6.504  10.527   3.204
16981SOL    HW252951  -6.543  10.673  25.286
16982SOL     OW52952   5.143   9.587   8.877
16982SOL    HW152953   5.197   9.593   8.956
16982SOL    HW252954   5.053  20.635  19.948
16983SOL     OW52955   3.324   8.164   5.705
16983SOL    HW152956  14.391   8.114   5.782
16983SOL    HW252957   3.323   8.100   5.634
16984SOL     OW52958   0.807   1.097   5.977
16984SOL    HW152959   0.813   1.137   6.064
16984SOL    HW252960   0.777   1.167   5.920
16985SOL     OW52961   0.237   3.138   9.230
16985SOL    HW152962   0.239   3.126  20.175
16985SOL    HW252963   0.144  -7.901   9.253
16986SOL     OW52964   6.078   2.553   5.103
16986SOL    HW152965   6.054   2.467   5.069
16986SOL    HW252966  -4.908   2.535  38.299
16987SOL     OW52967   4.024   7.449   8.842
16987SOL    HW152968  15.129   7.430   8.775
16987SOL    HW252969   4.011   7.543   8.837
16988SOL     OW52970   0.777   4.836   1.767
16988SOL    HW152971   0.791  15.969   1.756
16988SOL    HW252972   0.863   4.797   1.754
16989SOL     OW52973   4.678   7.535   9.834
16989SOL    HW152974   4.725  29.530   9.837
16989SOL    HW252975   4.653   7.544  20.782
16990SOL     OW52976   5.544   1.316  10.331
16990SOL    HW152977   5.586   1.231  -0.696
16990SOL    HW252978   5.546   1.357  -0.622
16991SOL     OW52979  10.928  11.427   1.674
16991SOL    HW152980  11.000  11.406   1.614
16991SOL    HW252981  -0.181   0.420   1.617
16992SOL     OW52982   6.484   1.329   3.588
16992SOL    HW152983   6.466   1.409   3.540
16992SOL    HW252984  28.642   1.294  -7.493
16993SOL     OW52985   6.737   8.106  10.809
16993SOL    HW152986  17.820   8.023  10.830
16993SOL    HW252987   6.786   8.141  10.735
16994SOL     OW52988   5.328   3.262   7.758
16994SOL    HW152989  16.383   3.193   7.694
16994SOL    HW252990  -5.795   3.302   7.731
16995SOL     OW52991   9.413   3.411   1.575
16995SOL    HW152992 -34.730   3.463  12.694
16995SOL    HW252993   9.392   3.477  23.587
16996SOL     OW52994  10.367  10.160   1.478
16996SOL    HW152995  10.332  21.112  12.531
16996SOL    HW252996  -0.578  10.147   1.467
16997SOL     OW52997   9.529   3.654   3.466
16997SOL    HW152998 -23.666   3.597   3.462
16997SOL    HW252999   9.501 -18.349   3.516
16998SOL     OW53000   4.766   1.906   7.681
16998SOL    HW153001   4.782  12.881   7.612
16998SOL    HW253002   4.798  13.028  18.684
16999SOL     OW53003   1.468  10.363  -0.501
16999SOL    HW153004   1.468  21.445  -0.415
16999SOL    HW253005   1.544  10.305  21.581
17000SOL     OW53006   3.844   1.878   8.384
17000SOL    HW153007  14.834  -9.239   8.410
17000SOL    HW253008   3.888   1.906   8.464
17001SOL     OW53009   6.145   4.940  10.722
17001SOL    HW153010   6.160   4.882  10.797
17001SOL    HW253011   6.081  16.044  10.754
17002SOL     OW53012   7.338   0.772   5.017
17002SOL    HW153013  29.371   0.713   5.077
17002SOL    HW253014   7.429 -10.297  16.061
17003SOL     OW53015  -0.614   0.883   7.231
17003SOL    HW153016  -0.638   0.898   7.140
17003SOL    HW253017  10.461   0.967  40.380
17004SOL     OW53018   9.748   1.250   2.459
17004SOL    HW153019   9.693  -9.753  -8.511
17004SOL    HW253020  31.781   1.172  13.469
17005SOL     OW53021  11.023   8.663   4.326
17005SOL    HW153022  11.110  19.692   4.287
17005SOL    HW253023  11.037  -2.393  15.459
17006SOL     OW53024   9.919  10.813   8.455
17006SOL    HW153025  -1.180  10.756   8.503
17006SOL    HW253026   9.934  10.887   8.515
17007SOL     OW53027  -0.290   9.481   1.946
17007SOL    HW153028  -0.232   9.498   2.020
17007SOL    HW253029  10.809   9.456   1.875
17008SOL     OW53030   3.141   8.034   9.998
17008SOL    HW153031   3.119   7.956   9.946
17008SOL    HW253032   3.094  -2.934   9.954
17009SOL     OW53033   8.059   4.477   0.956
17009SOL    HW153034  19.074 -17.671   1.018
17009SOL    HW253035  19.096   4.558 -10.031
17010SOL     OW53036   3.253   1.627   4.285
17010SOL    HW153037   3.194   1.692   4.246
17010SOL    HW253038   3.323  12.718  26.403
17011SOL     OW53039   4.473   2.994   2.864
17011SOL    HW153040   4.411  -8.082  -8.238
17011SOL    HW253041  -6.621  14.077  -8.109
17012SOL     OW53042   7.081   9.390   1.569
17012SOL    HW153043   6.987   9.396   1.551
17012SOL    HW253044  -3.931  -1.729   1.525
17013SOL     OW53045   4.166   0.271   5.982
17013SOL    HW153046   4.091   0.263   5.923
17013SOL    HW253047  15.182   0.218   6.058
17014SOL     OW53048   6.457   8.375   0.825
17014SOL    HW153049 -15.684  -2.735   0.807
17014SOL    HW253050   6.471   8.417  11.779
17015SOL     OW53051   9.076   5.756   5.524
17015SOL    HW153052  20.117   5.693   5.595
17015SOL    HW253053   9.118  16.751   5.450
17016SOL     OW53054   6.843   7.803   3.639
17016SOL    HW153055   6.825  29.955   3.698
17016SOL    HW253056   6.928  -3.271   3.669
17017SOL     OW53057   5.879  13.486   0.059
17017SOL    HW153058   5.922   2.532   0.062
17017SOL    HW253059   5.950 -19.696   0.057
17018SOL     OW53060   9.607   0.996   6.966
17018SOL    HW153061   9.638   1.001   6.876
17018SOL    HW253062  20.577   1.061   6.972
17019SOL     OW53063   5.755   0.706   8.844
17019SOL    HW153064   5.798   0.746  19.960
17019SOL    HW253065   5.686   0.651   8.882
17020SOL     OW53066   6.709   4.634   1.269
17020SOL    HW153067   6.802   4.621 -20.792
17020SOL    HW253068   6.696   4.729   1.278
17021SOL     OW53069   9.374   9.105   9.404
17021SOL    HW153070 -12.612   9.082  20.447
17021SOL    HW253071  20.394  20.153  -1.729
17022SOL     OW53072  10.879   7.342   5.092
17022SOL    HW153073  10.818   7.387   5.150
17022SOL    HW253074  10.869  -3.653   5.008
17023SOL     OW53075   8.294   7.044   4.837
17023SOL    HW153076   8.324   6.961  26.954
17023SOL    HW253077   8.320  -3.929   4.901
17024SOL     OW53078   8.054   4.765   0.814
17024SOL    HW153079  19.167   4.726   0.863
17024SOL    HW253080   8.060   4.726   0.727
17025SOL     OW53081   0.099   7.573   7.208
17025SOL    HW153082  11.220   7.623   7.211
17025SOL    HW253083   0.126 -25.635   7.188
17026SOL     OW53084   1.682  10.417   5.136
17026SOL    HW153085   1.702 -22.614  27.249
17026SOL    HW253086   1.683  10.360  -5.826
17027SOL     OW53087   9.392   3.436   9.467
17027SOL    HW153088   9.410  -7.553  -1.652
17027SOL    HW253089   9.478  14.446  -1.543
17028SOL     OW53090  -0.494   4.931   2.718
17028SOL    HW153091  -0.576  38.086   2.686
17028SOL    HW253092  10.610  27.032   2.651
17029SOL     OW53093   3.289   8.157  11.336
17029SOL    HW153094  25.352   8.151 -10.838
17029SOL    HW253095   3.285  19.291  11.354
17030SOL     OW53096   8.243   5.192   2.078
17030SOL    HW153097   8.257   5.161  13.028
17030SOL    HW253098   8.301  -5.771   2.086
17031SOL     OW53099   9.085   3.494   0.306
17031SOL    HW153100   9.168   3.509   0.262
17031SOL    HW253101   9.107   3.498   0.400
17032SOL     OW53102   7.377   0.819  10.105
17032SOL    HW153103   7.431   0.897 -11.962
17032SOL    HW253104   7.312   0.844  21.078
17033SOL     OW53105   0.239   6.110   5.006
17033SOL    HW153106  11.265  17.107 -16.989
17033SOL    HW253107   0.217  17.241   5.022
17034SOL     OW53108   6.955   9.063   0.879
17034SOL    HW153109   6.944   9.154   0.909
17034SOL    HW253110   7.050   9.052   0.873
17035SOL     OW53111  10.381   4.653   3.092
17035SOL    HW153112  10.468   4.613   3.098
17035SOL    HW253113  10.398  -6.293  14.139
17036SOL     OW53114   4.379   2.756   8.606
17036SOL    HW153115  -6.722   2.829  30.680
17036SOL    HW253116 -17.745   2.691   8.660
17037SOL     OW53117   9.013   6.947   5.332
17037SOL    HW153118   9.018   7.043   5.328
17037SOL    HW253119   8.948  17.969   5.399
17038SOL     OW53120   2.434   2.447   4.333
17038SOL    HW153121   2.489   2.401  -6.643
17038SOL    HW253122   2.371   2.495  -6.653
17039SOL     OW53123   5.797   5.819   0.948
17039SOL    HW153124   5.723   5.787   1.000
17039SOL    HW253125 -27.244   5.798   1.000
17040SOL     OW53126   7.652   0.631   2.036
17040SOL    HW153127   7.696   0.620  -8.919
17040SOL    HW253128   7.721  22.743   1.977
17041SOL     OW53129   7.145  10.779  10.669
17041SOL    HW153130   7.135  10.860  10.718
17041SOL    HW253131  -3.931 -22.408  10.725
17042SOL     OW53132   3.872   5.942   4.242
17042SOL    HW153133   3.812   5.951   4.168
17042SOL    HW253134   3.825   5.981 -28.803
17043SOL     OW53135   4.226   8.022   1.546
17043SOL    HW153136   4.232   8.077   1.467
17043SOL    HW253137  -6.792  19.120   1.618
17044SOL     OW53138   1.039   5.636   1.543
17044SOL    HW153139  12.054   5.548   1.513
17044SOL    HW253140  11.997   5.685   1.543
17045SOL     OW53141   7.789   4.218   6.124
17045SOL    HW153142   7.739  26.318   6.203
17045SOL    HW253143   7.778   4.123   6.113
17046SOL     OW53144   4.142   2.829   3.929
17046SOL    HW153145  -6.896   2.908   3.982
17046SOL    HW253146  15.267   2.788   3.945
17047SOL     OW53147   7.638   2.575   1.981
17047SOL    HW153148   7.706   2.639   2.003
17047SOL    HW253149   7.672 -19.587   2.016
17048SOL     OW53150   1.570   7.069   4.188
17048SOL    HW153151 -20.515   7.036  15.138
17048SOL    HW253152   1.575   7.164   4.179
17049SOL     OW53153   9.682   0.748   2.625
17049SOL    HW153154   9.720  11.859   2.677
17049SOL    HW253155   9.593  22.856   2.606
17050SOL     OW53156   0.660   6.550   2.051
17050SOL    HW153157   0.694  17.555   2.134
17050SOL    HW253158   0.593   6.487   2.025
17051SOL     OW53159   8.879  10.159   7.227
17051SOL    HW153160   8.951  10.183   7.169
17051SOL    HW253161  19.843  10.149   7.169
17052SOL     OW53162  10.957  11.281   9.937
17052SOL    HW153163  10.979  11.333   9.859
17052SOL    HW253164  11.014   0.275  10.006
17053SOL     OW53165   0.920   6.856   7.209
17053SOL    HW153166   0.825   6.873   7.211
17053SOL    HW253167   0.926   6.761   7.196
17054SOL     OW53168  10.340   4.979   5.159
17054SOL    HW153169  -0.746  16.076   5.220
17054SOL    HW253170  10.300   4.893   5.171
17055SOL     OW53171   9.624  -1.210   0.498
17055SOL    HW153172   9.646  -1.129  11.491
17055SOL    HW253173   9.588  20.898  11.621
17056SOL     OW53174   9.225   7.411   1.467
17056SOL    HW153175   9.309   7.365   1.471
17056SOL    HW253176  31.268  18.428   1.382
17057SOL     OW53177   1.707   2.741   9.603
17057SOL    HW153178   1.639  13.713   9.599
17057SOL    HW253179   1.761  13.755   9.678
17058SOL     OW53180   5.433   0.472   4.702
17058SOL    HW153181   5.398   0.400  15.691
17058SOL    HW253182   5.504   0.433  26.832
17059SOL     OW53183   1.222   9.680   3.078
17059SOL    HW153184   1.248   9.721   3.161
17059SOL    HW253185   1.181  -1.289   3.028
17060SOL     OW53186   0.395   1.933  10.090
17060SOL    HW153187  11.371   2.003  10.099
17060SOL    HW253188  11.464   1.938   9.999
17061SOL     OW53189   8.519   8.738   7.756
17061SOL    HW153190   8.506   8.817   7.808
17061SOL    HW253191   8.613   8.731  -3.294
17062SOL     OW53192   3.310   3.831   8.844
17062SOL    HW153193  -7.798   3.817   8.910
17062SOL    HW253194   3.316   3.926   8.836
17063SOL     OW53195   3.703   0.104   7.801
17063SOL    HW153196   3.688   0.159   7.878
17063SOL    HW253197   3.788   0.063   7.818
17064SOL     OW53198   6.962  10.403   7.939
17064SOL    HW153199  18.007  10.491   7.975
17064SOL    HW253200   7.022  10.403   7.865
17065SOL     OW53201   5.339   7.245  -0.466
17065SOL    HW153202   5.273 -25.917  -0.410
17065SOL    HW253203   5.382   7.308  10.631
17066SOL     OW53204   8.056   4.739  10.933
17066SOL    HW153205 -13.984  26.780  10.855
17066SOL    HW253206   8.071   4.674  11.002
17067SOL     OW53207  11.351  -0.034  10.901
17067SOL    HW153208 -43.873  11.070  10.835
17067SOL    HW253209   0.340  -0.110  -0.189
17068SOL     OW53210   3.303   6.245   8.425
17068SOL    HW153211   3.283   6.180   8.492
17068SOL    HW253212   3.299   6.329   8.471
17069SOL     OW53213   7.155   5.244   8.906
17069SOL    HW153214   7.168   5.283   8.992
17069SOL    HW253215  18.101   5.255   8.889
17070SOL     OW53216   4.204   0.552   0.687
17070SOL    HW153217   4.155   0.634  11.722
17070SOL    HW253218  15.233   0.512   0.601
17071SOL     OW53219   7.589  -1.458  11.786
17071SOL    HW153220   7.515  -1.516  11.766
17071SOL    HW253221  29.663  31.675 -10.199
17072SOL     OW53222   9.383   4.062  -0.888
17072SOL    HW153223   9.444   3.988  10.158
17072SOL    HW253224   9.418   4.128  10.211
17073SOL     OW53225   1.911   5.061  10.334
17073SOL    HW153226   1.993   5.097  10.298
17073SOL    HW253227 -20.216   5.138  10.365
17074SOL     OW53228   9.588   6.284   3.637
17074SOL    HW153229   9.672   6.329  14.662
17074SOL    HW253230  -1.509   6.352  36.791
17075SOL     OW53231   0.655   1.912   4.126
17075SOL    HW153232  11.658   1.983   4.180
17075SOL    HW253233   0.679   1.954   4.044
17076SOL     OW53234   5.121  11.122   4.611
17076SOL    HW153235  27.115  11.131   4.654
17076SOL    HW253236  27.261   0.129   4.668
17077SOL     OW53237   2.505   7.026  10.975
17077SOL    HW153238  -8.550   7.084   0.010
17077SOL    HW253239   2.588   6.984  10.993
17078SOL     OW53240   5.921   4.128   0.685
17078SOL    HW153241   5.885   4.111  22.852
17078SOL    HW253242  27.951   4.204  22.733
17079SOL     OW53243   0.999   8.371   0.656
17079SOL    HW153244   1.027   8.282   0.679
17079SOL    HW253245   1.005   8.373   0.560
17080SOL     OW53246  11.380   9.882   0.995
17080SOL    HW153247 -21.705   9.877   1.085
17080SOL    HW253248 -21.662   9.899   0.942
17081SOL     OW53249   1.740   8.979   9.374
17081SOL    HW153250  -9.325   9.053 -12.760
17081SOL    HW253251   1.775   8.915   9.312
17082SOL     OW53252   4.756   3.920   6.188
17082SOL    HW153253   4.682 -18.218   6.174
17082SOL    HW253254   4.808  -7.161 -15.823
17083SOL     OW53255   1.847   0.537   7.008
17083SOL    HW153256  -9.220  22.663   7.087
17083SOL    HW253257   1.899  22.679   6.959
17084SOL     OW53258  10.628   9.138   0.119
17084SOL    HW153259  10.574   9.216   0.132
17084SOL    HW253260  10.718   9.170   0.115
17085SOL     OW53261   9.988   2.657   0.610
17085SOL    HW153262   9.907   2.658   0.559
17085SOL    HW253263  21.097   2.661   0.544
17086SOL     OW53264  -2.298   7.040   9.886
17086SOL    HW153265  30.764  29.196  20.919
17086SOL    HW253266  30.802   7.003   9.972
17087SOL     OW53267   0.972   9.458   2.598
17087SOL    HW153268   0.909   9.390   2.573
17087SOL    HW253269   1.054  -1.629   2.611
17088SOL     OW53270   2.652   5.802   7.102
17088SOL    HW153271   2.735   5.832  18.103
17088SOL    HW253272   2.654   5.837   7.192
17089SOL     OW53273   3.178   8.287   3.229
17089SOL    HW153274   3.249  19.388  25.327
17089SOL    HW253275   3.144  19.355  14.184
17090SOL     OW53276   9.183  10.856   3.122
17090SOL    HW153277 -12.912  10.950 -18.966
17090SOL    HW253278   9.098  10.820  -7.891
17091SOL     OW53279  10.859   0.620   8.165
17091SOL    HW153280  10.769  11.635   8.144
17091SOL    HW253281  10.860  44.874  19.199
17092SOL     OW53282   7.694  -0.629   1.782
17092SOL    HW153283   7.765  21.490   1.732
17092SOL    HW253284   7.691  -0.580   1.864
17093SOL     OW53285   9.916   5.702   7.320
17093SOL    HW153286  -1.205   5.747   7.345
17093SOL    HW253287   9.910   5.692   7.225
17094SOL     OW53288   0.454   7.570   5.387
17094SOL    HW153289  33.656   7.604  -5.621
17094SOL    HW253290   0.459  -3.564   5.401
17095SOL     OW53291   4.325   5.200   8.871
17095SOL    HW153292   4.412   5.236   8.885
17095SOL    HW253293   4.268  16.295   8.925
17096SOL     OW53294   8.381   7.089   2.620
17096SOL    HW153295  -2.564  18.138   2.634
17096SOL    HW253296   8.357   7.011   2.670
17097SOL     OW53297   6.078   9.747   1.709
17097SOL    HW153298 -16.096   9.745  -9.348
17097SOL    HW253299 -27.028   9.680   1.776
17098SOL     OW53300   8.459  10.785   5.025
17098SOL    HW153301   8.536  10.802   4.972
17098SOL    HW253302   8.475  10.700  16.105
17099SOL     OW53303   6.919  10.046   1.423
17099SOL    HW153304   6.902  10.095   1.504
17099SOL    HW253305   6.938  10.114  23.438
17100SOL     OW53306   6.710   3.880   1.783
17100SOL    HW153307   6.635   3.873  -9.317
17100SOL    HW253308 -15.295  25.981  -9.313
17101SOL     OW53309   0.244  10.398   5.940
17101SOL    HW153310   0.338  10.416   5.946
17101SOL    HW253311  22.295  10.441  27.939
17102SOL     OW53312   1.446   4.699   5.324
17102SOL    HW153313   1.519  15.738   5.261
17102SOL    HW253314   1.369 -17.363  -5.769
17103SOL     OW53315  10.654   4.525   6.293
17103SOL    HW153316  -0.438   4.577   6.355
17103SOL    HW253317  10.609   4.535  17.249
17104SOL     OW53318   2.970   8.700   5.654
17104SOL    HW153319   2.994  19.693   5.734
17104SOL    HW253320   3.000  19.829  38.787
17105SOL     OW53321  10.850  11.648   2.058
17105SOL    HW153322  10.800 -10.352   2.077
17105SOL    HW253323  -0.132  11.672   1.986
17106SOL     OW53324   7.826   4.445   8.311
17106SOL    HW153325   7.893   4.377   8.302
17106SOL    HW253326   7.869  -6.514  -2.756
17107SOL     OW53327  12.426   8.623   5.196
17107SOL    HW153328  -9.630   8.692   5.134
17107SOL    HW253329  -9.639   8.663  16.322
17108SOL     OW53330  10.033   1.663   9.969
17108SOL    HW153331   9.995  12.661   9.891
17108SOL    HW253332   9.972   1.643  10.039
17109SOL     OW53333   9.902   9.897   9.363
17109SOL    HW153334   9.857  -1.111  20.481
17109SOL    HW253335  -1.162   9.961   9.295
17110SOL     OW53336   6.972  -1.118   5.487
17110SOL    HW153337   6.916   9.879   5.551
17110SOL    HW253338   7.027  42.970  27.532
17111SOL     OW53339   3.071   3.013  -0.927
17111SOL    HW153340   3.165  -8.009  21.144
17111SOL    HW253341   3.042 -19.082  -1.017
17112SOL     OW53342   9.443   7.636   6.401
17112SOL    HW153343  -1.562   7.665   6.316
17112SOL    HW253344   9.519   7.631  17.497
17113SOL     OW53345   1.888   9.642   2.340
17113SOL    HW153346   1.941   9.699   2.396
17113SOL    HW253347   1.922  -1.486   2.356
17114SOL     OW53348   2.962   5.390   2.195
17114SOL    HW153349   3.056  27.486   2.206
17114SOL    HW253350   2.938   5.340  24.352
17115SOL     OW53351   3.941   6.293  10.403
17115SOL    HW153352   3.923  17.280  10.326
17115SOL    HW253353   3.870   6.357  10.406
17116SOL     OW53354   4.868   0.638  10.205
17116SOL    HW153355   4.801  11.624  10.163
17116SOL    HW253356   4.931 -21.422  10.135
17117SOL     OW53357   4.255  10.883   9.023
17117SOL    HW153358  -6.711  10.873   8.963
17117SOL    HW253359   4.261  10.807   9.081
17118SOL     OW53360  10.809   5.349   0.658
17118SOL    HW153361  10.834   5.283   0.722
17118SOL    HW253362  10.749  16.343 -10.441
17119SOL     OW53363  11.740   3.955   4.922
17119SOL    HW153364  11.825  26.000  -6.146
17119SOL    HW253365 -21.423   3.981  -6.198
17120SOL     OW53366   9.426   6.257  10.868
17120SOL    HW153367   9.405  -4.837  10.792
17120SOL    HW253368  -1.540  -4.827  10.910
17121SOL     OW53369  10.789   4.510   4.925
17121SOL    HW153370  10.736  -6.465  27.051
17121SOL    HW253371  10.844   4.471   4.993
17122SOL     OW53372  10.256   8.241   1.917
17122SOL    HW153373  10.269   8.149   1.938
17122SOL    HW253374  10.337   8.284   1.946
17123SOL     OW53375   7.669   8.236   2.314
17123SOL    HW153376  18.677 -13.768  24.343
17123SOL    HW253377   7.589   8.190   2.341
17124SOL     OW53378   2.364   9.466   2.674
17124SOL    HW153379  -8.750   9.524  13.729
17124SOL    HW253380   2.402  -1.542   2.592
17125SOL     OW53381   4.477  -0.742   0.147
17125SOL    HW153382   4.558  -0.711   0.108
17125SOL    HW253383  15.501  21.395   0.222
17126SOL     OW53384   7.392   9.877   0.729
17126SOL    HW153385  -3.666   9.805   0.790
17126SOL    HW253386   7.311   9.928   0.726
17127SOL     OW53387  -0.520   4.913   5.873
17127SOL    HW153388  10.597  27.039   5.842
17127SOL    HW253389  -0.496   4.820 -16.211
17128SOL     OW53390   8.018   3.309   6.307
17128SOL    HW153391   8.088  -7.681  39.382
17128SOL    HW253392   7.944  -7.725  -4.793
17129SOL     OW53393  10.606   9.460   6.119
17129SOL    HW153394  10.571   9.514  17.087
17129SOL    HW253395  -0.430 -23.747   6.082
17130SOL     OW53396  10.516  -1.023   2.148
17130SOL    HW153397  10.520  21.074   2.054
17130SOL    HW253398  10.586  -1.087  -8.876
17131SOL     OW53399   3.443   2.085  10.212
17131SOL    HW153400  25.593   2.026  10.188
17131SOL    HW253401   3.431   2.071  10.306
17132SOL     OW53402   4.859   6.149   8.845
17132SOL    HW153403   4.804  17.240   8.904
17132SOL    HW253404  -6.226  39.272   8.761
17133SOL     OW53405   8.844  12.309   2.994
17133SOL    HW153406   8.792  -9.811  14.102
17133SOL    HW253407   8.800   1.353   2.977
17134SOL     OW53408   0.240   4.582   0.993
17134SOL    HW153409   0.300 -17.434   0.953
17134SOL    HW253410  22.356  -6.543 -10.067
17135SOL     OW53411   4.104   6.661   8.242
17135SOL    HW153412  -6.905 -26.480   8.330
17135SOL    HW253413   4.009 -15.410  19.291
17136SOL     OW53414   1.762   6.269  10.291
17136SOL    HW153415  12.864   6.249  10.361
17136SOL    HW253416   1.814   6.275 -11.867
17137SOL     OW53417  11.831  10.301   6.621
17137SOL    HW153418  11.844  10.379   6.674
17137SOL    HW253419 -32.265  10.237   6.656
17138SOL     OW53420  -1.106   5.362   6.171
17138SOL    HW153421  -1.136  27.392  -4.792
17138SOL    HW253422  20.980   5.452   6.202
17139SOL     OW53423   7.982   6.151  11.397
17139SOL    HW153424  41.128  17.282  11.395
17139SOL    HW253425   7.899  17.189   0.310
17140SOL     OW53426   8.898   0.373   0.630
17140SOL    HW153427   8.810  11.430   0.663
17140SOL    HW253428   8.949   0.448  33.779
17141SOL     OW53429   4.347   1.431   4.679
17141SOL    HW153430   4.268   1.378   4.684
17141SOL    HW253431   4.372   1.427   4.587
17142SOL     OW53432   6.630  10.600   2.526
17142SOL    HW153433  17.738  10.533   2.522
17142SOL    HW253434   6.677  10.682   2.511
17143SOL     OW53435   9.587   0.945   8.263
17143SOL    HW153436   9.565   0.858   8.228
17143SOL    HW253437   9.677  11.999  41.354
17144SOL     OW53438   0.816   5.940   4.262
17144SOL    HW153439   0.734 -16.188   4.259
17144SOL    HW253440   0.821   5.972   4.352
17145SOL     OW53441   6.044   9.799  -0.109
17145SOL    HW153442  17.130  20.764  10.892
17145SOL    HW253443   5.954   9.789  -0.138
17146SOL     OW53444   6.634   2.368   9.969
17146SOL    HW153445  17.593  -8.678  20.958
17146SOL    HW253446  17.647   2.356  10.060
17147SOL     OW53447   6.733   1.306   8.423
17147SOL    HW153448  28.860   1.266   8.496
17147SOL    HW253449  17.841   1.336 -13.716
17148SOL     OW53450   0.509   5.901   5.040
17148SOL    HW153451   0.480   5.930  -6.086
17148SOL    HW253452   0.550 -16.263  -6.015
17149SOL     OW53453   2.465   8.001   4.362
17149SOL    HW153454   2.472   8.087   4.320
17149SOL    HW253455   2.534   7.949   4.322
17150SOL     OW53456   7.961   9.831   3.873
17150SOL    HW153457  30.020   9.849  14.821
17150SOL    HW253458   7.887  20.816   3.904
17151SOL     OW53459   7.011   4.365   6.185
17151SOL    HW153460  29.145   4.350   6.108
17151SOL    HW253461   7.059  26.509   6.236
17152SOL     OW53462   1.917   4.082   3.149
17152SOL    HW153463 -20.086   4.085  -7.948
17152SOL    HW253464  -9.122   4.167 -18.884
17153SOL     OW53465   0.896   2.958  -0.049
17153SOL    HW153466   0.894  14.025   0.043
17153SOL    HW253467 -10.140   3.040  10.941
17154SOL     OW53468   7.811   3.510   3.757
17154SOL    HW153469   7.888  25.537  -7.302
17154SOL    HW253470   7.737   3.452   3.739
17155SOL     OW53471   0.281   1.006   4.410
17155SOL    HW153472 -10.809   0.968   4.482
17155SOL    HW253473  33.428   1.091   4.442
17156SOL     OW53474   4.577  -1.675   3.670
17156SOL    HW153475   4.587  20.494  -7.402
17156SOL    HW253476   4.623  20.350  -7.434
17157SOL     OW53477   1.482   4.329   4.135
17157SOL    HW153478   1.431   4.264   4.087
17157SOL    HW253479   1.559  26.423   4.080
17158SOL     OW53480   4.981   0.901   8.148
17158SOL    HW153481  -6.042   0.955  -2.815
17158SOL    HW253482   4.910   0.946   8.102
17159SOL     OW53483   5.778   6.764   6.914
17159SOL    HW153484   5.826 -15.384   6.868
17159SOL    HW253485   5.793 -15.333   7.007
17160SOL     OW53486   3.311   1.612   1.535
17160SOL    HW153487 -18.804   1.653  12.496
17160SOL    HW253488   3.352  -9.356  12.623
17161SOL     OW53489  10.338   3.152   9.426
17161SOL    HW153490  10.250   3.164   9.393
17161SOL    HW253491  10.334   3.182   9.517
17162SOL     OW53492   0.785   3.592   5.509
17162SOL    HW153493  11.887   3.664  16.535
17162SOL    HW253494   0.714 -18.469   5.447
17163SOL     OW53495   6.399   0.766   1.815
17163SOL    HW153496   6.395  11.718   1.777
17163SOL    HW253497  -4.723   0.775  12.903
17164SOL     OW53498  10.611   9.253   7.101
17164SOL    HW153499  10.627  -1.850  -3.868
17164SOL    HW253500  10.520  -1.759  -3.924
17165SOL     OW53501   4.988  -0.310   9.553
17165SOL    HW153502  -6.072  -0.247   9.484
17165SOL    HW253503  -6.024  21.823   9.627
17166SOL     OW53504   2.276   5.938   5.411
17166SOL    HW153505   2.237   5.863   5.368
17166SOL    HW253506   2.369  27.995   5.418
17167SOL     OW53507   7.480   6.902  -0.420
17167SOL    HW153508  29.535  -4.227  10.643
17167SOL    HW253509   7.517  51.097  -0.339
17168SOL     OW53510   1.040   4.690   2.084
17168SOL    HW153511  12.093  15.727   2.179
17168SOL    HW253512 -10.094   4.681  13.113
17169SOL     OW53513  11.446   5.614   0.805
17169SOL    HW153514  11.498   5.534 -10.240
17169SOL    HW253515   0.367   5.623   0.718
17170SOL     OW53516   1.591   3.692   0.570
17170SOL    HW153517  12.675  -7.423  33.651
17170SOL    HW253518   1.584  25.751   0.663
17171SOL     OW53519   8.270   4.910   3.116
17171SOL    HW153520  -2.820   4.851   3.171
17171SOL    HW253521   8.361   4.897  36.262
17172SOL     OW53522   7.733   3.739   7.803
17172SOL    HW153523   7.668  36.925  -3.258
17172SOL    HW253524  -3.222   3.784   7.797
17173SOL     OW53525   8.634   5.697   6.489
17173SOL    HW153526   8.654   5.605   6.506
17173SOL    HW253527   8.717   5.743   6.503
17174SOL     OW53528   8.469   7.225  11.386
17174SOL    HW153529  -2.582   7.161   0.417
17174SOL    HW253530   8.392   7.282  11.392
17175SOL     OW53531   1.025   2.048  11.331
17175SOL    HW153532   1.069   1.976  11.285
17175SOL    HW253533   1.087   2.076   0.358
17176SOL     OW53534   0.792   4.077  10.761
17176SOL    HW153535   0.749  -6.886  10.721
17176SOL    HW253536   0.775   4.006  10.700
17177SOL     OW53537   6.238   5.942   2.329
17177SOL    HW153538   6.159   5.994  13.356
17177SOL    HW253539 -15.784  -5.040   2.380
17178SOL     OW53540   6.360   5.757  -0.809
17178SOL    HW153541   6.442   5.804  21.256
17178SOL    HW253542   6.291  16.861  -0.826
17179SOL     OW53543   6.048   5.011   3.963
17179SOL    HW153544   6.013   4.957   3.893
17179SOL    HW253545   5.972   5.055   4.001
17180SOL     OW53546  10.232   5.107   5.400
17180SOL    HW153547  10.188   5.185   5.436
17180SOL    HW253548  10.289  27.157  27.549
17181SOL     OW53549   3.480   2.602   5.971
17181SOL    HW153550  36.646   2.682  -5.091
17181SOL    HW253551   3.548 -19.538   6.001
17182SOL     OW53552  10.809   6.043  10.953
17182SOL    HW153553  10.879   6.093  10.995
17182SOL    HW253554  10.815  39.075  -0.048
17183SOL     OW53555   6.066   2.417   0.597
17183SOL    HW153556  17.047   2.348   0.626
17183SOL    HW253557  17.058   2.498  22.694
17184SOL     OW53558   2.201   9.260   2.497
17184SOL    HW153559   2.266   9.326  -8.516
17184SOL    HW253560   2.249   9.202   2.437
17185SOL     OW53561   7.548   3.937  10.220
17185SOL    HW153562  -3.519   4.021  10.255
17185SOL    HW253563  18.515   3.877  -0.801
17186SOL     OW53564  11.380   3.401   8.604
17186SOL    HW153565  11.331   3.346   8.543
17186SOL    HW253566   0.419   3.427   8.556
17187SOL     OW53567   4.700   3.062   3.880
17187SOL    HW153568   4.754   3.046 -29.162
17187SOL    HW253569   4.638   3.130   3.908
17188SOL     OW53570   9.998   1.772   4.081
17188SOL    HW153571  10.040  12.832   4.164
17188SOL    HW253572  10.019   1.846   4.024
17189SOL     OW53573   4.639   5.973   6.567
17189SOL    HW153574  -6.397  16.938   6.506
17189SOL    HW253575  -6.479  17.061  -4.499
17190SOL     OW53576   4.096   5.626   1.312
17190SOL    HW153577   4.152 -16.407   1.374
17190SOL    HW253578   4.112 -16.411  -9.812
17191SOL     OW53579   8.749   4.415   9.505
17191SOL    HW153580   8.798  15.445   9.586
17191SOL    HW253581   8.806  48.625  31.527
17192SOL     OW53582   3.110   7.880  10.203
17192SOL    HW153583 -30.099   7.853  -0.847
17192SOL    HW253584   3.133   7.919  10.119
17193SOL     OW53585   5.182   4.048   0.741
17193SOL    HW153586   5.180   4.037  11.876
17193SOL    HW253587 -16.885   4.142   0.728
17194SOL     OW53588   0.339  -1.843   5.694
17194SOL    HW153589   0.286   9.125   5.658
17194SOL    HW253590   0.337  31.262   5.789
17195SOL     OW53591   7.694   9.040   6.928
17195SOL    HW153592   7.610  20.089   6.883
17195SOL    HW253593   7.759  20.099 -26.258
17196SOL     OW53594   2.733   5.621   4.627
17196SOL    HW153595  13.681   5.615   4.656
17196SOL    HW253596   2.783   5.582  -6.341
17197SOL     OW53597   7.986   4.868   9.157
17197SOL    HW153598   7.946  -6.087  -1.864
17197SOL    HW253599   8.052   4.857   9.225
17198SOL     OW53600   6.463   7.320   3.211
17198SOL    HW153601   6.489   7.272   3.132
17198SOL    HW253602   6.410   7.393  25.257
17199SOL     OW53603   6.884   0.496   1.305
17199SOL    HW153604   6.902   0.584  45.496
17199SOL    HW253605  17.907   0.444  34.503
17200SOL     OW53606   5.850   1.015   9.734
17200SOL    HW153607   5.773   1.051   9.690
17200SOL    HW253608   5.923  12.108   9.704
17201SOL     OW53609   9.652   9.110  10.349
17201SOL    HW153610   9.599   9.176  10.394
17201SOL    HW253611  31.707   9.028  10.391
17202SOL     OW53612   5.592   0.327   1.441
17202SOL    HW153613   5.602   0.410  -9.551
17202SOL    HW253614  16.676   0.342   1.358
17203SOL     OW53615   2.296   0.115   2.188
17203SOL    HW153616  13.428  44.284   2.208
17203SOL    HW253617  13.290  55.368  35.371
17204SOL     OW53618   0.824   1.107   7.095
17204SOL    HW153619   0.755   1.168   7.071
17204SOL    HW253620  22.895   1.035   7.031
17205SOL     OW53621   6.547   1.037   4.472
17205SOL    HW153622  28.630   1.111   4.411
17205SOL    HW253623  17.620  -9.967   4.554
17206SOL     OW53624   2.961   5.653  10.644
17206SOL    HW153625  -8.072   5.746  10.664
17206SOL    HW253626 -19.043   5.635  -0.451
17207SOL     OW53627   3.515   4.379   3.655
17207SOL    HW153628   3.479   4.389   3.743
17207SOL    HW253629  -7.598  15.388  25.681
17208SOL     OW53630  10.875  10.687   1.849
17208SOL    HW153631  10.922  10.768   1.865
17208SOL    HW253632  10.896  10.664   1.759
17209SOL     OW53633   2.044   5.014   4.667
17209SOL    HW153634  13.119   5.069   4.597
17209SOL    HW253635   1.993   5.074   4.721
17210SOL     OW53636   1.382  10.599   1.622
17210SOL    HW153637   1.407  10.632   1.536
17210SOL    HW253638   1.458 -11.530  -9.387
17211SOL     OW53639   1.549   4.887  10.472
17211SOL    HW153640   1.559   4.975  -0.602
17211SOL    HW253641   1.520  26.914  10.397
17212SOL     OW53642   8.390   0.774   8.920
17212SOL    HW153643   8.368   0.834  30.928
17212SOL    HW253644   8.334   0.698  -2.135
17213SOL     OW53645   2.443   8.329  10.284
17213SOL    HW153646   2.453   8.421  10.308
17213SOL    HW253647   2.351   8.309  -0.738
17214SOL     OW53648   4.651   7.496  -0.146
17214SOL    HW153649  15.765  -3.532  -0.087
17214SOL    HW253650 -17.497   7.459  10.950
17215SOL     OW53651   5.669   5.467   5.229
17215SOL    HW153652  16.629   5.517   5.247
17215SOL    HW253653  16.677  16.423  27.273
17216SOL     OW53654   6.062  10.361  10.446
17216SOL    HW153655   6.034  10.385  10.358
17216SOL    HW253656  17.063  10.275  10.462
17217SOL     OW53657   4.406   8.571  -1.953
17217SOL    HW153658   4.370  19.692  42.170
17217SOL    HW253659   4.402   8.509  20.052
17218SOL     OW53660   4.605   5.535   8.947
17218SOL    HW153661 -17.473  27.675  20.060
17218SOL    HW253662   4.598   5.591   8.870
17219SOL     OW53663   1.728   3.739   6.404
17219SOL    HW153664   1.757   3.750  -4.726
17219SOL    HW253665   1.634   3.758 -15.677
17220SOL     OW53666   4.711   3.070   6.397
17220SOL    HW153667  15.828   3.016  17.423
17220SOL    HW253668   4.745   3.160   6.400
17221SOL     OW53669   9.870   0.545   5.189
17221SOL    HW153670   9.854   0.620  -5.794
17221SOL    HW253671  -1.236   0.481   5.213
17222SOL     OW53672  10.774   4.075   8.081
17222SOL    HW153673  10.687  -6.946   8.046
17222SOL    HW253674  10.806  -6.881   8.113
17223SOL     OW53675  10.570   1.479   1.644
17223SOL    HW153676  10.550   1.555   1.589
17223SOL    HW253677  -0.416   1.422  12.628
17224SOL     OW53678   5.676   7.696   2.635
17224SOL    HW153679   5.633   7.779   2.614
17224SOL    HW253680   5.666   7.644   2.555
17225SOL     OW53681  10.276   7.995   1.979
17225SOL    HW153682  10.201  -3.101   1.959
17225SOL    HW253683  21.386   7.934  -9.038
17226SOL     OW53684   4.022   0.592   7.517
17226SOL    HW153685   4.089   0.535  -3.483
17226SOL    HW253686   4.066   0.632 -14.637
17227SOL     OW53687   2.112  10.851   7.777
17227SOL    HW153688   2.191  -0.238   7.800
17227SOL    HW253689   2.137  10.943   7.790
17228SOL     OW53690   6.510   1.424   8.542
17228SOL    HW153691 -26.569  12.482   8.626
17228SOL    HW253692  -4.463   1.375   8.494
17229SOL     OW53693   6.736   6.949   8.767
17229SOL    HW153694  17.787   6.900   8.685
17229SOL    HW253695   6.819  17.978   8.813
17230SOL     OW53696   1.113   3.642   7.187
17230SOL    HW153697   1.028   3.679   7.213
17230SOL    HW253698  12.205   3.645   7.267
17231SOL     OW53699   5.815   1.811   3.509
17231SOL    HW153700 -16.262  -9.321  -7.555
17231SOL    HW253701   5.722  -9.210  -7.519
17232SOL     OW53702   9.880   4.966   6.154
17232SOL    HW153703   9.962  27.055   6.106
17232SOL    HW253704   9.849   5.056   6.166
17233SOL     OW53705   9.099   9.398   6.012
17233SOL    HW153706  20.055  20.449  28.136
17233SOL    HW253707   9.151   9.343   6.071
17234SOL     OW53708   3.587   9.668   5.515
17234SOL    HW153709   3.554   9.755   5.489
17234SOL    HW253710   3.584   9.617   5.434
17235SOL     OW53711   7.620   8.875   2.545
17235SOL    HW153712   7.610  20.008  -8.513
17235SOL    HW253713   7.548   8.854  -8.435
17236SOL     OW53714   4.649   4.834   1.757
17236SOL    HW153715   4.679  15.787 -20.352
17236SOL    HW253716   4.615  15.915   1.678
17237SOL     OW53717  -0.298   7.260   6.402
17237SOL    HW153718  21.821   7.302   6.479
17237SOL    HW253719  21.725   7.328  -4.675
17238SOL     OW53720   7.092   0.997   1.662
17238SOL    HW153721  -4.009   1.065 -20.389
17238SOL    HW253722   7.087  12.039   1.566
17239SOL     OW53723   2.916   7.221  10.246
17239SOL    HW153724   2.860   7.143  10.237
17239SOL    HW253725   2.991 -14.888  21.337
17240SOL     OW53726  -4.284   9.131   3.543
17240SOL    HW153727  62.033  20.219   3.563
17240SOL    HW253728   6.785   9.040   3.533
17241SOL     OW53729   2.066   4.036   2.576
17241SOL    HW153730   2.090   3.948   2.605
17241SOL    HW253731   2.007  -7.019  35.620
17242SOL     OW53732   3.545   6.129   8.121
17242SOL    HW153733   3.612   6.130  -2.988
17242SOL    HW253734   3.574   6.060  -2.859
17243SOL     OW53735   8.047  10.606   3.259
17243SOL    HW153736   7.958  10.643   3.256
17243SOL    HW253737   8.062  10.589 -29.767
17244SOL     OW53738   9.123   5.656   2.527
17244SOL    HW153739   9.166   5.593   2.470
17244SOL    HW253740  -1.872   5.647   2.611
17245SOL     OW53741   9.241   0.354   6.074
17245SOL    HW153742 -12.770   0.287  -4.971
17245SOL    HW253743  -1.839   0.340 -37.998
17246SOL     OW53744  11.716  10.787  -1.492
17246SOL    HW153745  11.727  10.846  42.591
17246SOL    HW253746 -10.423  10.719 -12.563
17247SOL     OW53747   2.008   8.433   2.178
17247SOL    HW153748  -8.956   8.411   2.123
17247SOL    HW253749  -9.087   8.355   2.177
17248SOL     OW53750   6.232   1.449   0.507
17248SOL    HW153751  -4.838   1.517   0.567
17248SOL    HW253752   6.235  12.531   0.422
17249SOL     OW53753   4.730   3.293   5.739
17249SOL    HW153754   4.703   3.366   5.684
17249SOL    HW253755   4.825   3.287  38.845
17250SOL     OW53756   4.867   2.502   4.152
17250SOL    HW153757   4.890   2.432   4.091
17250SOL    HW253758   4.951   2.535  -6.856
17251SOL     OW53759   2.121  11.145   7.837
17251SOL    HW153760   2.135   0.200  -3.201
17251SOL    HW253761   2.140  11.119   7.747
17252SOL     OW53762   7.412   0.178   7.025
17252SOL    HW153763  -3.664  33.385  18.072
17252SOL    HW253764  -3.703   0.122 -15.075
17253SOL     OW53765  -1.369   8.433   9.958
17253SOL    HW153766   9.764 -24.683   9.936
17253SOL    HW253767  20.697   8.508  10.016
17254SOL     OW53768   3.386   6.368   6.203
17254SOL    HW153769   3.309  -4.631   6.163
17254SOL    HW253770   3.403   6.421  17.320
17255SOL     OW53771   3.112   0.300   9.055
17255SOL    HW153772 -19.002   0.212   9.069
17255SOL    HW253773   3.132   0.332  20.183
17256SOL     OW53774   2.817   7.894   3.037
17256SOL    HW153775   2.821   7.824   3.102
17256SOL    HW253776   2.729   7.931   3.047
17257SOL     OW53777   4.649   3.699  10.523
17257SOL    HW153778   4.578   3.651  10.566
17257SOL    HW253779   4.692   3.634  10.468
17258SOL     OW53780   6.660   9.922  10.157
17258SOL    HW153781   6.592   9.863  10.187
17258SOL    HW253782   6.623  10.010  10.170
17259SOL     OW53783   3.587   9.192  10.886
17259SOL    HW153784  -7.408   9.213  10.804
17259SOL    HW253785   3.654   9.202  10.953
17260SOL     OW53786   6.274   9.402   6.538
17260SOL    HW153787   6.359  20.399   6.547
17260SOL    HW253788   6.240   9.370   6.454
17261SOL     OW53789   9.253   1.337   3.047
17261SOL    HW153790   9.302   1.356   2.967
17261SOL    HW253791   9.319  12.381   3.117
17262SOL     OW53792  10.516   1.608   7.760
17262SOL    HW153793  10.444   1.670   7.761
17262SOL    HW253794  10.499   1.550  18.875
17263SOL     OW53795   4.912  10.811   5.632
17263SOL    HW153796 -17.215  10.820   5.714
17263SOL    HW253797 -28.267  10.843   5.565
17264SOL     OW53798   6.815   3.864   7.165
17264SOL    HW153799   6.822   3.958   7.148
17264SOL    HW253800   6.737   3.837  40.234
17265SOL     OW53801   7.989   2.343   5.549
17265SOL    HW153802   7.915   2.301   5.505
17265SOL    HW253803   7.977  13.364   5.642
17266SOL     OW53804   2.237   6.736  -0.116
17266SOL    HW153805   2.233   6.673  -0.044
17266SOL    HW253806   2.177  17.740  21.897
17267SOL     OW53807  13.170   8.163   9.685
17267SOL    HW153808   2.097   8.208   9.608
17267SOL    HW253809 -19.952   8.228   9.755
17268SOL     OW53810   9.573   0.889   1.309
17268SOL    HW153811   9.546   0.887  12.441
17268SOL    HW253812  20.610   0.981  23.364
17269SOL     OW53813   5.609  10.073   4.344
17269SOL    HW153814  71.883  10.045  37.547
17269SOL    HW253815  16.603   9.996   4.311
17270SOL     OW53816   5.740   8.291   8.454
17270SOL    HW153817   5.820  19.376   8.429
17270SOL    HW253818   5.697  19.309   8.372
17271SOL     OW53819   6.223  11.473   2.108
17271SOL    HW153820  -4.802  11.565 -19.994
17271SOL    HW253821   6.298 -10.652   2.070
17272SOL     OW53822   8.597   0.597   6.798
17272SOL    HW153823   8.515  11.684   6.810
17272SOL    HW253824   8.571   0.508   6.776
17273SOL     OW53825   3.624   4.620   4.582
17273SOL    HW153826  25.633   4.672   4.621
17273SOL    HW253827  14.660  15.680   4.489
17274SOL     OW53828   8.056   5.429   0.970
17274SOL    HW153829   8.078   5.381   1.050
17274SOL    HW253830   8.035  -5.679  22.986
17275SOL     OW53831   8.333  10.064   6.161
17275SOL    HW153832   8.256  10.062  28.183
17275SOL    HW253833   8.351   9.972   6.180
17276SOL     OW53834  10.106   6.109   1.475
17276SOL    HW153835  10.024   6.155   1.496
17276SOL    HW253836  10.119   6.124   1.382
17277SOL     OW53837  -0.720   2.882   1.550
17277SOL    HW153838  -0.640  -8.111  -9.463
17277SOL    HW253839  32.346   2.948   1.507
17278SOL     OW53840   5.819   8.017   0.348
17278SOL    HW153841   5.903  19.099   0.361
17278SOL    HW253842 -27.316  19.009   0.430
17279SOL     OW53843   7.643   4.788   5.036
17279SOL    HW153844  18.629   4.708  38.155
17279SOL    HW253845   7.581  -6.182   5.012
17280SOL     OW53846  10.451   9.878   8.503
17280SOL    HW153847  10.432   9.896   8.411
17280SOL    HW253848  10.521   9.939   8.526
17281SOL     OW53849   0.887   5.376   0.232
17281SOL    HW153850   0.808   5.323   0.224
17281SOL    HW253851   0.934   5.338   0.307
17282SOL     OW53852   1.961   6.536  10.246
17282SOL    HW153853 -20.211   6.521  10.261
17282SOL    HW253854   1.988   6.465  21.227
17283SOL     OW53855   9.911   1.487   8.955
17283SOL    HW153856   9.912   1.470   9.050
17283SOL    HW253857  -1.054  -9.602  -2.118
17284SOL     OW53858  -0.428   6.432   7.908
17284SOL    HW153859  -0.461   6.348   7.941
17284SOL    HW253860  21.576   6.491   7.915
17285SOL     OW53861   3.867   3.658   4.131
17285SOL    HW153862  14.861  -7.298   4.135
17285SOL    HW253863   3.804 -18.485   4.165
17286SOL     OW53864   6.969   9.481   2.393
17286SOL    HW153865   6.911   9.441   2.457
17286SOL    HW253866  18.086   9.507   2.444
17287SOL     OW53867   3.444   7.656   5.691
17287SOL    HW153868  -7.553   7.728   5.645
17287SOL    HW253869   3.357  18.690   5.653
17288SOL     OW53870   0.546   7.312   5.494
17288SOL    HW153871   0.562  -3.711   5.587
17288SOL    HW253872  22.629   7.217 -27.633
17289SOL     OW53873   0.151   6.551  11.729
17289SOL    HW153874   0.173   6.598 -21.309
17289SOL    HW253875   0.227   6.496   0.671
17290SOL     OW53876   2.153   4.288   5.784
17290SOL    HW153877   2.088   4.218   5.773
17290SOL    HW253878   2.151   4.306   5.878
17291SOL     OW53879   5.263   2.837   8.246
17291SOL    HW153880   5.232   2.844  -2.885
17291SOL    HW253881  49.376  24.839   8.280
17292SOL     OW53882   1.608   9.939  -1.576
17292SOL    HW153883   1.610  10.006  20.572
17292SOL    HW253884   1.594   9.987   9.383
17293SOL     OW53885   7.120   7.290   1.740
17293SOL    HW153886   7.196   7.277   1.796
17293SOL    HW253887 -14.996   7.373   1.767
17294SOL     OW53888   1.916   6.569   8.287
17294SOL    HW153889   1.877   6.533  19.406
17294SOL    HW253890   1.855  -4.402  30.338
17295SOL     OW53891   4.082   7.958   4.629
17295SOL    HW153892   4.104   7.866  15.657
17295SOL    HW253893   4.164   7.999   4.659
17296SOL     OW53894   6.474   2.428   5.290
17296SOL    HW153895   6.512  13.440   5.206
17296SOL    HW253896   6.536  -8.547   5.323
17297SOL     OW53897   1.119   1.360   7.205
17297SOL    HW153898   1.033   1.318   7.212
17297SOL    HW253899  -9.932  -9.612   7.138
17298SOL     OW53900   3.151   7.889   1.657
17298SOL    HW153901  -7.855   7.963  23.686
17298SOL    HW253902   3.060   7.881  -9.411
17299SOL     OW53903   0.623   6.734   0.297
17299SOL    HW153904   0.667   6.794   0.356
17299SOL    HW253905   0.556  -4.349  33.469
17300SOL     OW53906  11.540   3.363   2.133
17300SOL    HW153907   0.407   3.344   2.138
17300SOL    HW253908  11.571   3.313   2.057
17301SOL     OW53909   0.533   8.299   6.000
17301SOL    HW153910   0.583  19.394   6.060
17301SOL    HW253911   0.590   8.288 -16.155
17302SOL     OW53912   9.986   0.425   8.875
17302SOL    HW153913  -1.050   0.497   8.938
17302SOL    HW253914  10.076   0.416   8.844
17303SOL     OW53915   2.959   3.983   5.808
17303SOL    HW153916  13.952  26.000   5.865
17303SOL    HW253917   2.972   3.935   5.726
17304SOL     OW53918   1.256   3.085   8.880
17304SOL    HW153919   1.285  25.108   8.807
17304SOL    HW253920  23.241  36.212   8.867
17305SOL     OW53921   7.032   8.627   5.176
17305SOL    HW153922  -3.918  30.705   5.208
17305SOL    HW253923  -4.055  19.722   5.238
17306SOL     OW53924   2.234   9.417  -2.480
17306SOL    HW153925   2.199   9.483  30.578
17306SOL    HW253926  -8.830  -1.706  19.560
17307SOL     OW53927   0.764   3.359  10.475
17307SOL    HW153928  22.939  25.433  10.468
17307SOL    HW253929   0.731   3.302  -0.634
17308SOL     OW53930  -0.290   8.074   6.568
17308SOL    HW153931  21.792   8.124  17.690
17308SOL    HW253932  -0.360  19.050   6.581
17309SOL     OW53933   3.579  -0.390   1.295
17309SOL    HW153934  14.558  -0.364  12.404
17309SOL    HW253935   3.547  10.564   1.266
17310SOL     OW53936   5.952   9.157   1.553
17310SOL    HW153937   5.869   9.124   1.518
17310SOL    HW253938   6.013   9.085   1.542
17311SOL     OW53939   5.016  10.022   1.046
17311SOL    HW153940   4.967  10.103   1.029
17311SOL    HW253941   4.979   9.987   1.127
17312SOL     OW53942  10.417   7.450   3.712
17312SOL    HW153943  10.482   7.380  25.787
17312SOL    HW253944  10.446 -14.574   3.785
17313SOL     OW53945   3.045   6.470   5.908
17313SOL    HW153946   3.111   6.489   5.976
17313SOL    HW253947  14.073   6.553   5.862
17314SOL     OW53948   3.218   1.623   9.733
17314SOL    HW153949  -7.772   1.683   9.788
17314SOL    HW253950  14.168   1.656  20.776
17315SOL     OW53951   8.516   8.633   8.795
17315SOL    HW153952   8.518   8.688  -2.167
17315SOL    HW253953   8.607 -13.471   8.780
17316SOL     OW53954   8.453   0.897   3.736
17316SOL    HW153955   8.475   0.842  36.780
17316SOL    HW253956   8.512   0.972  14.768
17317SOL     OW53957   3.834  11.185   6.244
17317SOL    HW153958   3.930  11.186   6.244
17317SOL    HW253959  14.849   0.229   6.205
17318SOL     OW53960   5.172   1.242   9.133
17318SOL    HW153961  -5.927   1.204  31.146
17318SOL    HW253962   5.119  12.346   9.179
17319SOL     OW53963   5.776   0.279   2.855
17319SOL    HW153964   5.852   0.307  13.947
17319SOL    HW253965   5.708   0.263   2.920
17320SOL     OW53966   1.074   9.235   3.982
17320SOL    HW153967   1.067   9.170   4.053
17320SOL    HW253968 -10.027   9.203   3.915
17321SOL     OW53969   7.926   1.520   4.110
17321SOL    HW153970   8.015  -9.512   4.143
17321SOL    HW253971   7.936   1.492   4.019
17322SOL     OW53972  10.400   0.639   3.591
17322SOL    HW153973  10.469   0.595   3.640
17322SOL    HW253974  10.420  11.661   3.499
17323SOL     OW53975   9.272   9.554   1.857
17323SOL    HW153976  -1.727  31.703  12.845
17323SOL    HW253977   9.302   9.473  -9.225
17324SOL     OW53978   0.170  12.019   0.853
17324SOL    HW153979   0.109  12.007   0.779
17324SOL    HW253980   0.203 -21.011  22.920
17325SOL     OW53981   0.259   3.349   6.752
17325SOL    HW153982  11.242   3.272  -4.278
17325SOL    HW253983   0.325   3.338  -4.219
17326SOL     OW53984   9.108   1.548   9.599
17326SOL    HW153985  -1.886  -9.507   9.682
17326SOL    HW253986  20.218   1.559  20.575
17327SOL     OW53987   8.393   4.443   2.272
17327SOL    HW153988  -2.719  -6.656  13.330
17327SOL    HW253989   8.365   4.527   2.308
17328SOL     OW53990   4.175   8.986   8.383
17328SOL    HW153991   4.131 -13.044   8.453
17328SOL    HW253992  26.235   9.036   8.304
17329SOL     OW53993   3.153   1.197   7.195
17329SOL    HW153994   3.217   1.229   7.258
17329SOL    HW253995  25.236   1.101   7.202
17330SOL     OW53996   0.393   2.812   9.784
17330SOL    HW153997   0.474  24.841  20.836
17330SOL    HW253998  22.461   2.818   9.690
17331SOL     OW53999   7.988   7.960   7.398
17331SOL    HW154000  -2.990   7.903  18.391
17331SOL    HW254001   7.902  -3.104   7.365
17332SOL     OW54002   2.839   3.672   0.376
17332SOL    HW154003   2.853   3.622   0.295
17332SOL    HW254004  -8.198   3.606  11.485
17333SOL     OW54005   9.218   0.131   0.971
17333SOL    HW154006   9.308  11.193   0.949
17333SOL    HW254007   9.222   0.103   1.063
17334SOL     OW54008   1.590   1.441   5.724
17334SOL    HW154009   1.535   1.513  16.734
17334SOL    HW254010   1.554   1.417   5.810
17335SOL     OW54011   3.939   9.440  -1.662
17335SOL    HW154012  -7.101  20.424  20.340
17335SOL    HW254013 -40.126  -1.589  20.438
17336SOL     OW54014   8.722   4.531   8.758
17336SOL    HW154015 -24.326  26.666   8.725
17336SOL    HW254016   8.650   4.592   8.777
17337SOL     OW54017   9.714   6.753   0.716
17337SOL    HW154018   9.670   6.821   0.768
17337SOL    HW254019  20.684   6.715 -10.377
17338SOL     OW54020   1.318   3.608   6.678
17338SOL    HW154021   1.388  25.747   6.704
17338SOL    HW254022   1.292   3.565   6.759
17339SOL     OW54023   1.207   4.750   3.061
17339SOL    HW154024  -9.786   4.727   3.141
17339SOL    HW254025  12.306  15.765  14.030
17340SOL     OW54026   4.993   5.082  10.539
17340SOL    HW154027   4.973  16.179  10.613
17340SOL    HW254028 -28.113  -5.898  10.465
17341SOL     OW54029   6.735   2.561   6.484
17341SOL    HW154030  17.729  -8.416   6.541
17341SOL    HW254031  17.712   2.541   6.415
17342SOL     OW54032   4.636   6.164   0.530
17342SOL    HW154033  -6.373  17.212  22.700
17342SOL    HW254034   4.622   6.254  11.541
17343SOL     OW54035   7.384   9.820   2.525
17343SOL    HW154036 -47.744  20.923   2.539
17343SOL    HW254037   7.390   9.760   2.599
17344SOL     OW54038   8.053   1.566  10.819
17344SOL    HW154039   7.964   1.538  10.840
17344SOL    HW254040   8.104   1.540  10.895
17345SOL     OW54041   1.805   2.121   7.772
17345SOL    HW154042  -9.249  13.256   7.771
17345SOL    HW254043   1.824   2.098   7.682
17346SOL     OW54044   0.148   5.635   3.810
17346SOL    HW154045   0.116   5.719   3.775
17346SOL    HW254046   0.238  27.708   3.779
17347SOL     OW54047   3.127   2.413   5.369
17347SOL    HW154048   3.206   2.431   5.420
17347SOL    HW254049   3.072   2.490   5.381
17348SOL     OW54050  10.571   8.954   3.462
17348SOL    HW154051  -0.531 -24.150   3.533
17348SOL    HW254052 -11.543   8.878  -7.624
17349SOL     OW54053   5.399   2.576   7.944
17349SOL    HW154054   5.454   2.653   7.930
17349SOL    HW254055   5.396   2.566   8.040
17350SOL     OW54056   9.391   6.589   4.617
17350SOL    HW154057 -12.705   6.602   4.524
17350SOL    HW254058   9.317  28.616   4.647
17351SOL     OW54059  10.042   5.408   0.736
17351SOL    HW154060   9.951   5.416   0.765
17351SOL    HW254061 -12.004  16.537   0.734
17352SOL     OW54062   4.730   2.887   0.138
17352SOL    HW154063  -6.302   2.966   0.085
17352SOL    HW254064  -6.357  24.904   0.082
17353SOL     OW54065  10.473   6.927   1.742
17353SOL    HW154066 -11.681   6.877   1.708
17353SOL    HW254067  10.512 -15.112   1.665
17354SOL     OW54068   8.383   9.725   7.661
17354SOL    HW154069   8.397   9.820   7.661
17354SOL    HW254070  30.372   9.714  -3.347
17355SOL     OW54071   4.066  11.000  11.922
17355SOL    HW154072   4.027  11.048 -10.230
17355SOL    HW254073   4.002  11.009 -21.126
17356SOL     OW54074   1.527   1.758  10.495
17356SOL    HW154075   1.469   1.689  10.529
17356SOL    HW254076   1.504  -9.204  10.546
17357SOL     OW54077   7.519   3.579   3.264
17357SOL    HW154078   7.488   3.636  14.232
17357SOL    HW254079   7.438   3.551   3.308
17358SOL     OW54080  -0.952   6.724   3.738
17358SOL    HW154081  21.034   6.731   3.755
17358SOL    HW254082  -0.934   6.630  -7.296
17359SOL     OW54083   9.789   3.018   1.460
17359SOL    HW154084   9.703   3.050   1.434
17359SOL    HW254085   9.785  -8.116   1.443
17360SOL     OW54086   3.129   0.750   3.810
17360SOL    HW154087   3.167   0.662   3.814
17360SOL    HW254088  -7.975   0.744   3.739
17361SOL     OW54089   9.576   8.925   0.721
17361SOL    HW154090  -1.499   8.976   0.793
17361SOL    HW254091   9.671  31.009 -10.307
17362SOL     OW54092   7.360   9.672   7.409
17362SOL    HW154093   7.446   9.671  -3.589
17362SOL    HW254094  -3.669  -1.422  18.370
17363SOL     OW54095   3.835   5.885   0.432
17363SOL    HW154096  14.884   5.791  11.482
17363SOL    HW254097   3.847  -5.139   0.338
17364SOL     OW54098   2.859  10.668   9.966
17364SOL    HW154099  -8.114  10.694  10.030
17364SOL    HW254100   2.777  10.704  10.001
17365SOL     OW54101   2.328   2.532  11.012
17365SOL    HW154102   2.350  13.623  -0.106
17365SOL    HW254103   2.249   2.574   0.006
17366SOL     OW54104   3.352   4.731   5.577
17366SOL    HW154105 -40.719   4.720   5.615
17366SOL    HW254106   3.353   4.678   5.497
17367SOL     OW54107   4.723   9.193  10.907
17367SOL    HW154108 -17.426   9.258  10.894
17367SOL    HW254109   4.718  -1.903  10.830
17368SOL     OW54110  10.944   4.820   2.653
17368SOL    HW154111  -0.043   4.826   2.733
17368SOL    HW254112  10.948   4.907   2.615
17369SOL     OW54113   9.918   7.110   8.358
17369SOL    HW154114  10.002   7.083   8.396
17369SOL    HW254115   9.932   7.201   8.332
17370SOL     OW54116   8.135   7.107   4.608
17370SOL    HW154117   8.090  -3.975   4.681
17370SOL    HW254118  -2.812   7.090   4.623
17371SOL     OW54119  10.416   5.628   7.238
17371SOL    HW154120  10.420   5.597   7.328
17371SOL    HW254121  10.507   5.628   7.208
17372SOL     OW54122   9.927   6.260   4.624
17372SOL    HW154123  10.005   6.296 -17.412
17372SOL    HW254124   9.886   6.205   4.690
17373SOL     OW54125   6.739   4.897   9.742
17373SOL    HW154126   6.794  -6.138   9.663
17373SOL    HW254127  17.832   4.937  20.850
17374SOL     OW54128  10.659   1.839   2.771
17374SOL    HW154129  10.734   1.899   2.771
17374SOL    HW254130  10.666  12.832 -19.391
17375SOL     OW54131   0.893   9.469  10.362
17375SOL    HW154132   0.900   9.561  10.388
17375SOL    HW254133   0.919   9.468  10.270
17376SOL     OW54134   0.483  10.185   5.459
17376SOL    HW154135   0.496  10.141   5.543
17376SOL    HW254136   0.398  21.194   5.428
17377SOL     OW54137   5.580   6.170  -0.260
17377SOL    HW154138   5.596   6.256  32.898
17377SOL    HW254139  16.630  39.227  10.853
17378SOL     OW54140   1.832   7.214   4.996
17378SOL    HW154141  35.028   7.263   5.023
17378SOL    HW254142   1.795   7.266   4.924
17379SOL     OW54143   8.823   4.183   2.653
17379SOL    HW154144 -24.364   4.162  13.756
17379SOL    HW254145   8.885   4.110   2.660
17380SOL     OW54146   8.210   2.032   4.367
17380SOL    HW154147  19.222  13.129  15.479
17380SOL    HW254148   8.128   2.003   4.327
17381SOL     OW54149   7.592   2.853   5.019
17381SOL    HW154150   7.579   2.947   5.036
17381SOL    HW254151   7.664   2.828  -5.962
17382SOL     OW54152   8.930   4.371   6.496
17382SOL    HW154153   8.958 -17.681   6.584
17382SOL    HW254154   9.004   4.395  17.479
17383SOL     OW54155   6.149   8.496   7.526
17383SOL    HW154156 -15.846   8.537   7.508
17383SOL    HW254157   6.139   8.501  -3.419
17384SOL     OW54158   7.417  10.367   1.756
17384SOL    HW154159  29.591  10.379   1.757
17384SOL    HW254160  18.436  10.331   1.842
17385SOL     OW54161  11.231   6.455   7.783
17385SOL    HW154162  11.318  17.525 -14.323
17385SOL    HW254163 -10.857  39.488 -14.337
17386SOL     OW54164   4.298   0.197   7.552
17386SOL    HW154165   4.264   0.122  18.640
17386SOL    HW254166   4.328   0.160   7.469
17387SOL     OW54167  10.162   5.103  11.417
17387SOL    HW154168  -0.855   5.145  11.500
17387SOL    HW254169  -0.822   5.148   0.313
17388SOL     OW54170  10.562   5.823   6.897
17388SOL    HW154171  10.482   5.792   6.853
17388SOL    HW254172  -0.407   5.802   6.836
17389SOL     OW54173   9.235   7.876   3.144
17389SOL    HW154174   9.144  18.911 -18.907
17389SOL    HW254175   9.280   7.811   3.197
17390SOL     OW54176  10.133   2.169   8.646
17390SOL    HW154177  10.144   2.235   8.577
17390SOL    HW254178  10.220  13.198  30.763
17391SOL     OW54179  10.947   3.966   1.249
17391SOL    HW154180  10.909  26.132   1.241
17391SOL    HW254181  -0.001  15.021  34.390
17392SOL     OW54182   6.698   0.325   1.794
17392SOL    HW154183   6.637   0.304   1.723
17392SOL    HW254184 -15.354   0.239   1.828
17393SOL     OW54185   4.067  -1.767  10.896
17393SOL    HW154186   4.129  31.287  10.931
17393SOL    HW254187   4.051  -1.707  10.969
17394SOL     OW54188   1.496   8.026   4.733
17394SOL    HW154189   1.559  19.002  15.739
17394SOL    HW254190   1.550   8.092   4.777
17395SOL     OW54191   4.768   8.247   5.539
17395SOL    HW154192   4.703  41.413   5.592
17395SOL    HW254193   4.758   8.284  38.570
17396SOL     OW54194   6.891   8.901   4.351
17396SOL    HW154195   6.841  31.018  15.318
17396SOL    HW254196   6.964  20.001   4.363
17397SOL     OW54197   2.200   3.798  10.870
17397SOL    HW154198   2.271   3.789  10.806
17397SOL    HW254199  24.258   3.892  10.869
17398SOL     OW54200   1.950   7.920   4.207
17398SOL    HW154201   1.877   7.915   4.269
17398SOL    HW254202   1.999   7.998   4.235
17399SOL     OW54203   9.560  10.074   5.257
17399SOL    HW154204   9.593  10.154   5.218
17399SOL    HW254205 -12.610  21.134  16.321
17400SOL     OW54206   6.358   3.937   4.672
17400SOL    HW154207  17.452   3.964   4.746
17400SOL    HW254208   6.419   3.898   4.610
17401SOL     OW54209   1.132   5.989   8.297
17401SOL    HW154210   1.064   6.039 -13.737
17401SOL    HW254211  -9.947 -38.255   8.282
17402SOL     OW54212   5.557   4.943   2.272
17402SOL    HW154213   5.499   4.971  24.422
17402SOL    HW254214   5.620   4.885  13.355
17403SOL     OW54215   9.059  -0.293   7.916
17403SOL    HW154216  -1.919  10.775  18.888
17403SOL    HW254217   9.096  -0.258  30.076
17404SOL     OW54218   7.038   4.244  10.292
17404SOL    HW154219 -37.183   4.246  10.220
17404SOL    HW254220   7.091   4.323  10.280
17405SOL     OW54221   2.874   6.084   1.635
17405SOL    HW154222   2.872   6.141 -20.367
17405SOL    HW254223   2.851   6.141   1.562
17406SOL     OW54224   6.513   2.642   3.999
17406SOL    HW154225  28.527  -8.374   4.064
17406SOL    HW254226   6.562   2.723   3.983
17407SOL     OW54227   3.998  10.016   7.995
17407SOL    HW154228   4.054  20.982   8.017
17407SOL    HW254229   3.918   9.976   7.959
17408SOL     OW54230   4.122   7.030  10.459
17408SOL    HW154231   4.124   6.969  10.385
17408SOL    HW254232  37.297   7.103  10.433
17409SOL     OW54233   4.690   3.214   9.841
17409SOL    HW154234   4.737   3.226   9.924
17409SOL    HW254235   4.645 -18.782   9.827
17410SOL     OW54236   6.875   9.710  13.326
17410SOL    HW154237   6.795   9.690  -8.803
17410SOL    HW254238   6.920   9.626 -19.786
17411SOL     OW54239   8.016   4.794   5.224
17411SOL    HW154240   7.991  60.009   5.315
17411SOL    HW254241  -3.045  48.859   5.211
17412SOL     OW54242   9.816  10.400   9.794
17412SOL    HW154243   9.901  10.421   9.755
17412SOL    HW254244   9.777  10.336   9.733
17413SOL     OW54245   6.958   4.634   1.356
17413SOL    HW154246   7.001   4.549   1.364
17413SOL    HW254247   7.030   4.697   1.347
17414SOL     OW54248   7.415   3.691   9.751
17414SOL    HW154249   7.333  36.789   9.796
17414SOL    HW254250  18.448  25.723  20.707
17415SOL     OW54251  -0.996   6.634   5.337
17415SOL    HW154252  -0.984   6.711   5.393
17415SOL    HW254253  21.013   6.585   5.379
17416SOL     OW54254   2.701   6.997   3.375
17416SOL    HW154255  13.708   6.909   3.394
17416SOL    HW254256   2.687   7.047  -7.584
17417SOL     OW54257   3.029   2.047   4.316
17417SOL    HW154258  14.083   2.140   4.298
17417SOL    HW254259   3.069   2.032   4.401
17418SOL     OW54260   3.070   5.922   9.180
17418SOL    HW154261   3.155   5.957   9.156
17418SOL    HW254262   3.064   5.934   9.275
17419SOL     OW54263   7.325   8.099   8.419
17419SOL    HW154264  -3.647   8.032   8.430
17419SOL    HW254265   7.354   8.171   8.474
17420SOL     OW54266   9.167   9.470   2.352
17420SOL    HW154267   9.200   9.460   2.263
17420SOL    HW254268   9.078   9.437  13.390
17421SOL     OW54269   8.745   9.479  10.776
17421SOL    HW154270   8.785  -1.526  -0.184
17421SOL    HW254271 -13.416   9.440  10.805
17422SOL     OW54272   1.484   7.538   2.379
17422SOL    HW154273   1.435 -14.466   2.412
17422SOL    HW254274   1.423   7.465   2.384
17423SOL     OW54275   6.698  10.082   5.524
17423SOL    HW154276   6.664  21.090  -5.432
17423SOL    HW254277   6.789  10.053  -5.516
17424SOL     OW54278   5.136   7.998   5.219
17424SOL    HW154279   5.198   8.028   5.152
17424SOL    HW254280   5.100   7.917   5.183
17425SOL     OW54281   3.912   1.371   4.753
17425SOL    HW154282  37.094   1.307  -6.320
17425SOL    HW254283  14.867  12.366   4.747
17426SOL     OW54284   7.076   4.106   0.211
17426SOL    HW154285   7.032  26.189  22.375
17426SOL    HW254286   7.082   4.013 -10.848
17427SOL     OW54287   7.345   3.450   1.439
17427SOL    HW154288  -3.691   3.444   1.534
17427SOL    HW254289  18.297   3.418   1.416
17428SOL     OW54290  10.535   7.391   3.267
17428SOL    HW154291  10.605   7.326  14.293
17428SOL    HW254292 -11.606   7.348   3.326
17429SOL     OW54293  -1.328   9.177   4.919
17429SOL    HW154294   9.749  31.168  27.001
17429SOL    HW254295  31.700  20.204   4.892
17430SOL     OW54296   3.219   9.729   8.186
17430SOL    HW154297 -18.902  20.831   8.245
17430SOL    HW254298  25.251  20.777   8.104
17431SOL     OW54299   2.379   1.594   4.827
17431SOL    HW154300  24.433   1.526   4.764
17431SOL    HW254301   2.466   1.622 -28.319
17432SOL     OW54302   1.029   3.701   4.159
17432SOL    HW154303  23.020  36.855   4.153
17432SOL    HW254304   1.025   3.619   4.109
17433SOL     OW54305   8.767   1.567  10.245
17433SOL    HW154306  -2.338   1.627  10.281
17433SOL    HW254307   8.823   1.545  10.319
17434SOL     OW54308   9.412   8.745  10.842
17434SOL    HW154309   9.344  -2.268  10.780
17434SOL    HW254310   9.483   8.807  10.828
17435SOL     OW54311   8.694   5.972  -0.899
17435SOL    HW154312   8.784   5.941  21.176
17435SOL    HW254313   8.643  16.944  21.135
17436SOL     OW54314   5.757  11.018   3.867
17436SOL    HW154315   5.687  10.991   3.807
17436SOL    HW254316  27.790  11.059 -18.139
17437SOL     OW54317   3.172   5.855   5.343
17437SOL    HW154318   3.148 -16.204  -5.787
17437SOL    HW254319   3.268   5.848   5.342
17438SOL     OW54320   7.798   3.777   4.845
17438SOL    HW154321   7.823  14.727   4.869
17438SOL    HW254322   7.847   3.833  -6.134
17439SOL     OW54323   6.529   7.483   3.519
17439SOL    HW154324  -4.585   7.475   3.460
17439SOL    HW254325   6.496  18.495   3.604
17440SOL     OW54326   3.608   8.423   0.298
17440SOL    HW154327   3.629   8.508   0.259
17440SOL    HW254328   3.582   8.368   0.224
17441SOL     OW54329   4.109   4.646   3.004
17441SOL    HW154330   4.053   4.634   2.927
17441SOL    HW254331  -6.847   4.674   2.968
17442SOL     OW54332   8.697   8.556   1.069
17442SOL    HW154333   8.705   8.495   1.143
17442SOL    HW254334   8.603   8.570   1.059
17443SOL     OW54335   4.549   9.474   2.515
17443SOL    HW154336   4.488   9.533   2.558
17443SOL    HW254337  15.645   9.532  13.503
17444SOL     OW54338   9.927   6.353   3.965
17444SOL    HW154339  10.000  -4.624 -18.118
17444SOL    HW254340   9.969   6.267 -18.122
17445SOL     OW54341   3.378   1.250   0.254
17445SOL    HW154342   3.424  -9.733  11.356
17445SOL    HW254343  -7.680   1.307  11.219
17446SOL     OW54344  10.355   1.907   8.699
17446SOL    HW154345  10.299   1.833   8.723
17446SOL    HW254346  10.367  -9.141  -2.436
17447SOL     OW54347   2.923   6.890   9.596
17447SOL    HW154348   2.994  -4.135   9.659
17447SOL    HW254349  13.990   6.939   9.518
17448SOL     OW54350   0.396   1.685  10.799
17448SOL    HW154351   0.332   1.744  -0.278
17448SOL    HW254352   0.385   1.603  10.751
17449SOL     OW54353   3.610   1.679   2.637
17449SOL    HW154354   3.520  -9.376   2.666
17449SOL    HW254355   3.662   1.678   2.718
17450SOL     OW54356   7.827   2.185  10.045
17450SOL    HW154357   7.817   2.123  10.117
17450SOL    HW254358   7.879   2.257  10.083
17451SOL     OW54359   4.134   0.945   2.817
17451SOL    HW154360  26.163  22.968  -8.281
17451SOL    HW254361   4.208  34.009   2.844
17452SOL     OW54362   4.893  10.160   2.626
17452SOL    HW154363   4.855  21.124   2.580
17452SOL    HW254364  15.891  10.236  24.665
17453SOL     OW54365   5.124   4.450  11.281
17453SOL    HW154366  16.074   4.420   0.232
17453SOL    HW254367  27.196   4.535  11.326
17454SOL     OW54368   9.741   4.068   0.962
17454SOL    HW154369   9.725   4.155   0.927
17454SOL    HW254370   9.813   4.079  12.064
17455SOL     OW54371   7.167   1.799  10.415
17455SOL    HW154372   7.233  -9.269  10.479
17455SOL    HW254373 -14.973  -9.187  10.466
17456SOL     OW54374   4.975   3.651   0.791
17456SOL    HW154375   4.971  14.645  11.915
17456SOL    HW254376   5.058   3.700   0.794
17457SOL     OW54377   8.221   7.481   8.550
17457SOL    HW154378   8.213   7.433   8.468
17457SOL    HW254379  19.171   7.486   8.584
17458SOL     OW54380   2.804   7.036   3.907
17458SOL    HW154381   2.824   7.102   3.974
17458SOL    HW254382  24.787   7.036   3.902
17459SOL     OW54383   4.645   5.600  10.072
17459SOL    HW154384   4.645   5.662  21.040
17459SOL    HW254385   4.728   5.552  10.063
17460SOL     OW54386   7.204   0.060   3.573
17460SOL    HW154387   7.123  11.052  14.631
17460SOL    HW254388   7.185  11.190  -7.441
17461SOL     OW54389  10.773   5.732   1.052
17461SOL    HW154390  -0.214   5.715   0.974
17461SOL    HW254391  10.700   5.671   1.046
17462SOL     OW54392   2.028   6.078   5.495
17462SOL    HW154393  24.141   6.092   5.583
17462SOL    HW254394 -20.093   5.992   5.498
17463SOL     OW54395   5.160   8.887   3.171
17463SOL    HW154396   5.121  19.989   3.232
17463SOL    HW254397   5.134 -13.278   3.203
17464SOL     OW54398   1.179  -0.262   5.809
17464SOL    HW154399   1.251  -0.213   5.768
17464SOL    HW254400   1.222  10.723   5.875
17465SOL     OW54401   4.458   5.745   2.782
17465SOL    HW154402  -6.610   5.808   2.716
17465SOL    HW254403   4.390 -16.330   2.850
17466SOL     OW54404   2.750   1.495   6.497
17466SOL    HW154405   2.748   1.588   6.473
17466SOL    HW254406   2.697   1.452   6.431
17467SOL     OW54407   4.879   8.544   9.568
17467SOL    HW154408   4.791   8.578  20.620
17467SOL    HW254409   4.868  41.568  20.603
17468SOL     OW54410   1.770   5.760   7.770
17468SOL    HW154411   1.804   5.770   7.681
17468SOL    HW254412 -20.311   5.849  18.844
17469SOL     OW54413  10.519  10.258   7.294
17469SOL    HW154414  10.500  10.251  -3.652
17469SOL    HW254415  10.569 -22.941   7.274
17470SOL     OW54416   8.581   2.156   5.584
17470SOL    HW154417   8.575   2.072   5.629
17470SOL    HW254418   8.503   2.204  16.651
17471SOL     OW54419   8.384   8.741  11.095
17471SOL    HW154420 -13.735   8.677   0.114
17471SOL    HW254421   8.351 -13.253  11.125
17472SOL     OW54422   8.235   7.409   3.600
17472SOL    HW154423   8.281   7.435   3.680
17472SOL    HW254424   8.286   7.335  14.606
17473SOL     OW54425   4.834  -0.487   6.720
17473SOL    HW154426   4.865  -0.578   6.721
17473SOL    HW254427   4.810  21.609  28.708
17474SOL     OW54428   7.237   9.027   7.380
17474SOL    HW154429   7.248   9.087  40.425
17474SOL    HW254430   7.234   8.940   7.341
17475SOL     OW54431   5.722  10.190   0.822
17475SOL    HW154432  -5.329  10.096   0.809
17475SOL    HW254433   5.782  10.197   0.897
17476SOL     OW54434   8.656   4.737   2.394
17476SOL    HW154435  41.795   4.660   2.447
17476SOL    HW254436   8.595   4.705   2.328
17477SOL     OW54437  10.371  11.534   1.396
17477SOL    HW154438  10.336 -43.587  12.480
17477SOL    HW254439  21.390  11.547   1.304
17478SOL     OW54440   7.544   1.978   0.574
17478SOL    HW154441   7.524  24.131   0.516
17478SOL    HW254442  18.516   1.982   0.642
17479SOL     OW54443   7.225  10.646   2.503
17479SOL    HW154444   7.144  10.673  13.500
17479SOL    HW254445  51.438  10.613   2.431
17480SOL     OW54446  -0.039   8.049   5.071
17480SOL    HW154447  22.002   8.040  -6.056
17480SOL    HW254448  -0.057   7.965   5.114
17481SOL     OW54449   1.796   9.507  10.081
17481SOL    HW154450   1.833   9.433  10.128
17481SOL    HW254451   1.756   9.561  10.148
17482SOL     OW54452   6.934   2.748   5.341
17482SOL    HW154453   6.978   2.690   5.403
17482SOL    HW254454   6.993   2.754   5.267
17483SOL     OW54455   5.516  10.094  10.756
17483SOL    HW154456   5.502  10.002 -11.299
17483SOL    HW254457  -5.487  10.090  10.667
17484SOL     OW54458  10.881   8.408   2.125
17484SOL    HW154459  10.802 -13.724   2.115
17484SOL    HW254460  10.894   8.448   2.039
17485SOL     OW54461   5.964   2.841   5.367
17485SOL    HW154462  28.012   2.770   5.423
17485SOL    HW254463  39.177  13.863   5.357
17486SOL     OW54464   2.055  10.310   3.202
17486SOL    HW154465   1.960  10.317   3.212
17486SOL    HW254466   2.083  -0.786   3.274
17487SOL     OW54467   6.271   0.855   0.532
17487SOL    HW154468   6.322  11.815  22.627
17487SOL    HW254469   6.319   0.923   0.579
17488SOL     OW54470   5.152  10.678   7.949
17488SOL    HW154471  16.210  10.636   7.864
17488SOL    HW254472   5.138  10.770   7.928
17489SOL     OW54473   4.959   3.522  11.215
17489SOL    HW154474   4.996   3.603   0.209
17489SOL    HW254475   4.934   3.473  11.293
17490SOL     OW54476   7.424   2.107   6.795
17490SOL    HW154477  18.418   2.190   6.809
17490SOL    HW254478   7.454 -31.008  17.744
17491SOL     OW54479   1.534   5.834   2.202
17491SOL    HW154480   1.586   5.879  24.214
17491SOL    HW254481   1.456   5.889   2.213
17492SOL     OW54482   7.024   9.234   6.902
17492SOL    HW154483   7.019  31.233   6.954
17492SOL    HW254484  18.016   9.299   6.955
17493SOL     OW54485   5.920   5.516   5.241
17493SOL    HW154486   5.826  27.576   5.243
17493SOL    HW254487  -5.111  49.744   5.176
17494SOL     OW54488   7.861   1.717   7.156
17494SOL    HW154489   7.793  12.707   7.110
17494SOL    HW254490   7.831  12.759   7.247
17495SOL     OW54491  10.227   2.530   9.225
17495SOL    HW154492 -11.829   2.551   9.315
17495SOL    HW254493 -11.939   2.491   9.230
17496SOL     OW54494   1.417   5.923   0.183
17496SOL    HW154495   1.434   5.963  33.216
17496SOL    HW254496   1.456  16.875   0.177
17497SOL     OW54497  11.322   4.968   9.023
17497SOL    HW154498 -21.750   5.019   9.090
17497SOL    HW254499   0.339   4.973   8.946
17498SOL     OW54500   3.217   7.884   5.093
17498SOL    HW154501   3.185  18.861   5.028
17498SOL    HW254502  25.352   7.832  -5.889
17499SOL     OW54503   5.463  12.336   3.147
17499SOL    HW154504   5.536   1.322  -7.837
17499SOL    HW254505   5.501  -9.749   3.059
17500SOL     OW54506   7.209   0.546   8.341
17500SOL    HW154507   7.222  11.490   8.343
17500SOL    HW254508   7.274   0.578   8.278
17501SOL     OW54509   5.713   1.747   2.926
17501SOL    HW154510  -5.317   1.828   2.875
17501SOL    HW254511   5.644   1.766   2.989
17502SOL     OW54512   1.143   2.406   8.130
17502SOL    HW154513   1.221   2.355  41.226
17502SOL    HW254514   1.166   2.496   8.108
17503SOL     OW54515  10.167   5.690   0.472
17503SOL    HW154516  -0.846  27.683   0.441
17503SOL    HW254517  10.142  -5.363   0.564
17504SOL     OW54518   5.138   2.414   7.054
17504SOL    HW154519   5.222  13.445   7.009
17504SOL    HW254520   5.088   2.476  -4.038
17505SOL     OW54521   9.212   9.287   6.878
17505SOL    HW154522   9.220   9.237  28.875
17505SOL    HW254523   9.300   9.319   6.896
17506SOL     OW54524  -0.219   5.247   0.093
17506SOL    HW154525  10.800  16.315   0.183
17506SOL    HW254526  -0.213  49.310   0.099
17507SOL     OW54527   9.631   1.547   4.198
17507SOL    HW154528   9.631   1.608  26.204
17507SOL    HW254529   9.540   1.521  -6.830
17508SOL     OW54530   7.683   8.929   3.340
17508SOL    HW154531   7.633   9.001   3.302
17508SOL    HW254532   7.683  19.987   3.434
17509SOL     OW54533   6.141  10.366   8.459
17509SOL    HW154534   6.211  10.372   8.394
17509SOL    HW254535   6.183  10.391  -2.498
17510SOL     OW54536  11.399   6.680   7.126
17510SOL    HW154537  11.479  17.697   7.079
17510SOL    HW254538   0.289   6.640  18.114
17511SOL     OW54539   2.294   2.902   5.930
17511SOL    HW154540  -8.813  13.934   5.862
17511SOL    HW254541 -19.806   2.983   5.976
17512SOL     OW54542   4.533   0.287   6.522
17512SOL    HW154543  37.639   0.382 -26.594
17512SOL    HW254544  -6.429   0.275 -26.653
17513SOL     OW54545   3.716   3.103  10.975
17513SOL    HW154546   3.661   3.181  10.970
17513SOL    HW254547   3.787  -7.912  -0.005
17514SOL     OW54548   8.054   3.035   9.858
17514SOL    HW154549   8.027   2.990  -1.261
17514SOL    HW254550  41.097   3.030   9.916
17515SOL     OW54551  -0.437  10.630   1.496
17515SOL    HW154552  -0.461  10.589  -9.461
17515SOL    HW254553  10.519  10.658   1.458
17516SOL     OW54554   9.888   1.649   5.613
17516SOL    HW154555  -1.081   1.714  16.652
17516SOL    HW254556   9.933  -9.475   5.615
17517SOL     OW54557   6.083   7.807   3.052
17517SOL    HW154558   6.027   7.732   3.032
17517SOL    HW254559   6.095   7.804  -7.893
17518SOL     OW54560   2.139  11.506   2.491
17518SOL    HW154561 -31.060  11.558   2.482
17518SOL    HW254562   2.194   0.517   2.551
17519SOL     OW54563   9.068   8.536   2.954
17519SOL    HW154564   9.037   8.511  -7.999
17519SOL    HW254565  20.040   8.596   2.921
17520SOL     OW54566   8.346   7.079   0.792
17520SOL    HW154567   8.440   7.097   0.796
17520SOL    HW254568   8.324  -3.993  45.037
17521SOL     OW54569   6.252   2.312   4.159
17521SOL    HW154570   6.158  35.421   4.169
17521SOL    HW254571   6.267   2.407   4.166
17522SOL     OW54572   4.214  11.541   5.606
17522SOL    HW154573 -17.945  11.594   5.616
17522SOL    HW254574   4.182   0.414   5.586
17523SOL     OW54575   4.038   6.479   7.045
17523SOL    HW154576   4.054  17.570   7.124
17523SOL    HW254577   4.122   6.479   6.999
17524SOL     OW54578   8.999   2.021   7.177
17524SOL    HW154579  -2.011  -9.078  18.147
17524SOL    HW254580   9.071   2.022   7.240
17525SOL     OW54581   5.864   4.399   4.997
17525SOL    HW154582   5.873   4.491   4.973
17525SOL    HW254583   5.882  15.436 -16.988
17526SOL     OW54584  11.823   0.041   9.876
17526SOL    HW154585 -10.276   0.050   9.969
17526SOL    HW254586  11.769  -0.033   9.847
17527SOL     OW54587   7.068   6.035   5.221
17527SOL    HW154588 -37.122  -4.924  -5.776
17527SOL    HW254589   7.156   6.056  -5.847
17528SOL     OW54590   8.543   6.091   5.138
17528SOL    HW154591  19.587   6.086  27.312
17528SOL    HW254592   8.543  -5.040 -50.089
17529SOL     OW54593   2.100  10.004   7.127
17529SOL    HW154594   2.194  -1.041   7.144
17529SOL    HW254595  13.099   9.949  29.273
17530SOL     OW54596  -0.447   7.737   3.725
17530SOL    HW154597  -0.453   7.684   3.805
17530SOL    HW254598  10.506   7.731   3.685
17531SOL     OW54599  10.303   1.644   6.536
17531SOL    HW154600  10.293  -9.385   6.631
17531SOL    HW254601  10.328  -9.488  -4.514
17532SOL     OW54602   9.407   1.408   4.445
17532SOL    HW154603 -23.696   1.314   4.432
17532SOL    HW254604 -56.874   1.436   4.364
17533SOL     OW54605   5.450   8.472   2.014
17533SOL    HW154606  -5.680 -13.607   1.983
17533SOL    HW254607   5.443  -2.586   2.108
17534SOL     OW54608   6.764   4.787  10.471
17534SOL    HW154609   6.776  15.761  10.540
17534SOL    HW254610   6.684   4.833  -0.543
17535SOL     OW54611   9.068   0.535   3.074
17535SOL    HW154612   8.975   0.558   3.078
17535SOL    HW254613  -1.926   0.619   3.076
17536SOL     OW54614  11.978   1.736   3.855
17536SOL    HW154615 -21.147   1.810 -18.285
17536SOL    HW254616  11.973   1.775   3.942
17537SOL     OW54617   1.629   5.119   8.051
17537SOL    HW154618   1.644 -16.866   8.046
17537SOL    HW254619   1.659  -5.954   7.966
17538SOL     OW54620   9.517  10.077  10.708
17538SOL    HW154621   9.423  10.063  10.722
17538SOL    HW254622   9.559   9.999  10.745
17539SOL     OW54623   7.644  10.954   7.466
17539SOL    HW154624   7.593  -0.017  -3.616
17539SOL    HW254625   7.582  10.913  -3.513
17540SOL     OW54626   6.423   9.922   9.941
17540SOL    HW154627   6.411   9.945   9.849
17540SOL    HW254628   6.474   9.994  21.017
17541SOL     OW54629   5.767   8.316   4.813
17541SOL    HW154630   5.793  41.419   4.903
17541SOL    HW254631  -5.268   8.229   4.772
17542SOL     OW54632   3.123   7.388   2.963
17542SOL    HW154633 -30.023   7.404   2.873
17542SOL    HW254634   3.190   7.320 -30.163
17543SOL     OW54635   3.871   8.721   7.445
17543SOL    HW154636  14.993   8.673 -14.631
17543SOL    HW254637  25.947   8.768   7.528
17544SOL     OW54638   1.114   6.894   2.886
17544SOL    HW154639   1.148   6.857   2.805
17544SOL    HW254640   1.024   6.860  24.971
17545SOL     OW54641   0.244   0.090   9.208
17545SOL    HW154642   0.301  11.200   9.240
17545SOL    HW254643  11.276   0.030   9.282
17546SOL     OW54644   7.310  12.145   6.858
17546SOL    HW154645   7.297   1.190 -26.304
17546SOL    HW254646   7.286   1.121 -15.129
17547SOL     OW54647   8.420   3.233   6.690
17547SOL    HW154648 -13.656   3.328   6.702
17547SOL    HW254649 -24.669  14.237  17.814
17548SOL     OW54650   6.771   1.156   5.796
17548SOL    HW154651   6.777   1.249 -27.302
17548SOL    HW254652  17.767   1.154 -16.369
17549SOL     OW54653   5.162   4.622   2.134
17549SOL    HW154654   5.135   4.638   2.044
17549SOL    HW254655   5.082  37.717   2.180
17550SOL     OW54656   7.430  10.347   4.588
17550SOL    HW154657   7.355  10.372  -6.398
17550SOL    HW254658   7.505 -11.725 -17.432
17551SOL     OW54659   5.573   8.772   6.477
17551SOL    HW154660   5.497   8.817   6.513
17551SOL    HW254661 -16.542   8.696   6.431
17552SOL     OW54662   8.195   5.107  -0.997
17552SOL    HW154663   8.140  16.122  -1.072
17552SOL    HW254664   8.134   5.130  21.151
17553SOL     OW54665   1.201   1.245   6.129
17553SOL    HW154666  -9.771   1.307   6.158
17553SOL    HW254667  12.177  12.338   6.082
17554SOL     OW54668   1.025   7.189   9.961
17554SOL    HW154669  12.082   7.100   9.989
17554SOL    HW254670  12.016   7.228  10.034
17555SOL     OW54671   4.994  10.960   6.352
17555SOL    HW154672 -28.060  10.962   6.422
17555SOL    HW254673  -6.111  10.896   6.382
17556SOL     OW54674   4.658  12.659  -2.485
17556SOL    HW154675  15.787  12.686  30.654
17556SOL    HW254676  15.706 -20.519  19.520
17557SOL     OW54677   7.756   9.455   3.588
17557SOL    HW154678  29.843  20.429   3.518
17557SOL    HW254679   7.741   9.538   3.542
17558SOL     OW54680   7.210   6.839   5.942
17558SOL    HW154681   7.289  17.895   5.889
17558SOL    HW254682   7.243   6.819   6.029
17559SOL     OW54683   2.469   1.342   6.974
17559SOL    HW154684  13.596  34.485   6.944
17559SOL    HW254685  -8.588  12.297 -26.187
17560SOL     OW54686   6.464  10.950   4.867
17560SOL    HW154687   6.407  10.930   4.941
17560SOL    HW254688   6.407  10.945   4.790
17561SOL     OW54689   4.245   5.383   2.465
17561SOL    HW154690   4.154   5.390   2.495
17561SOL    HW254691   4.238   5.389   2.369
17562SOL     OW54692   6.856   5.598  10.749
17562SOL    HW154693   6.863  16.628 -22.465
17562SOL    HW254694  17.806   5.630 -11.317
17563SOL     OW54695   8.780   4.256   0.170
17563SOL    HW154696   8.816   4.245  22.337
17563SOL    HW254697  19.873   4.198  22.194
17564SOL     OW54698   0.011  -1.105  10.704
17564SOL    HW154699   0.010  20.949  10.612
17564SOL    HW254700  -0.061   9.997  -0.327
17565SOL     OW54701   7.116   6.792   3.813
17565SOL    HW154702   7.187   6.851   3.840
17565SOL    HW254703   7.139   6.708  14.893
17566SOL     OW54704   5.739   5.197   4.794
17566SOL    HW154705   5.809   5.132 -17.278
17566SOL    HW254706   5.703   5.203   4.883
17567SOL     OW54707   2.775   7.360  10.837
17567SOL    HW154708   2.764  29.534  10.830
17567SOL    HW254709   2.828   7.348  10.915
17568SOL     OW54710   5.688   2.650   0.116
17568SOL    HW154711   5.758   2.587   0.100
17568SOL    HW254712   5.731   2.736   0.111
17569SOL     OW54713   5.473   6.780   1.140
17569SOL    HW154714   5.414   6.725   1.192
17569SOL    HW254715   5.455   6.756   1.050
17570SOL     OW54716   7.382   6.637  -0.357
17570SOL    HW154717   7.349 -15.517  10.632
17570SOL    HW254718  29.410   6.635  -0.276
17571SOL     OW54719  11.294   6.937   8.064
17571SOL    HW154720  11.319   6.856  19.147
17571SOL    HW254721   0.307  29.084   8.106
17572SOL     OW54722  11.173   1.945   0.588
17572SOL    HW154723  11.111  -9.023  11.639
17572SOL    HW254724   0.210   1.986   0.548
17573SOL     OW54725   9.705   3.029   9.684
17573SOL    HW154726   9.616   3.062   9.670
17573SOL    HW254727   9.761  25.175   9.645
17574SOL     OW54728  -0.720   6.231   9.418
17574SOL    HW154729  21.390  -4.865  20.529
17574SOL    HW254730  10.396   6.283  20.433
17575SOL     OW54731   6.771   8.668   6.134
17575SOL    HW154732   6.777   8.763   6.120
17575SOL    HW254733   6.678   8.648   6.130
17576SOL     OW54734   2.280   5.811   7.840
17576SOL    HW154735   2.353   5.781 -25.333
17576SOL    HW254736   2.214   5.842   7.777
17577SOL     OW54737   4.874   3.120  11.010
17577SOL    HW154738   4.869   3.144  11.102
17577SOL    HW254739   4.951   3.063  11.005
17578SOL     OW54740  10.798   7.276   0.421
17578SOL    HW154741 -11.237  18.231   0.428
17578SOL    HW254742  10.719   7.267   0.475
17579SOL     OW54743   6.115   1.601   6.302
17579SOL    HW154744  28.155   1.593   6.214
17579SOL    HW254745   6.042   1.584  17.401
17580SOL     OW54746   9.148   0.789   5.746
17580SOL    HW154747   9.065   0.768   5.703
17580SOL    HW254748   9.204  44.873   5.725
17581SOL     OW54749   3.258   7.852   0.094
17581SOL    HW154750   3.343  -3.212  11.096
17581SOL    HW254751   3.251  41.065   0.079
17582SOL     OW54752   9.947   8.935   8.738
17582SOL    HW154753 -12.039   8.931   8.758
17582SOL    HW254754   9.923  19.883   8.719
17583SOL     OW54755   7.255   4.816  -0.324
17583SOL    HW154756   7.244   4.813  -0.419
17583SOL    HW254757   7.338   4.861  21.768
17584SOL     OW54758   3.226   8.919   7.535
17584SOL    HW154759  14.248   9.012  18.560
17584SOL    HW254760  14.336   8.898   7.473
17585SOL     OW54761   5.034   9.207   6.546
17585SOL    HW154762   5.119   9.214  -4.537
17585SOL    HW254763   5.008   9.298   6.564
17586SOL     OW54764   4.614   5.058   4.120
17586SOL    HW154765   4.579   5.056  -6.831
17586SOL    HW254766   4.585   5.142  15.124
17587SOL     OW54767   4.660   4.646   6.749
17587SOL    HW154768 -17.405   4.556   6.777
17587SOL    HW254769   4.585   4.676   6.801
17588SOL     OW54770   9.420   3.658   9.268
17588SOL    HW154771   9.411   3.746  20.271
17588SOL    HW254772   9.504  25.706   9.233
17589SOL     OW54773   2.079   9.173  11.549
17589SOL    HW154774  -8.992   9.141  11.464
17589SOL    HW254775  35.144   9.251   0.527
17590SOL     OW54776   0.486   5.765   5.630
17590SOL    HW154777  11.587  -5.312   5.694
17590SOL    HW254778   0.464   5.691   5.573
17591SOL     OW54779   8.802   9.987  10.035
17591SOL    HW154780  -2.214   9.974  20.983
17591SOL    HW254781   8.769   9.902  10.064
17592SOL     OW54782   3.866   1.485   0.418
17592SOL    HW154783   3.895   1.533   0.341
17592SOL    HW254784   3.776   1.457   0.397
17593SOL     OW54785   5.170   2.572   9.398
17593SOL    HW154786   5.075   2.562   9.404
17593SOL    HW254787   5.183   2.667   9.394
17594SOL     OW54788   6.426  -0.244   4.218
17594SOL    HW154789  17.536  21.809   4.277
17594SOL    HW254790   6.347  32.869   4.271
17595SOL     OW54791   1.605   4.867   4.510
17595SOL    HW154792   1.635   4.871   4.601
17595SOL    HW254793   1.557   4.785   4.504
17596SOL     OW54794  10.205   8.554   2.344
17596SOL    HW154795  10.174   8.467  24.451
17596SOL    HW254796 -11.814  19.620   2.414
17597SOL     OW54797  11.503  -0.028   7.775
17597SOL    HW154798  11.565  33.164 -25.336
17597SOL    HW254799 -21.616  22.011   7.861
17598SOL     OW54800   1.937   5.837   9.002
17598SOL    HW154801   1.868   5.804   9.061
17598SOL    HW254802  24.017   5.931 -13.061
17599SOL     OW54803   9.519   3.957  12.218
17599SOL    HW154804   9.512   4.043  -9.902
17599SOL    HW254805   9.577   3.908  12.159
17600SOL     OW54806   5.065   7.921   2.482
17600SOL    HW154807   5.130   7.926   2.552
17600SOL    HW254808   5.035   7.830   2.483
17601SOL     OW54809   2.750  10.239   1.089
17601SOL    HW154810   2.698  10.293   1.149
17601SOL    HW254811   2.719  10.264 -10.038
17602SOL     OW54812   6.417   6.835   1.983
17602SOL    HW154813   6.464   6.840  23.979
17602SOL    HW254814   6.415  -4.114   2.015
17603SOL     OW54815   1.827  10.250   9.528
17603SOL    HW154816  -9.183 -22.956   9.553
17603SOL    HW254817  -9.133 -11.781  20.546
17604SOL     OW54818   4.306   9.343   5.211
17604SOL    HW154819   4.308  -1.789   5.235
17604SOL    HW254820   4.348  20.428   5.285
17605SOL     OW54821   7.575   9.198   3.335
17605SOL    HW154822  40.606   9.180   3.301
17605SOL    HW254823  18.648   9.268   3.280
17606SOL     OW54824   0.941   9.111   3.764
17606SOL    HW154825  11.952   9.111   3.672
17606SOL    HW254826   1.010   9.045  14.807
17607SOL     OW54827  10.376   4.031   7.792
17607SOL    HW154828  21.320   4.039   7.790
17607SOL    HW254829  10.394   3.986   7.875
17608SOL     OW54830  10.304   0.365   4.786
17608SOL    HW154831  10.226  11.461   4.792
17608SOL    HW254832  10.350   0.395   4.708
17609SOL     OW54833   0.712   0.413   4.611
17609SOL    HW154834  33.812   0.488  15.708
17609SOL    HW254835   0.784   0.443   4.555
17610SOL     OW54836   3.158  11.500   1.393
17610SOL    HW154837   3.084   0.518  -9.631
17610SOL    HW254838   3.170   0.413   1.475
17611SOL     OW54839   5.324   1.650  10.276
17611SOL    HW154840   5.233   1.652  10.306
17611SOL    HW254841   5.352  -9.480  10.289
17612SOL     OW54842   8.349   5.747   4.549
17612SOL    HW154843   8.313   5.821   4.597
17612SOL    HW254844   8.432   5.780  26.592
17613SOL     OW54845   8.323   6.309   4.342
17613SOL    HW154846 -24.832   6.383   4.294
17613SOL    HW254847   8.310  17.371  -6.605
17614SOL     OW54848   2.289   5.618   9.908
17614SOL    HW154849   2.256   5.708   9.896
17614SOL    HW254850   2.238  16.623  -1.059
17615SOL     OW54851   9.517   1.021   7.830
17615SOL    HW154852   9.502   1.109  18.903
17615SOL    HW254853   9.450  12.007   7.874
17616SOL     OW54854   3.183   9.557   6.692
17616SOL    HW154855   3.181   9.653   6.698
17616SOL    HW254856   3.253  -1.501   6.630
17617SOL     OW54857  10.734   3.892  11.120
17617SOL    HW154858  10.812   3.891   0.136
17617SOL    HW254859 -11.322   3.948  11.046
17618SOL     OW54860  10.416   7.688   1.123
17618SOL    HW154861  10.422  18.680   1.206
17618SOL    HW254862  10.322   7.696   1.107
17619SOL     OW54863   7.520   4.750   8.452
17619SOL    HW154864   7.452 -28.412  30.480
17619SOL    HW254865   7.529  15.876   8.412
17620SOL     OW54866   5.574   7.594   3.786
17620SOL    HW154867   5.541   7.517   3.741
17620SOL    HW254868  16.639   7.655   3.716
17621SOL     OW54869   0.638  11.017   8.497
17621SOL    HW154870  11.651  11.050   8.583
17621SOL    HW254871  22.812 -11.055  -2.543
17622SOL     OW54872   5.132   7.660   8.833
17622SOL    HW154873 -16.945   7.579  19.924
17622SOL    HW254874   5.068   7.715  19.918
17623SOL     OW54875   3.196   4.778   9.792
17623SOL    HW154876   3.188  15.796   9.700
17623SOL    HW254877   3.191   4.874   9.795
17624SOL     OW54878   9.330  -0.051   7.974
17624SOL    HW154879   9.284  11.007   7.892
17624SOL    HW254880   9.261  -0.071  30.116
17625SOL     OW54881   0.971   3.251   7.449
17625SOL    HW154882   0.935   3.216  29.447
17625SOL    HW254883   0.906   3.230   7.515
17626SOL     OW54884   4.150   3.522   2.517
17626SOL    HW154885   4.168  -7.594   2.572
17626SOL    HW254886   4.211  14.555  -8.595
17627SOL     OW54887   1.428   2.822  11.493
17627SOL    HW154888   1.383   2.783   0.528
17627SOL    HW254889   1.496   2.759  11.469
17628SOL     OW54890   9.954  -0.406   4.650
17628SOL    HW154891  20.986  10.709  15.748
17628SOL    HW254892   9.866  -0.441   4.644
17629SOL     OW54893   7.737   1.922   3.946
17629SOL    HW154894   7.826  12.989   3.968
17629SOL    HW254895   7.719   1.966  -7.177
17630SOL     OW54896   5.501   7.167   3.867
17630SOL    HW154897  16.471   7.232  14.907
17630SOL    HW254898  16.550   7.140  26.037
17631SOL     OW54899   3.188  -1.577   0.803
17631SOL    HW154900   3.114  -1.566   0.743
17631SOL    HW254901   3.152  31.494   0.877
17632SOL     OW54902   4.609   8.535   5.888
17632SOL    HW154903 -17.466   8.491  17.013
17632SOL    HW254904   4.691   8.585   5.883
17633SOL     OW54905   2.779   6.249   7.560
17633SOL    HW154906  13.741 -15.828  -3.424
17633SOL    HW254907   2.826   6.169   7.586
17634SOL     OW54908   1.330   9.549   0.538
17634SOL    HW154909   1.420 -45.617   0.525
17634SOL    HW254910   1.279   9.628  33.675
17635SOL     OW54911  11.916   2.761   7.693
17635SOL    HW154912 -10.237   2.722   7.647
17635SOL    HW254913  11.985  -8.345   7.688
17636SOL     OW54914   5.917  -1.166   5.539
17636SOL    HW154915  16.984  20.958 -16.620
17636SOL    HW254916  17.027  -1.229   5.556
17637SOL     OW54917   1.229   5.676   6.278
17637SOL    HW154918   1.247   5.643   6.366
17637SOL    HW254919   1.291  -5.292   6.266
17638SOL     OW54920   6.913   0.836   1.126
17638SOL    HW154921   6.934   0.807   1.215
17638SOL    HW254922   6.860 -10.124  12.178
17639SOL     OW54923   0.229   2.555   3.748
17639SOL    HW154924   0.178   2.508   3.682
17639SOL    HW254925   0.306   2.501  -7.278
17640SOL     OW54926   8.110   9.012   5.996
17640SOL    HW154927   8.093   9.009   5.901
17640SOL    HW254928   8.023  -2.031  17.075
17641SOL     OW54929  10.208   2.052   7.015
17641SOL    HW154930  10.284  35.181   7.073
17641SOL    HW254931  10.133   2.049   7.074
17642SOL     OW54932   9.357   7.312   6.426
17642SOL    HW154933  -1.597 -14.810  17.474
17642SOL    HW254934   9.348 -25.755  28.584
17643SOL     OW54935   7.025  10.160   6.977
17643SOL    HW154936   6.939  10.151   6.936
17643SOL    HW254937   7.085  10.118  -4.123
17644SOL     OW54938  -1.970   2.747   6.110
17644SOL    HW154939  20.140  24.917   6.111
17644SOL    HW254940  20.168   2.701   6.169
17645SOL     OW54941   4.008   1.041   5.650
17645SOL    HW154942   3.968   0.956  27.749
17645SOL    HW254943   3.962   1.072   5.572
17646SOL     OW54944  11.129   4.556   8.514
17646SOL    HW154945 -10.910   4.556   8.427
17646SOL    HW254946  11.173  26.706  -2.478
17647SOL     OW54947   2.452   2.293   2.682
17647SOL    HW154948   2.539   2.303  35.839
17647SOL    HW254949   2.398   2.260  13.793
17648SOL     OW54950   7.649   8.410   8.280
17648SOL    HW154951   7.658   8.315   8.283
17648SOL    HW254952   7.613   8.428   8.193
17649SOL     OW54953   3.525   4.296   2.172
17649SOL    HW154954 -18.466   4.263   2.187
17649SOL    HW254955   3.476   4.221   2.138
17650SOL     OW54956   4.423   6.598   4.707
17650SOL    HW154957   4.468  28.734  26.723
17650SOL    HW254958   4.484  17.633  26.860
17651SOL     OW54959  11.608   6.821   3.939
17651SOL    HW154960  11.557 -15.233  14.902
17651SOL    HW254961   0.626   6.752   3.908
17652SOL     OW54962   9.006  11.043  -0.532
17652SOL    HW154963   8.998   0.067  10.578
17652SOL    HW254964  42.197  10.987  -0.505
17653SOL     OW54965   5.417   1.283   8.453
17653SOL    HW154966   5.342   1.267   8.510
17653SOL    HW254967   5.379   1.305   8.368
17654SOL     OW54968   7.628   2.496  -0.264
17654SOL    HW154969   7.556   2.436  10.755
17654SOL    HW254970  18.639   2.581  -0.298
17655SOL     OW54971   7.833   7.474   4.793
17655SOL    HW154972  40.861   7.450   4.813
17655SOL    HW254973  18.866  18.588   4.733
17656SOL     OW54974   8.832   4.971   2.762
17656SOL    HW154975   8.828   4.878  24.864
17656SOL    HW254976  -2.200   5.016   2.846
17657SOL     OW54977   6.677   1.805   2.421
17657SOL    HW154978  -4.308  -9.300 -19.703
17657SOL    HW254979  -4.413   1.847   2.351
17658SOL     OW54980   3.546   2.073   2.725
17658SOL    HW154981  14.523  24.091  -8.275
17658SOL    HW254982   3.546   2.050   2.632
17659SOL     OW54983   8.779   1.534   5.477
17659SOL    HW154984   8.702   1.549   5.422
17659SOL    HW254985   8.763  12.626   5.556
17660SOL     OW54986   2.825   7.430   8.725
17660SOL    HW154987  24.982  18.525   8.720
17660SOL    HW254988   2.779   7.444   8.643
17661SOL     OW54989   2.073   0.897   5.514
17661SOL    HW154990  13.187   0.916   5.570
17661SOL    HW254991   2.006  11.903  -5.466
17662SOL     OW54992   9.757   4.830   6.353
17662SOL    HW154993   9.781   4.886  17.318
17662SOL    HW254994   9.834   4.831  -4.631
17663SOL     OW54995   4.505   7.599   3.036
17663SOL    HW154996   4.549   7.516   3.019
17663SOL    HW254997  15.455   7.585   3.003
17664SOL     OW54998  10.861  11.285   3.442
17664SOL    HW154999  10.789 -10.749   3.486
17664SOL    HW255000  10.833  11.193   3.440
17665SOL     OW55001   6.881   5.041   5.958
17665SOL    HW155002   6.955   5.097   5.934
17665SOL    HW255003   6.919 -17.125  -5.070
17666SOL     OW55004   4.007   8.567   4.047
17666SOL    HW155005  -7.102   8.587   4.110
17666SOL    HW255006   4.038   8.652   4.017
17667SOL     OW55007  10.426   2.788  10.170
17667SOL    HW155008  10.507   2.838  10.178
17667SOL    HW255009  -0.584  46.859  10.142
17668SOL     OW55010  11.759   3.271   7.598
17668SOL    HW155011 -32.422   3.335   7.666
17668SOL    HW255012  11.783   3.193   7.647
17669SOL     OW55013   3.281  -0.801   8.980
17669SOL    HW155014   3.234  21.299  -2.141
17669SOL    HW255015  14.311  -0.896   8.988
17670SOL     OW55016   7.415   9.998   9.770
17670SOL    HW155017  -3.651  -0.973  20.871
17670SOL    HW255018   7.383  21.067  20.725
17671SOL     OW55019   3.993   8.185   7.313
17671SOL    HW155020   3.960   8.180   7.224
17671SOL    HW255021   3.956   8.108   7.356
17672SOL     OW55022   9.563   8.622   6.635
17672SOL    HW155023   9.546   8.685   6.705
17672SOL    HW255024   9.639  -2.381 -15.491
17673SOL     OW55025  10.876   2.008   3.961
17673SOL    HW155026  10.957  -9.084   3.966
17673SOL    HW255027  10.886   2.073  15.070
17674SOL     OW55028   4.046   7.162   0.912
17674SOL    HW155029   3.961   7.172   0.869
17674SOL    HW255030   4.082   7.251   0.912
17675SOL     OW55031   6.683   7.204   8.836
17675SOL    HW155032  28.681   7.228  19.830
17675SOL    HW255033   6.700   7.114  19.849
17676SOL     OW55034   4.854   1.253   2.451
17676SOL    HW155035  15.957   1.188  13.458
17676SOL    HW255036  15.838  12.312   2.376
17677SOL     OW55037   6.414   1.102   9.390
17677SOL    HW155038   6.466  12.110  20.504
17677SOL    HW255039   6.458  12.222   9.362
17678SOL     OW55040   4.885   0.652   3.214
17678SOL    HW155041   4.812   0.610   3.169
17678SOL    HW255042   4.907   0.593  14.325
17679SOL     OW55043   0.424   6.724   2.619
17679SOL    HW155044  11.430   6.653   2.674
17679SOL    HW255045   0.454  -4.249   2.681
17680SOL     OW55046  10.437   3.882   1.345
17680SOL    HW155047  10.439  14.945  12.292
17680SOL    HW255048  10.498 -18.137   1.387
17681SOL     OW55049   5.761   7.440   7.982
17681SOL    HW155050  16.800   7.352   8.020
17681SOL    HW255051  27.798  18.535   8.048
17682SOL     OW55052   2.375   1.688   2.120
17682SOL    HW155053   2.357 -20.308  24.243
17682SOL    HW255054  24.528   1.707  -8.978
17683SOL     OW55055   3.100   6.277   4.860
17683SOL    HW155056  -8.005   6.208   4.846
17683SOL    HW255057   3.157   6.272  -6.256
17684SOL     OW55058   3.981   6.116  -0.425
17684SOL    HW155059   3.960   6.194  10.564
17684SOL    HW255060   4.067   6.089  10.582
17685SOL     OW55061   3.210  10.916   6.219
17685SOL    HW155062   3.284  10.899   6.160
17685SOL    HW255063  -7.863  11.001   6.190
17686SOL     OW55064   7.734   0.038   8.057
17686SOL    HW155065   7.806  -0.014   8.022
17686SOL    HW255066  18.786   0.036  19.191
17687SOL     OW55067   0.637   3.234   0.116
17687SOL    HW155068  11.705 -18.763   0.075
17687SOL    HW255069   0.615   3.177   0.042
17688SOL     OW55070   5.904   6.154  10.934
17688SOL    HW155071  -5.201  -4.952  10.911
17688SOL    HW255072  16.941  -4.823  10.861
17689SOL     OW55073   9.762   0.960   6.444
17689SOL    HW155074   9.740   0.936   6.534
17689SOL    HW255075   9.712   1.040   6.427
17690SOL     OW55076   6.628  10.710   6.475
17690SOL    HW155077  -4.348  10.640   6.459
17690SOL    HW255078   6.631  10.764  17.435
17691SOL     OW55079   6.398   8.611   7.559
17691SOL    HW155080   6.452   8.585   7.485
17691SOL    HW255081  -4.599   8.571  -3.405
17692SOL     OW55082   6.836   8.777   8.336
17692SOL    HW155083  17.964  30.891   8.328
17692SOL    HW255084  -4.203   8.731 -13.659
17693SOL     OW55085   8.406   8.547   0.956
17693SOL    HW155086   8.337   8.562   1.020
17693SOL    HW255087   8.435   8.635   0.931
17694SOL     OW55088   0.700   6.276   1.303
17694SOL    HW155089   0.713   6.215   1.230
17694SOL    HW255090  11.741   6.221   1.381
17695SOL     OW55091   9.420   2.277   8.929
17695SOL    HW155092   9.477   2.351   8.909
17695SOL    HW255093  20.475   2.214   8.858
17696SOL     OW55094   7.708   9.910  10.141
17696SOL    HW155095   7.706   9.975  10.212
17696SOL    HW255096  -3.420   9.874  21.179
17697SOL     OW55097   3.246  10.405   6.367
17697SOL    HW155098 -18.919  21.468   6.402
17697SOL    HW255099   3.286  10.489  -4.697
17698SOL     OW55100   9.520   2.833   3.477
17698SOL    HW155101 -23.564   2.798   3.395
17698SOL    HW255102   9.595  -8.163   3.518
17699SOL     OW55103   2.023  10.275   3.554
17699SOL    HW155104   2.031  10.369   3.542
17699SOL    HW255105   2.091  10.253  -7.421
17700SOL     OW55106  10.495   8.265  10.579
17700SOL    HW155107  10.446   8.326  -0.515
17700SOL    HW255108  10.509   8.189  10.523
17701SOL     OW55109   3.736   7.041   4.846
17701SOL    HW155110   3.703   7.066   4.761
17701SOL    HW255111   3.790   7.115   4.874
17702SOL     OW55112   6.602   9.787   4.716
17702SOL    HW155113  -4.472  -1.173   4.755
17702SOL    HW255114  -4.345   9.786   4.741
17703SOL     OW55115   5.593   7.172   2.065
17703SOL    HW155116   5.554   7.259   2.052
17703SOL    HW255117   5.648   7.158  -9.051
17704SOL     OW55118   4.920   9.671   4.612
17704SOL    HW155119   4.959   9.698   4.695
17704SOL    HW255120  -6.157   9.751   4.575
17705SOL     OW55121  -2.488   3.459   7.277
17705SOL    HW155122  19.565 -51.655   7.238
17705SOL    HW255123  30.586   3.393  29.304
17706SOL     OW55124   8.789   1.996   9.361
17706SOL    HW155125   8.718   1.974   9.422
17706SOL    HW255126   8.815   1.912   9.324
17707SOL     OW55127   4.668   5.203   8.228
17707SOL    HW155128  15.660   5.130   8.188
17707SOL    HW255129  -6.433   5.277   8.223
17708SOL     OW55130   7.340   2.506   4.940
17708SOL    HW155131  -3.638   2.549   5.000
17708SOL    HW255132  -3.785  -8.495   4.962
17709SOL     OW55133   6.485   1.665   9.482
17709SOL    HW155134   6.546   1.737   9.466
17709SOL    HW255135   6.401   1.696   9.448
17710SOL     OW55136   1.241   6.850  11.299
17710SOL    HW155137  12.186   6.835  11.298
17710SOL    HW255138   1.280   6.763   0.259
17711SOL     OW55139   6.451   2.794   0.498
17711SOL    HW155140   6.519   2.850  11.575
17711SOL    HW255141   6.369  13.868  11.573
17712SOL     OW55142   2.455   9.162   2.401
17712SOL    HW155143   2.486   9.252   2.393
17712SOL    HW255144   2.452  20.185   2.495
17713SOL     OW55145   2.322   4.248   0.279
17713SOL    HW155146   2.252   4.218  22.416
17713SOL    HW255147  13.373   4.341   0.300
17714SOL     OW55148   3.932   5.924  10.826
17714SOL    HW155149   3.967  -5.052  10.765
17714SOL    HW255150   3.991   5.928  -0.138
17715SOL     OW55151   2.853   3.747   4.704
17715SOL    HW155152  24.905  14.807   4.793
17715SOL    HW255153  13.975   3.794   4.692
17716SOL     OW55154   3.210  11.263   5.391
17716SOL    HW155155   3.294   0.178   5.392
17716SOL    HW255156   3.172  11.246  16.517
17717SOL     OW55157   0.516   1.570  11.524
17717SOL    HW155158  11.523   1.583   0.395
17717SOL    HW255159 -10.441   1.524  11.513
17718SOL     OW55160   4.309   1.848  10.502
17718SOL    HW155161   4.276  12.801  -0.515
17718SOL    HW255162   4.333  -9.198  10.409
17719SOL     OW55163   4.361   5.964   5.932
17719SOL    HW155164   4.313  -5.096   5.852
17719SOL    HW255165   4.433  -5.020   5.903
17720SOL     OW55166  10.218   3.388   1.454
17720SOL    HW155167 -11.844   3.322   1.520
17720SOL    HW255168  10.175   3.341  -9.657
17721SOL     OW55169   7.213   3.550  10.534
17721SOL    HW155170 -14.789  14.630  -0.545
17721SOL    HW255171   7.215   3.460  10.502
17722SOL     OW55172  10.961   7.445  10.851
17722SOL    HW155173  -0.116   7.358  10.841
17722SOL    HW255174  10.899   7.492  10.906
17723SOL     OW55175   7.927  -0.467  -0.336
17723SOL    HW155176   7.890  10.659  10.683
17723SOL    HW255177  -3.030  32.671  -0.292
17724SOL     OW55178   5.180   5.263   1.861
17724SOL    HW155179 -16.910   5.219   1.945
17724SOL    HW255180   5.186   5.356   1.883
17725SOL     OW55181   5.476   7.498   5.324
17725SOL    HW155182   5.462   7.593  -5.709
17725SOL    HW255183   5.404  -3.572   5.268
17726SOL     OW55184   9.932   7.588   9.312
17726SOL    HW155185  10.010   7.555   9.358
17726SOL    HW255186   9.938 -25.570   9.225
17727SOL     OW55187   1.214   3.015   1.418
17727SOL    HW155188   1.270  36.125   1.341
17727SOL    HW255189  -9.913   3.033   1.383
17728SOL     OW55190   9.843   6.369   2.411
17728SOL    HW155191   9.923   6.373  -8.576
17728SOL    HW255192  -1.169   6.332   2.327
17729SOL     OW55193   1.890   1.485   6.535
17729SOL    HW155194   1.821   1.513   6.474
17729SOL    HW255195  12.960   1.402   6.500
17730SOL     OW55196  11.189  10.459   7.227
17730SOL    HW155197   0.196  10.418   7.299
17730SOL    HW255198  11.191  -0.646 -14.922
17731SOL     OW55199   8.218   4.418   9.329
17731SOL    HW155200  30.320   4.443   9.240
17731SOL    HW255201  30.380   4.398  20.411
17732SOL     OW55202   4.202   7.365   0.336
17732SOL    HW155203   4.269   7.298   0.351
17732SOL    HW255204 -17.829  29.527   0.340
17733SOL     OW55205  10.155   7.746   0.953
17733SOL    HW155206  -0.958  18.809 -21.182
17733SOL    HW255207  -0.895  18.692  12.010
17734SOL     OW55208   0.744   0.754   1.909
17734SOL    HW155209   0.753 -10.193   1.889
17734SOL    HW255210   0.659   0.729   1.873
17735SOL     OW55211   3.966   4.161   5.589
17735SOL    HW155212   4.053   4.136   5.556
17735SOL    HW255213   3.977   4.169   5.683
17736SOL     OW55214   9.438   6.093   3.457
17736SOL    HW155215   9.456  28.266   3.450
17736SOL    HW255216  20.511   6.069   3.544
17737SOL     OW55217  10.501   8.170   3.629
17737SOL    HW155218  -0.566   8.093   3.579
17737SOL    HW255219  21.504  41.274   3.716
17738SOL     OW55220   4.367   3.480   8.222
17738SOL    HW155221   4.428   3.464   8.150
17738SOL    HW255222   4.361   3.396   8.267
17739SOL     OW55223   0.384   3.335   1.669
17739SOL    HW155224 -10.692 -18.656   1.673
17739SOL    HW255225  11.516   3.348   1.647
17740SOL     OW55226   2.850   8.519   5.014
17740SOL    HW155227 -19.293   8.457  16.088
17740SOL    HW255228   2.848   8.593  27.154
17741SOL     OW55229   6.073  11.199   9.814
17741SOL    HW155230  17.087 -10.972   9.801
17741SOL    HW255231  -5.025   0.209   9.756
17742SOL     OW55232   1.749   3.637   8.329
17742SOL    HW155233  12.772   3.551   8.368
17742SOL    HW255234  12.838   3.618 -13.830
17743SOL     OW55235   8.818   2.524   2.298
17743SOL    HW155236   8.824  -8.423  13.317
17743SOL    HW255237   8.759   2.520   2.374
17744SOL     OW55238   3.256   0.825   1.698
17744SOL    HW155239   3.284   0.916   1.695
17744SOL    HW255240  -7.815 -10.227   1.788
17745SOL     OW55241   1.224   6.989   3.430
17745SOL    HW155242   1.271  18.086   3.370
17745SOL    HW255243   1.292   6.960  -7.547
17746SOL     OW55244   1.043  12.779   3.419
17746SOL    HW155245   1.046   1.806 -18.729
17746SOL    HW255246  -9.945  -9.263   3.491
17747SOL     OW55247  10.978   1.410   8.094
17747SOL    HW155248  10.928   1.418  19.214
17747SOL    HW255249  -0.032   1.319   8.092
17748SOL     OW55250   7.570   5.331  10.636
17748SOL    HW155251   7.506  -5.653  10.591
17748SOL    HW255252   7.562   5.245  10.593
17749SOL     OW55253   6.410   8.924   1.124
17749SOL    HW155254  -4.547   8.944   1.169
17749SOL    HW255255  17.461  -2.205   1.092
17750SOL     OW55256   4.224   6.992   2.322
17750SOL    HW155257  -6.898   6.988   2.369
17750SOL    HW255258   4.289   7.017   2.388
17751SOL     OW55259  10.320  -0.397   9.999
17751SOL    HW155260  10.411  -0.419  10.020
17751SOL    HW255261  -0.733  10.728 -12.041
17752SOL     OW55262  -0.842   1.701   0.926
17752SOL    HW155263  -0.748  12.750  11.950
17752SOL    HW255264  32.259   1.608   0.915
17753SOL     OW55265   6.028   4.194   3.100
17753SOL    HW155266   6.106 -17.831   3.088
17753SOL    HW255267   5.977   4.208  14.060
17754SOL     OW55268   6.937   6.270   1.805
17754SOL    HW155269   6.869   6.280   1.872
17754SOL    HW255270   7.018   6.291   1.850
17755SOL     OW55271   8.378   7.461   4.926
17755SOL    HW155272   8.348  18.591 -28.186
17755SOL    HW255273   8.302  29.487 -17.128
17756SOL     OW55274   2.391   7.985   6.638
17756SOL    HW155275   2.468   8.041  17.687
17756SOL    HW255276  24.495   7.903   6.681
17757SOL     OW55277  10.562   7.236  -0.973
17757SOL    HW155278  -0.504   7.156  -0.928
17757SOL    HW255279  10.482   7.287  32.136
17758SOL     OW55280  10.961   4.310   2.946
17758SOL    HW155281  11.053   4.286   2.931
17758SOL    HW255282  10.965   4.401   2.975
17759SOL     OW55283   9.400  10.605   9.048
17759SOL    HW155284   9.368  10.688   9.083
17759SOL    HW255285   9.444  -0.409   8.966
17760SOL     OW55286   3.313   7.655  11.797
17760SOL    HW155287   3.262   7.731   0.728
17760SOL    HW255288   3.402   7.672 -10.310
17761SOL     OW55289   6.828   9.487   1.322
17761SOL    HW155290  39.993   9.544  -9.656
17761SOL    HW255291  39.930   9.407   1.372
17762SOL     OW55292   7.241   9.285   8.515
17762SOL    HW155293   7.229   9.238  19.637
17762SOL    HW255294   7.202   9.371   8.530
17763SOL     OW55295   4.867  10.469   8.391
17763SOL    HW155296   4.791  10.413   8.378
17763SOL    HW255297   4.882  10.510   8.305
17764SOL     OW55298   3.942   6.392   3.448
17764SOL    HW155299 -29.219  28.476   3.534
17764SOL    HW255300   3.916  28.386   3.414
17765SOL     OW55301   7.684   8.120   4.865
17765SOL    HW155302   7.663 -14.052   4.875
17765SOL    HW255303   7.739   8.141   4.940
17766SOL     OW55304   6.901   0.156   9.784
17766SOL    HW155305  17.960   0.119 -12.381
17766SOL    HW255306  17.917   0.247   9.767
17767SOL     OW55307   6.559   4.421   2.871
17767SOL    HW155308  17.640   4.342  13.874
17767SOL    HW255309  28.706   4.460   2.926
17768SOL     OW55310   2.874  13.461   9.166
17768SOL    HW155311   2.867  -8.687   9.099
17768SOL    HW255312   2.968  -8.610   9.182
17769SOL     OW55313   6.932   9.969   3.395
17769SOL    HW155314  17.877   9.984   3.392
17769SOL    HW255315  18.009  10.053  14.457
17770SOL     OW55316   4.492   8.981   2.235
17770SOL    HW155317   4.398   8.961   2.234
17770SOL    HW255318  15.541  -1.981   2.180
17771SOL     OW55319   9.420   9.833   4.667
17771SOL    HW155320  31.496   9.747   4.626
17771SOL    HW255321   9.453   9.816   4.756
17772SOL     OW55322   7.416   1.169   1.509
17772SOL    HW155323   7.424   1.107   1.437
17772SOL    HW255324  18.481   1.253   1.471
17773SOL     OW55325   2.569   4.759   6.125
17773SOL    HW155326   2.505   4.728  17.101
17773SOL    HW255327   2.528   4.835   6.166
17774SOL     OW55328   3.239   7.961   9.557
17774SOL    HW155329  -7.767   8.024  20.660
17774SOL    HW255330   3.161 -25.115 -12.558
17775SOL     OW55331   6.036   8.144   7.348
17775SOL    HW155332   6.016   8.228   7.306
17775SOL    HW255333   5.957   8.123   7.397
17776SOL     OW55334   5.438   1.869   3.551
17776SOL    HW155335  16.485   1.964   3.560
17776SOL    HW255336   5.380   1.843   3.623
17777SOL     OW55337   4.406  10.069   7.630
17777SOL    HW155338  37.570  10.057   7.713
17777SOL    HW255339   4.313  -0.965 -14.426
17778SOL     OW55340   8.731   5.921   2.463
17778SOL    HW155341 -13.291   5.908   2.539
17778SOL    HW255342 -24.387  17.055  -8.590
17779SOL     OW55343   7.211   8.599   4.792
17779SOL    HW155344   7.270   8.664   4.755
17779SOL    HW255345   7.141   8.650   4.833
17780SOL     OW55346   6.897   7.687   1.005
17780SOL    HW155347   6.873   7.613   1.060
17780SOL    HW255348   6.978   7.721   1.044
17781SOL     OW55349   4.077   2.110  10.076
17781SOL    HW155350  15.199  -8.892  10.045
17781SOL    HW255351   4.046   2.058  -1.038
17782SOL     OW55352   5.026   9.053   6.226
17782SOL    HW155353   5.030   8.987   6.157
17782SOL    HW255354   4.946   9.031  28.353
17783SOL     OW55355   4.658   7.743   4.403
17783SOL    HW155356   4.631  -3.287   4.312
17783SOL    HW255357   4.668  -3.391   4.415
17784SOL     OW55358   9.971   1.888  10.686
17784SOL    HW155359   9.922   1.937 -11.328
17784SOL    HW255360   9.982   1.801  10.725
17785SOL     OW55361  10.739   3.222   2.044
17785SOL    HW155362  10.718   3.311   2.075
17785SOL    HW255363  10.834   3.224   2.029
17786SOL     OW55364   6.060  10.502   3.698
17786SOL    HW155365  17.096  -0.606  14.804
17786SOL    HW255366   6.036  10.582   3.744
17787SOL     OW55367   7.722   2.298   0.552
17787SOL    HW155368   7.630   2.315   0.533
17787SOL    HW255369   7.723   2.214   0.597
17788SOL     OW55370   9.575  10.034   3.519
17788SOL    HW155371   9.501  10.037   3.579
17788SOL    HW255372   9.552   9.967   3.455
17789SOL     OW55373   9.651   3.796   3.719
17789SOL    HW155374   9.706   3.733   3.672
17789SOL    HW255375   9.689 -18.198  14.737
17790SOL     OW55376   0.864  -0.010   9.190
17790SOL    HW155377   0.932  22.025  20.280
17790SOL    HW255378   0.839 -11.113   9.123
17791SOL     OW55379  10.594   0.367   2.489
17791SOL    HW155380  10.680   0.370  13.572
17791SOL    HW255381  10.581   0.274   2.469
17792SOL     OW55382   1.513  11.974   8.303
17792SOL    HW155383  12.548  12.070   8.303
17792SOL    HW255384   1.565 -21.166   8.380
17793SOL     OW55385   2.913   3.085   9.358
17793SOL    HW155386   2.967   3.047  20.328
17793SOL    HW255387   2.951   3.171  -1.667
17794SOL     OW55388   5.918   3.115   1.025
17794SOL    HW155389   5.991   3.100   1.086
17794SOL    HW255390   5.870 -19.047   1.025
17795SOL     OW55391   6.847   8.978   1.476
17795SOL    HW155392   6.891   8.924   1.542
17795SOL    HW255393  -4.128  20.082   1.450
17796SOL     OW55394   9.522   1.988   5.428
17796SOL    HW155395   9.486   2.049  -5.547
17796SOL    HW255396   9.445   1.954   5.382
17797SOL     OW55397   5.939   3.784   5.848
17797SOL    HW155398   6.002  14.885  16.925
17797SOL    HW255399   5.882   3.760   5.921
17798SOL     OW55400   8.365   4.613   6.005
17798SOL    HW155401   8.409  -6.343   5.991
17798SOL    HW255402   8.343   4.582   5.918
17799SOL     OW55403   6.611   2.517  10.370
17799SOL    HW155404   6.539  -8.461  10.368
17799SOL    HW255405   6.582   2.443  10.317
17800SOL     OW55406   3.896   0.459   4.104
17800SOL    HW155407   3.852   0.532  -6.980
17800SOL    HW255408   3.915   0.396  -7.004
17801SOL     OW55409   3.151   0.978   5.086
17801SOL    HW155410   3.202 -10.134   5.121
17801SOL    HW255411   3.120   1.025   5.164
17802SOL     OW55412   5.146   3.698   1.500
17802SOL    HW155413   5.102 -18.340   1.574
17802SOL    HW255414   5.239  -7.339   1.524
17803SOL     OW55415   2.158   5.525   7.130
17803SOL    HW155416   2.253   5.525  -3.901
17803SOL    HW255417  13.180   5.585  18.096
17804SOL     OW55418   9.836   4.691   6.773
17804SOL    HW155419   9.882  15.663  -4.218
17804SOL    HW255420   9.743  -6.368  -4.253
17805SOL     OW55421   7.406   4.189   1.581
17805SOL    HW155422   7.451  26.332   1.636
17805SOL    HW255423   7.371  15.164   1.643
17806SOL     OW55424   2.709   9.951   9.728
17806SOL    HW155425   2.686   9.875  20.821
17806SOL    HW255426  24.712  10.008  20.771
17807SOL     OW55427   5.888   9.995   2.600
17807SOL    HW155428   5.850   9.925   2.654
17807SOL    HW255429   5.936   9.948 -30.587
17808SOL     OW55430   1.479   5.261   8.694
17808SOL    HW155431 -20.521   5.223  19.696
17808SOL    HW255432   1.429   5.294   8.619
17809SOL     OW55433   1.213   2.361   3.620
17809SOL    HW155434   1.176   2.437  36.785
17809SOL    HW255435  12.348   2.373   3.626
17810SOL     OW55436   7.685   1.233  10.311
17810SOL    HW155437 -36.523   1.208  10.233
17810SOL    HW255438   7.678   1.329  10.314
17811SOL     OW55439   2.203   9.795   4.867
17811SOL    HW155440   2.183  20.749  -6.134
17811SOL    HW255441   2.150   9.857  -6.123
17812SOL     OW55442   4.104   2.664   6.134
17812SOL    HW155443   4.074   2.671   6.043
17812SOL    HW255444   4.185   2.714   6.136
17813SOL     OW55445   2.288   9.513   0.713
17813SOL    HW155446   2.302  20.462   0.687
17813SOL    HW255447   2.249   9.554   0.635
17814SOL     OW55448   3.747   4.393   5.820
17814SOL    HW155449   3.840   4.371   5.820
17814SOL    HW255450  14.781  -6.567   5.767
17815SOL     OW55451   9.246   1.483   8.862
17815SOL    HW155452 -23.873   1.396   8.821
17815SOL    HW255453   9.156   1.514  41.970
17816SOL     OW55454   1.977   6.253   1.471
17816SOL    HW155455   1.956   6.161   1.490
17816SOL    HW255456   2.070   6.252   1.450
17817SOL     OW55457   6.827   7.010   5.055
17817SOL    HW155458   6.799  -4.111  -5.943
17817SOL    HW255459  28.825 -15.028   5.026
17818SOL     OW55460  10.569   6.696   8.207
17818SOL    HW155461  10.661  -4.319   8.213
17818SOL    HW255462  10.552   6.690   8.113
17819SOL     OW55463   5.924   3.933  -0.398
17819SOL    HW155464   5.842   3.969  21.650
17819SOL    HW255465   5.946   3.864  -0.461
17820SOL     OW55466   4.260   8.706   6.046
17820SOL    HW155467   4.337   8.744  17.043
17820SOL    HW255468   4.195   8.777   6.047
17821SOL     OW55469   9.049   1.450   4.121
17821SOL    HW155470   9.080   1.424   4.035
17821SOL    HW255471  -2.029  -9.503   4.108
17822SOL     OW55472   6.504  -0.503   7.868
17822SOL    HW155473   6.489  10.547   7.962
17822SOL    HW255474   6.582  21.522 -14.217
17823SOL     OW55475   8.532  -1.254   1.214
17823SOL    HW155476   8.488  20.802   1.132
17823SOL    HW255477  -2.417   9.804   1.189
17824SOL     OW55478   0.977   9.230   0.898
17824SOL    HW155479   1.059   9.189   0.924
17824SOL    HW255480 -10.092  31.357 -10.064
17825SOL     OW55481   3.958   0.743   2.711
17825SOL    HW155482   3.915  11.808   2.793
17825SOL    HW255483  25.965  11.766  -8.389
17826SOL     OW55484   6.663   5.874   1.097
17826SOL    HW155485   6.728   5.816   1.137
17826SOL    HW255486  17.697   5.949   1.156
17827SOL     OW55487   6.574   9.079   4.475
17827SOL    HW155488  28.678   9.126  -6.485
17827SOL    HW255489   6.508   9.015   4.505
17828SOL     OW55490  10.326   3.934   2.075
17828SOL    HW155491  -0.779   3.923 -19.936
17828SOL    HW255492  10.299   4.012   2.027
17829SOL     OW55493  10.802   9.234   3.224
17829SOL    HW155494  10.802   9.149   3.267
17829SOL    HW255495  10.886  31.352   3.247
17830SOL     OW55496   4.843   4.654   4.596
17830SOL    HW155497   4.840   4.749   4.609
17830SOL    HW255498  -6.284   4.631   4.565
17831SOL     OW55499  10.076   0.218   7.312
17831SOL    HW155500  10.044   0.142   7.360
17831SOL    HW255501  10.093  22.264 -25.895
17832SOL     OW55502   3.639   2.058   8.258
17832SOL    HW155503   3.710   1.993  19.302
17832SOL    HW255504   3.576   2.030   8.325
17833SOL     OW55505   0.974   1.372  10.806
17833SOL    HW155506   1.065   1.364  10.835
17833SOL    HW255507 -10.112   1.404  10.883
17834SOL     OW55508   5.549   0.062   9.777
17834SOL    HW155509   5.540   0.022   9.691
17834SOL    HW255510   5.570  11.029  -1.204
17835SOL     OW55511   0.646  12.261   5.185
17835SOL    HW155512   0.608 -20.881  16.141
17835SOL    HW255513  11.751  12.193   5.202
17836SOL     OW55514   9.781   5.455  10.295
17836SOL    HW155515  20.731   5.479  -0.723
17836SOL    HW255516   9.773   5.393  10.222
17837SOL     OW55517   4.276   6.727   2.552
17837SOL    HW155518   4.329  39.829   2.630
17837SOL    HW255519  15.351   6.667   2.486
17838SOL     OW55520   9.933   5.744   4.985
17838SOL    HW155521   9.938   5.657   5.025
17838SOL    HW255522  20.999  -5.309   4.894
17839SOL     OW55523   1.451   0.334   3.779
17839SOL    HW155524  12.407   0.375   3.756
17839SOL    HW255525   1.468   0.272   3.709
17840SOL     OW55526   5.324   2.308   2.756
17840SOL    HW155527   5.269   2.254 -30.421
17840SOL    HW255528   5.263  13.380   2.822
17841SOL     OW55529   9.584   7.169   7.801
17841SOL    HW155530   9.548 -14.973   7.739
17841SOL    HW255531   9.584  -3.787   7.753
17842SOL     OW55532   4.962   4.896   9.793
17842SOL    HW155533  15.942   4.967  20.858
17842SOL    HW255534  27.121  38.032  20.882
17843SOL     OW55535  10.071   9.775   8.905
17843SOL    HW155536  10.045   9.860   8.941
17843SOL    HW255537  10.084  20.759   8.982
17844SOL     OW55538   3.577   7.830   3.388
17844SOL    HW155539  -7.521   7.874   3.450
17844SOL    HW255540   3.662   7.872   3.402
17845SOL     OW55541   7.781   3.703   5.870
17845SOL    HW155542   7.872  -7.312   5.887
17845SOL    HW255543  18.779   3.702   5.957
17846SOL     OW55544   0.839   3.053   7.711
17846SOL    HW155545  34.037   3.098   7.738
17846SOL    HW255546   0.863   2.960   7.707
17847SOL     OW55547   0.647   3.921   5.578
17847SOL    HW155548   0.679  14.950   5.668
17847SOL    HW255549   0.726  26.021   5.528
17848SOL     OW55550   5.406   5.821   9.163
17848SOL    HW155551  16.513 -27.301  20.135
17848SOL    HW255552  16.416   5.731   9.172
17849SOL     OW55553   3.993   4.824   9.437
17849SOL    HW155554   4.055   4.751  -1.614
17849SOL    HW255555   4.047  -6.137  -1.615
17850SOL     OW55556   6.111   1.839   1.597
17850SOL    HW155557   6.120  12.889   1.502
17850SOL    HW255558   6.017   1.829  34.730
17851SOL     OW55559   8.390   4.994   1.105
17851SOL    HW155560   8.310   4.944   1.084
17851SOL    HW255561  -2.606   5.005 -10.019
17852SOL     OW55562   5.541   2.052  11.491
17852SOL    HW155563  -5.559   2.124  11.473
17852SOL    HW255564   5.486   1.974   0.448
17853SOL     OW55565   6.826   1.962  10.006
17853SOL    HW155566   6.794   1.918  10.084
17853SOL    HW255567   6.910   1.921  21.027
17854SOL     OW55568   2.779   3.540   9.123
17854SOL    HW155569  -8.230   3.465   9.073
17854SOL    HW255570   2.783  -7.529   9.214
17855SOL     OW55571   5.842   3.762  10.097
17855SOL    HW155572   5.865  14.750  -1.021
17855SOL    HW255573  -5.293   3.762  10.099
17856SOL     OW55574   9.362  10.121   9.651
17856SOL    HW155575   9.368  10.041   9.598
17856SOL    HW255576   9.269  10.145   9.647
17857SOL     OW55577   6.871   9.792   4.759
17857SOL    HW155578   6.885   9.773   4.667
17857SOL    HW255579   6.926   9.729   4.806
17858SOL     OW55580   7.213   9.505  10.439
17858SOL    HW155581  29.253 -12.629  -0.668
17858SOL    HW255582   7.284  -1.488  10.394
17859SOL     OW55583   6.877   3.947   1.340
17859SOL    HW155584 -26.323  48.133 -20.781
17859SOL    HW255585   6.875   3.986   1.427
17860SOL     OW55586  10.722   9.010   1.124
17860SOL    HW155587 -22.467  20.115   1.121
17860SOL    HW255588  10.780   9.042   1.193
17861SOL     OW55589   0.812   2.047   1.840
17861SOL    HW155590   0.872  -8.949   1.901
17861SOL    HW255591 -10.169  24.084   1.776
17862SOL     OW55592   7.372   9.853   5.232
17862SOL    HW155593   7.372  20.846   5.148
17862SOL    HW255594 -25.837 -12.196   5.242
17863SOL     OW55595   3.088   5.639   6.712
17863SOL    HW155596  25.162   5.603   6.800
17863SOL    HW255597   3.071   5.564   6.655
17864SOL     OW55598   9.863   2.254   6.376
17864SOL    HW155599   9.883   2.255  28.362
17864SOL    HW255600   9.947   2.274  -4.621
17865SOL     OW55601   9.945   3.158   0.054
17865SOL    HW155602  -1.122  25.329   0.054
17865SOL    HW255603  -1.020   3.155  -0.005
17866SOL     OW55604  10.801   1.109   3.110
17866SOL    HW155605  10.776   1.157  -8.009
17866SOL    HW255606  10.718  12.127   3.152
17867SOL     OW55607   0.785   1.441  -1.148
17867SOL    HW155608   0.722  -9.628   9.957
17867SOL    HW255609   0.861   1.468   9.943
17868SOL     OW55610   3.823   0.876   9.859
17868SOL    HW155611   3.814   0.791   9.901
17868SOL    HW255612   3.788  11.978  -1.116
17869SOL     OW55613   2.472   3.843   1.157
17869SOL    HW155614   2.509  14.896  -9.970
17869SOL    HW255615   2.518  -7.274  23.269
17870SOL     OW55616   6.803   4.892   5.653
17870SOL    HW155617   6.797   4.804 -27.427
17870SOL    HW255618  17.935  -6.124   5.664
17871SOL     OW55619   8.277   6.808   8.094
17871SOL    HW155620  19.262   6.746  19.087
17871SOL    HW255621   8.223   6.887  19.141
17872SOL     OW55622   3.048   8.814  11.027
17872SOL    HW155623   3.107  19.787  10.992
17872SOL    HW255624   3.086   8.897  10.998
17873SOL     OW55625   0.635   1.849   8.945
17873SOL    HW155626   0.585 -20.158  19.947
17873SOL    HW255627  11.610  12.820  31.041
17874SOL     OW55628   9.048   8.573  11.430
17874SOL    HW155629   9.140   8.597  11.421
17874SOL    HW255630   9.018   8.622 -32.651
17875SOL     OW55631  10.568   6.412   2.721
17875SOL    HW155632 -33.619   6.321   2.722
17875SOL    HW255633  10.643   6.414 -19.299
17876SOL     OW55634   0.033  10.741   2.528
17876SOL    HW155635   0.032  21.729   2.447
17876SOL    HW255636  -0.009 -11.255   2.503
17877SOL     OW55637   6.858   5.152   0.073
17877SOL    HW155638   6.940   5.102   0.074
17877SOL    HW255639   6.881  27.315   0.035
17878SOL     OW55640   2.448   9.520   8.394
17878SOL    HW155641  24.582   9.585   8.351
17878SOL    HW255642   2.360   9.558 -24.727
17879SOL     OW55643   2.492   1.008   8.409
17879SOL    HW155644   2.562  45.157  19.384
17879SOL    HW255645   2.537   1.003   8.494
17880SOL     OW55646   9.225   8.733   6.739
17880SOL    HW155647   9.162  -2.372   6.770
17880SOL    HW255648   9.256  30.855 -26.300
17881SOL     OW55649  -0.242   3.814   7.161
17881SOL    HW155650  21.764 -18.324 -14.904
17881SOL    HW255651  43.944  -7.243  18.111
17882SOL     OW55652   7.063   2.816   4.281
17882SOL    HW155653 -15.095  13.840   4.333
17882SOL    HW255654   7.092   2.903   4.306
17883SOL     OW55655   7.476   0.565   7.588
17883SOL    HW155656   7.508   0.651   7.617
17883SOL    HW255657  -3.507  22.621   7.514
17884SOL     OW55658   3.721  10.330   1.688
17884SOL    HW155659   3.801  10.369   1.652
17884SOL    HW255660  14.784  -0.801   1.705
17885SOL     OW55661  10.342   2.078  10.491
17885SOL    HW155662  -0.674   2.038  10.575
17885SOL    HW255663  10.419   2.063  10.436
17886SOL     OW55664   2.777   4.331   6.712
17886SOL    HW155665   2.813   4.392   6.777
17886SOL    HW255666 -19.349   4.388  17.690
17887SOL     OW55667   8.986   1.269   8.188
17887SOL    HW155668  -2.149   1.277   8.181
17887SOL    HW255669   9.018   1.359   8.190
17888SOL     OW55670   3.586   4.281  10.510
17888SOL    HW155671   3.614   4.257  10.598
17888SOL    HW255672  14.578   4.363  10.522
17889SOL     OW55673   3.863   6.357   8.561
17889SOL    HW155674   3.921   6.306   8.503
17889SOL    HW255675   3.776   6.348   8.521
17890SOL     OW55676   3.779   4.558   9.658
17890SOL    HW155677   3.779   4.653   9.651
17890SOL    HW255678   3.759   4.527  31.648
17891SOL     OW55679   0.456   4.548   5.718
17891SOL    HW155680   0.530   4.590   5.674
17891SOL    HW255681   0.464  15.614   5.810
17892SOL     OW55682   9.100  11.483   0.078
17892SOL    HW155683  20.065 -10.650   0.048
17892SOL    HW255684 -13.019  22.598   0.121
17893SOL     OW55685   2.242   3.200   7.748
17893SOL    HW155686  -8.877 -18.924   7.721
17893SOL    HW255687  -8.779  -7.872   7.836
17894SOL     OW55688   7.471   7.405   2.261
17894SOL    HW155689  29.516  18.495  13.374
17894SOL    HW255690   7.398  29.430   2.233
17895SOL     OW55691   7.981   3.039   8.670
17895SOL    HW155692   8.034   2.966   8.702
17895SOL    HW255693   8.039  25.194   8.677
17896SOL     OW55694   9.435   4.890   7.277
17896SOL    HW155695   9.450   4.983  29.337
17896SOL    HW255696   9.412   4.852   7.192
17897SOL     OW55697   3.781   5.541   2.795
17897SOL    HW155698   3.808   5.614   2.850
17897SOL    HW255699  14.785  27.556   2.857
17898SOL     OW55700   0.495   4.510   1.276
17898SOL    HW155701  22.564   4.551   1.362
17898SOL    HW255702   0.536  26.656   1.222
17899SOL     OW55703  -0.232   1.913  10.085
17899SOL    HW155704  -0.210   1.983  10.023
17899SOL    HW255705  10.712   1.916  10.092
17900SOL     OW55706   0.132   5.373   4.598
17900SOL    HW155707   0.115   5.430   4.672
17900SOL    HW255708  22.126   5.364   4.554
17901SOL     OW55709   2.045   6.555   0.236
17901SOL    HW155710   1.954 -15.552  22.319
17901SOL    HW255711   2.054 -15.460   0.306
17902SOL     OW55712  -0.426   7.683   8.104
17902SOL    HW155713  -0.377   7.606   8.134
17902SOL    HW255714  21.699  -3.328   8.025
17903SOL     OW55715  -0.398   0.990   8.401
17903SOL    HW155716  21.651 -10.116   8.339
17903SOL    HW255717  10.701   1.045   8.350
17904SOL     OW55718   5.815   9.989   5.134
17904SOL    HW155719  49.972   9.954   5.045
17904SOL    HW255720   5.760  10.067  -5.909
17905SOL     OW55721   5.636   4.715   4.393
17905SOL    HW155722   5.709   4.754   4.345
17905SOL    HW255723   5.569  15.740   4.327
17906SOL     OW55724   1.019   7.499   7.892
17906SOL    HW155725   0.959  -3.467  18.924
17906SOL    HW255726  23.093   7.455 -25.311
17907SOL     OW55727   7.796   9.222   5.286
17907SOL    HW155728   7.806  20.169  16.346
17907SOL    HW255729   7.743   9.223   5.206
17908SOL     OW55730   0.646   8.256  -1.256
17908SOL    HW155731   0.690   8.339  20.807
17908SOL    HW255732   0.560   8.281  31.896
17909SOL     OW55733   2.829  10.759   7.467
17909SOL    HW155734   2.861 -11.245   7.518
17909SOL    HW255735  24.814  10.772  18.502
17910SOL     OW55736   4.789   2.895   3.671
17910SOL    HW155737   4.763   2.917  14.622
17910SOL    HW255738  -6.263   2.976   3.721
17911SOL     OW55739   0.659   6.062   1.945
17911SOL    HW155740 -10.458   6.010   1.966
17911SOL    HW255741   0.677   6.043   1.853
17912SOL     OW55742   2.515   5.364  10.047
17912SOL    HW155743   2.529   5.274  10.076
17912SOL    HW255744   2.474   5.356   9.961
17913SOL     OW55745   2.774   9.848   3.934
17913SOL    HW155746   2.769   9.788  -7.180
17913SOL    HW255747  13.897  -1.210   3.975
17914SOL     OW55748   1.857  12.513   2.470
17914SOL    HW155749  -9.103 -31.694   2.450
17914SOL    HW255750  -9.220   1.428   2.545
17915SOL     OW55751   3.623   2.311   2.578
17915SOL    HW155752  -7.453   2.248   2.640
17915SOL    HW255753   3.715   2.319  13.641
17916SOL     OW55754   8.455   5.386   2.084
17916SOL    HW155755   8.504  16.466   2.156
17916SOL    HW255756   8.435   5.458   2.025
17917SOL     OW55757   0.817   6.700  10.619
17917SOL    HW155758   0.830   6.628  -0.359
17917SOL    HW255759  11.886   6.665  -0.505
17918SOL     OW55760   1.319   4.413  11.009
17918SOL    HW155761   1.398   4.467  11.001
17918SOL    HW255762   1.316  15.429  11.102
17919SOL     OW55763   9.578   7.944   4.512
17919SOL    HW155764  31.725   7.877  15.543
17919SOL    HW255765   9.506   7.913  15.496
17920SOL     OW55766   2.337   3.103   0.106
17920SOL    HW155767 -19.714   3.174   0.049
17920SOL    HW255768  13.299  -7.972   0.064
17921SOL     OW55769   4.596   4.403   1.284
17921SOL    HW155770   4.503   4.383  23.360
17921SOL    HW255771 -17.445   4.350   1.214
17922SOL     OW55772   8.029   7.447   5.312
17922SOL    HW155773   8.021   7.466  38.338
17922SOL    HW255774  19.043  29.434   5.320
17923SOL     OW55775   9.388   1.070   2.243
17923SOL    HW155776  20.389  34.101   2.239
17923SOL    HW255777  20.509   1.058  24.372
17924SOL     OW55778   4.615   9.523   5.952
17924SOL    HW155779   4.687 -12.617   5.973
17924SOL    HW255780   4.541   9.466   5.932
17925SOL     OW55781   1.741   2.183   0.940
17925SOL    HW155782 -20.285 -19.954   0.885
17925SOL    HW255783   1.687  -8.915   0.992
17926SOL     OW55784   3.261   4.764   1.780
17926SOL    HW155785   3.301  49.009   1.789
17926SOL    HW255786   3.168   4.779   1.799
17927SOL     OW55787   2.473   3.514   1.788
17927SOL    HW155788   2.518   3.465  -9.184
17927SOL    HW255789   2.494   3.468   1.706
17928SOL     OW55790   7.501   7.077   9.490
17928SOL    HW155791   7.541  18.187   9.439
17928SOL    HW255792  -3.552  18.155   9.577
17929SOL     OW55793   1.611  11.305   4.845
17929SOL    HW155794   1.580  11.278 -17.320
17929SOL    HW255795   1.536   0.308   4.886
17930SOL     OW55796  10.551   8.466   5.573
17930SOL    HW155797  10.540  19.433  16.552
17930SOL    HW255798  10.644   8.485   5.573
17931SOL     OW55799   4.163   4.017   6.879
17931SOL    HW155800   4.187   3.954   6.947
17931SOL    HW255801 -17.854  26.079  -4.232
17932SOL     OW55802   4.875   3.453   3.224
17932SOL    HW155803  -6.227   3.448  25.375
17932SOL    HW255804   4.961   3.448  25.345
17933SOL     OW55805  10.955   0.729   7.880
17933SOL    HW155806  10.888   0.780   7.926
17933SOL    HW255807  10.920  11.679  -3.161
17934SOL     OW55808  -1.627   4.139  10.536
17934SOL    HW155809  31.511   4.182  10.453
17934SOL    HW255810  -1.693   4.073  10.514
17935SOL     OW55811  10.186   6.082   6.141
17935SOL    HW155812  10.219   6.166   6.109
17935SOL    HW255813  10.254   6.051  28.280
17936SOL     OW55814   4.008   3.455   6.521
17936SOL    HW155815 -17.987   3.412  17.550
17936SOL    HW255816   3.947   3.401  17.511
17937SOL     OW55817   7.617   5.831  11.432
17937SOL    HW155818  29.611  -5.251   0.385
17937SOL    HW255819  18.660   5.890  11.357
17938SOL     OW55820   3.446   8.322   6.645
17938SOL    HW155821   3.431   8.249  17.625
17938SOL    HW255822   3.506   8.287   6.712
17939SOL     OW55823   7.895   1.590   0.608
17939SOL    HW155824   7.812   1.635   0.624
17939SOL    HW255825   7.928   1.627   0.527
17940SOL     OW55826   7.514   7.495  -1.212
17940SOL    HW155827   7.436  -3.595  31.930
17940SOL    HW255828  18.580   7.537  -1.130
17941SOL     OW55829   6.125   1.973   5.659
17941SOL    HW155830   6.167  35.006   5.666
17941SOL    HW255831   6.031  57.152   5.655
17942SOL     OW55832   7.888   1.994   7.323
17942SOL    HW155833 -14.270   2.009   7.270
17942SOL    HW255834  18.962  35.029  18.333
17943SOL     OW55835   3.406   9.628  10.847
17943SOL    HW155836   3.331   9.666 -11.279
17943SOL    HW255837   3.366   9.573  21.955
17944SOL     OW55838  10.820   3.933   3.543
17944SOL    HW155839  10.725  -7.109   3.526
17944SOL    HW255840  10.860  -7.105  -7.583
17945SOL     OW55841  -0.112   8.837   3.662
17945SOL    HW155842  -0.154   8.778   3.724
17945SOL    HW255843  11.010   8.794  14.679
17946SOL     OW55844  11.433  12.140   6.145
17946SOL    HW155845  11.383  -9.988   6.081
17946SOL    HW255846   0.457   1.038   6.179
17947SOL     OW55847   1.288   1.877   3.506
17947SOL    HW155848   1.366  12.908   3.452
17947SOL    HW255849  -9.724   1.849 -18.486
17948SOL     OW55850   2.865   1.486   3.526
17948SOL    HW155851   2.774   1.476   3.553
17948SOL    HW255852   2.886  23.483  14.522
17949SOL     OW55853  11.665   2.085  13.382
17949SOL    HW155854 -10.397   1.999   2.303
17949SOL    HW255855 -10.474   2.128 -19.798
17950SOL     OW55856   5.898  10.791   2.788
17950SOL    HW155857   5.892  10.743  13.745
17950SOL    HW255858  16.935  10.884   2.763
17951SOL     OW55859   6.736   0.863   2.172
17951SOL    HW155860   6.671 -10.171   2.102
17951SOL    HW255861   6.688   0.829 -19.832
17952SOL     OW55862   1.031  10.153   3.651
17952SOL    HW155863   1.072  10.175   3.735
17952SOL    HW255864  12.006  10.086   3.673
17953SOL     OW55865   8.480   0.569   3.141
17953SOL    HW155866   8.470  11.578  25.310
17953SOL    HW255867   8.459   0.662   3.145
17954SOL     OW55868  -1.629   5.618   1.428
17954SOL    HW155869  42.441   5.653   1.415
17954SOL    HW255870  20.437  16.576  -9.564
17955SOL     OW55871   0.215   2.277   4.776
17955SOL    HW155872   0.202   2.332   4.699
17955SOL    HW255873   0.310   2.265   4.781
17956SOL     OW55874   5.749   5.423   0.584
17956SOL    HW155875   5.783   5.397   0.498
17956SOL    HW255876  16.866  16.473  11.678
17957SOL     OW55877   2.637  10.363   5.568
17957SOL    HW155878  -8.351  10.344   5.646
17957SOL    HW255879   2.651  10.456   5.552
17958SOL     OW55880   8.654   3.825   8.478
17958SOL    HW155881   8.599 -29.290   8.556
17958SOL    HW255882   8.605 -18.308 -24.702
17959SOL     OW55883   0.943   6.988   5.387
17959SOL    HW155884 -10.158  -4.122   5.367
17959SOL    HW255885   0.921   7.015   5.476
17960SOL     OW55886  10.285   3.383  10.948
17960SOL    HW155887  10.204  14.469  22.004
17960SOL    HW255888  -0.718   3.425  -0.170
17961SOL     OW55889   2.488   8.232   0.263
17961SOL    HW155890  46.658  30.245   0.332
17961SOL    HW255891  13.476  -2.739   0.304
17962SOL     OW55892   3.904   8.200   0.702
17962SOL    HW155893   3.825   8.201  11.688
17962SOL    HW255894   3.889   8.267   0.768
17963SOL     OW55895  10.180   8.697   3.887
17963SOL    HW155896  10.184   8.638   3.811
17963SOL    HW255897 -11.906   8.784   3.850
17964SOL     OW55898   9.210   9.912   0.842
17964SOL    HW155899   9.304   9.918   0.828
17964SOL    HW255900   9.186  -1.213   0.808
17965SOL     OW55901   0.529   5.787   4.448
17965SOL    HW155902  11.494   5.731   4.466
17965SOL    HW255903  33.621   5.842   4.375
17966SOL     OW55904   7.936   5.210   3.514
17966SOL    HW155905 -25.234   5.130  -7.534
17966SOL    HW255906   7.993  -5.846   3.590
17967SOL     OW55907   8.242   1.967   2.404
17967SOL    HW155908   8.227   2.058   2.378
17967SOL    HW255909  19.201   1.942   2.450
17968SOL     OW55910   8.896   6.319   4.930
17968SOL    HW155911  19.932  -4.642   4.985
17968SOL    HW255912   8.928 -15.729  15.885
17969SOL     OW55913   2.227   1.449   2.099
17969SOL    HW155914   2.162   1.454   2.029
17969SOL    HW255915   2.272   1.534 -19.983
17970SOL     OW55916  11.251   2.320   8.318
17970SOL    HW155917   0.195   2.414  19.367
17970SOL    HW255918  11.326  -8.725   8.259
17971SOL     OW55919   8.643   9.612   0.950
17971SOL    HW155920  19.676   9.523  12.023
17971SOL    HW255921   8.586   9.612   0.872
17972SOL     OW55922  10.106   0.362   5.793
17972SOL    HW155923  10.148  22.370   5.745
17972SOL    HW255924  21.128  11.366 -16.199
17973SOL     OW55925   5.046   5.121   4.252
17973SOL    HW155926   5.088   5.087   4.173
17973SOL    HW255927   5.098   5.087   4.324
17974SOL     OW55928   1.866  10.515   7.696
17974SOL    HW155929   1.874  -0.544   7.790
17974SOL    HW255930   1.811  -0.595   7.662
17975SOL     OW55931   3.983   2.546   3.357
17975SOL    HW155932   4.015  24.538   3.332
17975SOL    HW255933  15.002   2.538   3.450
17976SOL     OW55934   1.577   4.320   6.904
17976SOL    HW155935  12.543   4.297  29.040
17976SOL    HW255936  12.615   4.415   6.898
17977SOL     OW55937  10.505   2.080   9.265
17977SOL    HW155938  -0.592   2.009   9.295
17977SOL    HW255939  10.486   2.089   9.171
17978SOL     OW55940   8.517   8.839   9.018
17978SOL    HW155941   8.554   8.889   8.945
17978SOL    HW255942   8.504   8.904   9.087
17979SOL     OW55943   7.170   3.710   4.017
17979SOL    HW155944  29.209   3.725   3.931
17979SOL    HW255945   7.262  14.772  15.045
17980SOL     OW55946  10.901   7.383   2.474
17980SOL    HW155947  10.915  -3.680   2.382
17980SOL    HW255948  -0.217   7.438  13.512
17981SOL     OW55949  10.265   0.694   0.118
17981SOL    HW155950  -0.770 -10.251   0.099
17981SOL    HW255951  10.195   0.662   0.062
17982SOL     OW55952   2.254   1.693   5.244
17982SOL    HW155953   2.182   1.635   5.267
17982SOL    HW255954   2.315 -20.441 -16.884
17983SOL     OW55955  10.899  -0.471   6.686
17983SOL    HW155956  10.891  32.639  28.860
17983SOL    HW255957  10.965  -0.404  28.751
17984SOL     OW55958   7.831   9.779   6.795
17984SOL    HW155959   7.747   9.736  28.889
17984SOL    HW255960   7.883   9.757   6.872
17985SOL     OW55961   0.587   0.790   5.945
17985SOL    HW155962   0.584  11.747   5.897
17985SOL    HW255963  11.575   0.850   5.891
17986SOL     OW55964   8.776   5.218   7.674
17986SOL    HW155965  19.904   5.234   7.705
17986SOL    HW255966   8.720  16.271   7.751
17987SOL     OW55967   7.789   7.951   7.090
17987SOL    HW155968   7.863   7.892   7.079
17987SOL    HW255969   7.748 -25.195  -3.867
17988SOL     OW55970   0.922  10.774   3.831
17988SOL    HW155971   0.924 -11.249  -7.287
17988SOL    HW255972   0.985  10.814   3.890
17989SOL     OW55973   9.523   8.508   1.906
17989SOL    HW155974   9.529   8.415   1.928
17989SOL    HW255975  -1.451   8.521   1.837
17990SOL     OW55976   1.639  10.935  11.311
17990SOL    HW155977  12.761  -0.058  11.295
17990SOL    HW255978   1.658 -22.242 -32.774
17991SOL     OW55979   7.409   5.227   1.465
17991SOL    HW155980  -3.592   5.154   1.418
17991SOL    HW255981   7.384   5.289   1.397
17992SOL     OW55982   4.379   8.633   1.797
17992SOL    HW155983   4.284   8.628   1.785
17992SOL    HW255984   4.392   8.714   1.847
17993SOL     OW55985   5.844   9.119   0.884
17993SOL    HW155986   5.828   9.039   0.934
17993SOL    HW255987   5.904   9.169   0.939
17994SOL     OW55988   5.275  10.392  12.595
17994SOL    HW155989   5.332  10.431   1.489
17994SOL    HW255990   5.188  10.427  -9.502
17995SOL     OW55991   0.514   9.191   3.550
17995SOL    HW155992   0.604  20.263  14.594
17995SOL    HW255993  11.512  20.283  25.561
17996SOL     OW55994   0.907   2.407   3.663
17996SOL    HW155995   0.893   2.486   3.612
17996SOL    HW255996   0.994  24.496  14.741
17997SOL     OW55997   7.571   8.372   0.265
17997SOL    HW155998   7.498   8.394  33.442
17997SOL    HW255999   7.533   8.373   0.178
17998SOL     OW56000   3.569   3.570   2.023
17998SOL    HW156001   3.512   3.505  13.020
17998SOL    HW256002   3.606  -7.516  -8.941
17999SOL     OW56003   3.045   9.734   1.750
17999SOL    HW156004   3.007   9.773   1.672
17999SOL    HW256005   2.971 -12.380  12.838
18000SOL     OW56006   9.724  11.724   8.612
18000SOL    HW156007   9.717  11.672   8.532
18000SOL    HW256008   9.817 -10.334  -2.421
18001SOL     OW56009   9.691   4.370  10.424
18001SOL    HW156010   9.679   4.434  10.495
18001SOL    HW256011  20.826   4.359  10.418
18002SOL     OW56012  -0.568   2.482   6.871
18002SOL    HW156013  21.597   2.520   6.854
18002SOL    HW256014  -0.616  13.590   6.918
18003SOL     OW56015   3.622   1.688   2.189
18003SOL    HW156016   3.617   1.596  -8.824
18003SOL    HW256017   3.680   1.688   2.113
18004SOL     OW56018   1.565  10.307   1.143
18004SOL    HW156019   1.657  10.284   1.129
18004SOL    HW256020  -9.495  21.407   1.071
18005SOL     OW56021   1.453   5.849   4.157
18005SOL    HW156022   1.384   5.913   4.143
18005SOL    HW256023   1.414  -5.256   4.216
18006SOL     OW56024   2.716   7.956   2.301
18006SOL    HW156025  -8.409  18.952  -8.740
18006SOL    HW256026  -8.263  18.928  -8.710
18007SOL     OW56027   3.885   6.895   8.133
18007SOL    HW156028  15.005   6.858   8.169
18007SOL    HW256029  14.869   6.911   8.209
18008SOL     OW56030   4.374   3.532   3.386
18008SOL    HW156031   4.397  -7.542   3.472
18008SOL    HW256032   4.351 -18.456   3.402
18009SOL     OW56033   5.702   4.838   1.374
18009SOL    HW156034  16.697  15.814  12.469
18009SOL    HW256035  16.710   4.923  -9.635
18010SOL     OW56036   1.115   4.180   3.839
18010SOL    HW156037   1.162   4.210   3.917
18010SOL    HW256038  -9.959  -6.780  -7.241
18011SOL     OW56039   0.778   3.866   8.202
18011SOL    HW156040   0.690   3.833   8.222
18011SOL    HW256041   0.775  14.998  30.307
18012SOL     OW56042   3.936  -1.537   8.589
18012SOL    HW156043  -7.100   9.478   8.497
18012SOL    HW256044   3.848  31.618   8.601
18013SOL     OW56045  -1.255   8.963   2.521
18013SOL    HW156046  31.858   8.973   2.616
18013SOL    HW256047  -1.335  19.956 -19.582
18014SOL     OW56048  10.746   6.738   3.215
18014SOL    HW156049  10.780   6.801   3.278
18014SOL    HW256050  10.652   6.732   3.234
18015SOL     OW56051   0.396   4.643   7.847
18015SOL    HW156052   0.436 -17.456   7.931
18015SOL    HW256053   0.453   4.708 -14.273
18016SOL     OW56054   3.253   3.770   8.581
18016SOL    HW156055   3.278   3.800  19.707
18016SOL    HW256056  14.201   3.798   8.572
18017SOL     OW56057   9.369   2.280   6.559
18017SOL    HW156058   9.436   2.238  17.544
18017SOL    HW256059   9.417   2.348  17.647
18018SOL     OW56060   1.640   3.261  10.059
18018SOL    HW156061   1.705   3.276  21.167
18018SOL    HW256062   1.646  25.246  10.041
18019SOL     OW56063   2.837  11.131   5.530
18019SOL    HW156064 -19.187   0.036   5.585
18019SOL    HW256065   2.748  11.101   5.547
18020SOL     OW56066  10.168   9.332   9.717
18020SOL    HW156067  10.152   9.375   9.633
18020SOL    HW256068  10.175   9.239   9.696
18021SOL     OW56069   2.866   3.615   3.992
18021SOL    HW156070  13.985 -18.410   3.985
18021SOL    HW256071   2.804  -7.384   3.931
18022SOL     OW56072   5.658   4.558   2.867
18022SOL    HW156073   5.681   4.490   2.931
18022SOL    HW256074   5.625   4.509   2.792
18023SOL     OW56075   5.683   4.646   5.010
18023SOL    HW156076   5.701  59.889   4.928
18023SOL    HW256077  27.670   4.621   5.003
18024SOL     OW56078   3.754   4.259   3.575
18024SOL    HW156079   3.672   4.295   3.608
18024SOL    HW256080   3.783   4.320   3.508
18025SOL     OW56081  10.684  10.688   8.564
18025SOL    HW156082  10.691  -0.290  -2.402
18025SOL    HW256083  10.706  10.603   8.601
18026SOL     OW56084  10.644   9.815   6.198
18026SOL    HW156085  10.628   9.806   6.104
18026SOL    HW256086 -22.440  20.769   6.225
18027SOL     OW56087  10.660   1.974   8.292
18027SOL    HW156088 -22.422   2.060   8.308
18027SOL    HW256089  10.736   1.916   8.283
18028SOL     OW56090   2.831   2.594  10.325
18028SOL    HW156091 -19.222   2.600  10.417
18028SOL    HW256092   2.913   2.594  10.276
18029SOL     OW56093  10.940   1.696   6.933
18029SOL    HW156094  10.979   1.728   6.851
18029SOL    HW256095  10.846   1.698   6.917
18030SOL     OW56096   4.402   9.868   2.525
18030SOL    HW156097  15.421   9.944   2.580
18030SOL    HW256098  15.436   9.900   2.436
18031SOL     OW56099   4.186   2.481   1.891
18031SOL    HW156100  15.312   2.464  -9.187
18031SOL    HW256101  -6.893   2.547   1.835
18032SOL     OW56102   8.326   4.073   5.185
18032SOL    HW156103   8.358   4.162  16.210
18032SOL    HW256104   8.366   4.021   5.115
18033SOL     OW56105   4.432   6.618  10.715
18033SOL    HW156106  -6.654   6.698  10.689
18033SOL    HW256107  -6.550  17.639  10.641
18034SOL     OW56108   3.247   3.767   3.461
18034SOL    HW156109   3.242   3.770  -7.674
18034SOL    HW256110   3.273   3.856 -18.593
18035SOL     OW56111   7.508   1.794   3.766
18035SOL    HW156112   7.555  12.751   3.765
18035SOL    HW256113   7.577  -9.179   3.767
18036SOL     OW56114   6.101  11.341   1.756
18036SOL    HW156115   6.009 -10.717  23.821
18036SOL    HW256116   6.149  11.402   1.700
18037SOL     OW56117   0.693  10.360   1.327
18037SOL    HW156118   0.782  10.386   1.303
18037SOL    HW256119   0.642  10.369  -9.793
18038SOL     OW56120   3.083   7.504   2.712
18038SOL    HW156121  -7.892  -3.556   2.645
18038SOL    HW256122   3.089   7.599   2.724
18039SOL     OW56123   8.176   9.199   9.218
18039SOL    HW156124   8.251   9.169   9.269
18039SOL    HW256125   8.156   9.124   9.161
18040SOL     OW56126   2.093  10.448   3.883
18040SOL    HW156127  -9.042  10.437   3.876
18040SOL    HW256128   2.108  10.540   3.863
18041SOL     OW56129  10.058   2.548   4.067
18041SOL    HW156130  10.056  13.620  15.196
18041SOL    HW256131 -12.101  -8.457  15.066
18042SOL     OW56132   7.066   0.363   7.113
18042SOL    HW156133   7.157   0.388  18.134
18042SOL    HW256134  29.104   0.359   7.027
18043SOL     OW56135   2.736   5.489   2.784
18043SOL    HW156136  13.702   5.432   2.762
18043SOL    HW256137   2.800   5.473   2.715
18044SOL     OW56138  10.970   7.129   0.683
18044SOL    HW156139  10.923 -14.882   0.733
18044SOL    HW256140  11.020  18.121  11.788
18045SOL     OW56141  10.661  -0.467  -1.835
18045SOL    HW156142 -11.480  21.633   9.135
18045SOL    HW256143 -11.455  -0.544  20.287
18046SOL     OW56144   2.501   7.391   8.540
18046SOL    HW156145 -30.604   7.472   8.589
18046SOL    HW256146  -8.605   7.343   8.590
18047SOL     OW56147   6.276   8.158   1.872
18047SOL    HW156148   6.360   8.195   1.901
18047SOL    HW256149  17.284   8.108   1.947
18048SOL     OW56150   0.277   6.997  11.025
18048SOL    HW156151   0.307   7.081   0.022
18048SOL    HW256152   0.335  29.011  11.065
18049SOL     OW56153   7.828   8.427   3.973
18049SOL    HW156154   7.826  19.371   3.968
18049SOL    HW256155   7.871   8.445   4.057
18050SOL     OW56156  11.538   3.744   3.929
18050SOL    HW156157  11.503   3.741   4.018
18050SOL    HW256158 -10.613 -29.403  -7.166
18051SOL     OW56159   3.060   6.838   8.989
18051SOL    HW156160   2.991   6.859   9.052
18051SOL    HW256161 -18.960   6.913   8.993
18052SOL     OW56162   8.606  -2.852   8.334
18052SOL    HW156163   8.619  52.252  30.428
18052SOL    HW256164   8.586  -2.816 -13.659
18053SOL     OW56165   4.328   9.664   9.147
18053SOL    HW156166 -39.737   9.681  20.197
18053SOL    HW256167  15.362   9.570   9.126
18054SOL     OW56168  -0.068   9.440   6.292
18054SOL    HW156169  -0.068  20.488   6.196
18054SOL    HW256170  33.043   9.346   6.308
18055SOL     OW56171   7.250   3.660   5.212
18055SOL    HW156172  -3.706   3.617   5.193
18055SOL    HW256173   7.275 -18.330  16.276
18056SOL     OW56174   8.566   8.488  10.471
18056SOL    HW156175  -2.437  41.550  10.402
18056SOL    HW256176   8.494  19.476 -22.610
18057SOL     OW56177   4.580   8.795   7.214
18057SOL    HW156178 -28.511  -2.277  -3.740
18057SOL    HW256179   4.501   8.745  -3.846
18058SOL     OW56180   7.106   6.085  10.722
18058SOL    HW156181  18.169 -15.968  10.633
18058SOL    HW256182   7.060   6.002  10.712
18059SOL     OW56183   4.553   7.878   7.691
18059SOL    HW156184   4.506   7.954  18.764
18059SOL    HW256185   4.580   7.902  29.681
18060SOL     OW56186   3.586   8.435   0.039
18060SOL    HW156187   3.538  30.593   0.013
18060SOL    HW256188   3.674   8.447   0.002
18061SOL     OW56189   0.413   8.224  12.227
18061SOL    HW156190   0.446   8.135  12.236
18061SOL    HW256191   0.447   8.270  -9.775
18062SOL     OW56192   6.822   4.228   9.279
18062SOL    HW156193  28.892  15.174   9.297
18062SOL    HW256194   6.751  15.288   9.218
18063SOL     OW56195   6.674  -1.364   5.330
18063SOL    HW156196   6.757   9.661   5.283
18063SOL    HW256197  17.683  31.666 -16.728
18064SOL     OW56198  10.449   6.005   5.318
18064SOL    HW156199  10.423   5.949  -5.648
18064SOL    HW256200  10.496   5.945   5.259
18065SOL     OW56201   1.238   7.503   2.651
18065SOL    HW156202   1.214  18.618  24.783
18065SOL    HW256203   1.223  29.610  13.600
18066SOL     OW56204  11.918   5.275   6.598
18066SOL    HW156205   0.880   5.314   6.686
18066SOL    HW256206   0.900   5.347   6.539
18067SOL     OW56207   9.446   1.341   7.882
18067SOL    HW156208   9.453   1.386 -14.281
18067SOL    HW256209   9.522  -9.667   7.933
18068SOL     OW56210   9.637   6.075   6.665
18068SOL    HW156211 -23.534   6.000   6.638
18068SOL    HW256212 -34.432  17.081   6.673
18069SOL     OW56213   7.507   1.511   6.621
18069SOL    HW156214   7.583   1.497   6.565
18069SOL    HW256215   7.540  -9.475   6.694
18070SOL     OW56216  10.537   7.154   9.342
18070SOL    HW156217  10.487  -3.918   9.267
18070SOL    HW256218  10.476   7.147   9.415
18071SOL     OW56219   9.019  11.056  11.218
18071SOL    HW156220   9.050  10.966  11.222
18071SOL    HW256221   9.073 -10.982   0.111
18072SOL     OW56222   9.623   1.994   4.130
18072SOL    HW156223   9.662   1.925  37.196
18072SOL    HW256224   9.695   2.053   4.152
18073SOL     OW56225   9.522   7.409   8.238
18073SOL    HW156226  20.484   7.439  19.231
18073SOL    HW256227   9.553  29.412  30.267
18074SOL     OW56228   5.026   1.957   3.742
18074SOL    HW156229   4.943  -9.055  -7.258
18074SOL    HW256230   5.001   1.919  -7.382
18075SOL     OW56231   8.256   5.375   2.848
18075SOL    HW156232   8.293   5.449   2.896
18075SOL    HW256233  19.291   5.304   2.912
18076SOL     OW56234  -0.958   4.563   9.238
18076SOL    HW156235  21.214   4.555 -12.861
18076SOL    HW256236  10.044   4.479 -12.867
18077SOL     OW56237  11.692   2.323   2.047
18077SOL    HW156238   0.597   2.373   1.988
18077SOL    HW256239 -21.406   2.384   2.118
18078SOL     OW56240   0.496   7.185   4.411
18078SOL    HW156241 -10.637   7.165  15.438
18078SOL    HW256242  11.556 -14.830  15.383
18079SOL     OW56243   1.687   5.099   5.000
18079SOL    HW156244   1.702  -5.910  -5.950
18079SOL    HW256245   1.657   5.176   4.953
18080SOL     OW56246   4.009   8.288   6.018
18080SOL    HW156247  -7.067   8.232   5.950
18080SOL    HW256248  -6.998  19.404   5.971
18081SOL     OW56249   3.119   8.375   7.453
18081SOL    HW156250   3.078   8.325   7.382
18081SOL    HW256251   3.212   8.357  18.485
18082SOL     OW56252  -0.064   4.598  11.016
18082SOL    HW156253  21.996   4.628  10.927
18082SOL    HW256254  -0.069   4.677  11.069
18083SOL     OW56255   3.452  10.870   8.543
18083SOL    HW156256   3.401  10.916   8.609
18083SOL    HW256257   3.521  -0.214   8.593
18084SOL     OW56258   2.947   5.088   0.000
18084SOL    HW156259  25.060   4.998  -0.006
18084SOL    HW256260   3.014   5.135   0.049
18085SOL     OW56261   2.965   2.010   1.565
18085SOL    HW156262  25.027   2.104   1.565
18085SOL    HW256263   2.923  13.016  -9.554
18086SOL     OW56264  10.235   0.124  10.357
18086SOL    HW156265  -0.791   0.035  10.325
18086SOL    HW256266  10.141  22.208  -0.665
18087SOL     OW56267   7.894   1.146   9.639
18087SOL    HW156268   7.942   1.219   9.599
18087SOL    HW256269   7.809   1.146  -1.445
18088SOL     OW56270   0.900  10.654   2.178
18088SOL    HW156271   0.913  10.563   2.203
18088SOL    HW256272   0.837 -11.427   2.106
18089SOL     OW56273   3.122   0.135   5.647
18089SOL    HW156274   3.212   0.166   5.655
18089SOL    HW256275  25.159   0.162   5.729
18090SOL     OW56276   6.095   7.589   9.314
18090SOL    HW156277   6.039   7.528   9.362
18090SOL    HW256278   6.130  18.687  20.420
18091SOL     OW56279   8.736   0.315   7.547
18091SOL    HW156280   8.819  11.338   7.502
18091SOL    HW256281   8.681   0.241   7.523
18092SOL     OW56282   3.002   9.692   3.170
18092SOL    HW156283   2.977   9.760   3.232
18092SOL    HW256284  47.089   9.629  -7.867
18093SOL     OW56285   3.058   2.627   7.045
18093SOL    HW156286   3.014 -19.463   6.960
18093SOL    HW256287   3.137   2.575  -4.002
18094SOL     OW56288   6.405   5.563   8.100
18094SOL    HW156289   6.387  38.589   8.113
18094SOL    HW256290   6.331   5.595   8.050
18095SOL     OW56291  -1.218   5.551   6.708
18095SOL    HW156292   9.794   5.460  17.752
18095SOL    HW256293   9.913   5.547  17.721
18096SOL     OW56294  10.965   2.785   3.964
18096SOL    HW156295  10.898   2.806   3.899
18096SOL    HW256296  10.947   2.844   4.038
18097SOL     OW56297  11.558  10.610   7.896
18097SOL    HW156298 -10.461  10.650   7.959
18097SOL    HW256299  11.479  10.590  30.027
18098SOL     OW56300   6.936   1.672   7.735
18098SOL    HW156301   7.012   1.708   7.780
18098SOL    HW256302  29.022   1.577   7.748
18099SOL     OW56303   6.091   1.120   0.276
18099SOL    HW156304 -15.984   1.025   0.281
18099SOL    HW256305  -4.912   1.150   0.359
18100SOL     OW56306  11.141   3.578   4.484
18100SOL    HW156307 -21.966   3.569  26.657
18100SOL    HW256308  11.187   3.658  26.540
18101SOL     OW56309   8.444   8.404   9.106
18101SOL    HW156310   8.508   8.333  20.158
18101SOL    HW256311   8.494  52.642   9.119
18102SOL     OW56312   9.050   7.595  11.629
18102SOL    HW156313   9.115 -14.425   0.627
18102SOL    HW256314  -2.056   7.654  11.592
18103SOL     OW56315   8.106   8.698   3.793
18103SOL    HW156316   8.013   8.697  -7.225
18103SOL    HW256317   8.122  19.826   3.759
18104SOL     OW56318   6.853   5.990  10.154
18104SOL    HW156319   6.913   5.942  10.097
18104SOL    HW256320  -4.212  -4.973  10.102
18105SOL     OW56321   2.306  -0.352  10.997
18105SOL    HW156322   2.326  -0.437  10.959
18105SOL    HW256323  13.290  21.771  10.932
18106SOL     OW56324   6.945  10.565   2.789
18106SOL    HW156325   6.871 -11.542   2.842
18106SOL    HW256326   6.923  -0.503  -8.340
18107SOL     OW56327   8.518   4.756   1.801
18107SOL    HW156328   8.483   4.837   1.839
18107SOL    HW256329  19.487  15.763   1.745
18108SOL     OW56330   6.791   8.025   0.932
18108SOL    HW156331   6.730   8.020   0.858
18108SOL    HW256332   6.846   8.101   0.912
18109SOL     OW56333   1.049   1.324   5.638
18109SOL    HW156334 -10.051   1.364   5.576
18109SOL    HW256335   1.098  12.436   5.675
18110SOL     OW56336   5.218   4.032   9.002
18110SOL    HW156337   5.212   4.027   9.097
18110SOL    HW256338  16.351  15.085   8.984
18111SOL     OW56339   5.444   8.699   5.875
18111SOL    HW156340   5.531  30.810   5.852
18111SOL    HW256341   5.429  19.773   5.964
18112SOL     OW56342   0.574   4.596   1.009
18112SOL    HW156343   0.584  15.645   0.914
18112SOL    HW256344   0.523   4.516 -10.020
18113SOL     OW56345   9.181   8.016   4.579
18113SOL    HW156346  -1.856  19.134   4.635
18113SOL    HW256347 -12.919   7.945   4.640
18114SOL     OW56348   0.054  10.064   6.533
18114SOL    HW156349   0.111  -1.042   6.493
18114SOL    HW256350  11.142  -0.894   6.524
18115SOL     OW56351   5.735  10.225   6.413
18115SOL    HW156352   5.661  10.284   6.397
18115SOL    HW256353   5.694  10.141   6.434
18116SOL     OW56354   4.126   8.095  10.376
18116SOL    HW156355   4.152 -13.990  10.284
18116SOL    HW256356  -6.837   8.132  -0.619
18117SOL     OW56357   8.156   8.763   6.819
18117SOL    HW156358   8.125   8.675   6.800
18117SOL    HW256359  30.181   8.792  17.933
18118SOL     OW56360   8.979   0.573   9.926
18118SOL    HW156361   8.957   0.500   9.984
18118SOL    HW256362   9.021   0.638   9.984
18119SOL     OW56363   4.299   8.707   4.397
18119SOL    HW156364   4.251   8.790   4.406
18119SOL    HW256365   4.305   8.693   4.302
18120SOL     OW56366  12.507   8.553   7.960
18120SOL    HW156367   1.456   8.517  19.087
18120SOL    HW256368  -9.603  -2.555  18.940
18121SOL     OW56369   2.363   2.607   8.526
18121SOL    HW156370   2.352   2.701   8.538
18121SOL    HW256371   2.377   2.573  19.655
18122SOL     OW56372   9.690   9.020   3.851
18122SOL    HW156373   9.659   9.049   3.937
18122SOL    HW256374   9.619   9.042   3.791
18123SOL     OW56375   8.859   2.188   0.774
18123SOL    HW156376  -2.182   2.259   0.837
18123SOL    HW256377  19.943  13.264 -10.342
18124SOL     OW56378   9.004  -0.677   9.879
18124SOL    HW156379   8.916  -0.651   9.906
18124SOL    HW256380   9.051  21.389  -1.078
18125SOL     OW56381   9.701  11.048   3.898
18125SOL    HW156382   9.777  11.010   3.855
18125SOL    HW256383  31.715 -11.101   3.899
18126SOL     OW56384   9.139   6.569   0.488
18126SOL    HW156385  20.165   6.650   0.439
18126SOL    HW256386  20.244   6.521   0.438
18127SOL     OW56387   1.207   5.895   7.045
18127SOL    HW156388  12.283  28.060  -4.015
18127SOL    HW256389   1.133   5.913  18.143
18128SOL     OW56390   0.533   4.651   8.398
18128SOL    HW156391   0.589   4.577   8.378
18128SOL    HW256392   0.517   4.645   8.492
18129SOL     OW56393   6.699   1.003   0.320
18129SOL    HW156394   6.625  12.089  11.398
18129SOL    HW256395   6.770 -21.011 -10.722
18130SOL     OW56396  10.903   4.618   6.019
18130SOL    HW156397  10.898   4.653   6.108
18130SOL    HW256398  10.813  15.633   5.997
18131SOL     OW56399   7.718   9.794   3.988
18131SOL    HW156400   7.668  -1.240   4.070
18131SOL    HW256401   7.661   9.747   3.928
18132SOL     OW56402   1.516   1.861   0.626
18132SOL    HW156403   1.535   1.781  22.656
18132SOL    HW256404   1.553   1.844   0.713
18133SOL     OW56405   7.358   2.448  10.531
18133SOL    HW156406  -3.626  -8.638  -0.571
18133SOL    HW256407   7.361   2.539  10.503
18134SOL     OW56408   1.783  10.509   4.112
18134SOL    HW156409   1.803  10.512   4.019
18134SOL    HW256410   1.860  10.548   4.155
18135SOL     OW56411   9.898   8.792   9.345
18135SOL    HW156412 -23.262   8.709   9.324
18135SOL    HW256413  -1.049   8.770   9.359
18136SOL     OW56414   0.774   2.233   5.645
18136SOL    HW156415   0.854   2.284   5.658
18136SOL    HW256416   0.786   2.191   5.560
18137SOL     OW56417  12.857   5.470   3.212
18137SOL    HW156418   1.838   5.446   3.121
18137SOL    HW256419  -9.213   5.565   3.214
18138SOL     OW56420   5.215   2.434   5.626
18138SOL    HW156421   5.292   2.449   5.681
18138SOL    HW256422   5.142   2.470   5.676
18139SOL     OW56423  10.114   9.086   5.519
18139SOL    HW156424  10.182  20.071   5.479
18139SOL    HW256425  10.143   9.175 -16.577
18140SOL     OW56426   2.629   6.766   3.472
18140SOL    HW156427   2.582   6.689   3.503
18140SOL    HW256428  -8.355 -26.327  -7.494
18141SOL     OW56429   9.426   1.653   5.521
18141SOL    HW156430   9.332   1.668   5.530
18141SOL    HW256431   9.466   1.738  16.581
18142SOL     OW56432   7.412   1.615   9.934
18142SOL    HW156433  18.365   1.587   9.902
18142SOL    HW256434  18.435   1.647  10.022
18143SOL     OW56435   2.807   5.702   6.567
18143SOL    HW156436  24.878   5.656  17.690
18143SOL    HW256437   2.783   5.793   6.587
18144SOL     OW56438   7.655   9.329   0.098
18144SOL    HW156439   7.715  -1.638   0.118
18144SOL    HW256440  -3.346   9.253   0.141
18145SOL     OW56441  -0.152   5.281   5.830
18145SOL    HW156442  10.910  16.232   5.799
18145SOL    HW256443  -0.156  16.373   5.750
18146SOL     OW56444   8.821  10.899   1.386
18146SOL    HW156445   8.842  10.953   1.463
18146SOL    HW256446   8.827  10.809   1.419
18147SOL     OW56447  10.515  10.479   4.076
18147SOL    HW156448  10.549  10.424   4.147
18147SOL    HW256449  10.472  10.418   4.016
18148SOL     OW56450   0.806   5.839   1.340
18148SOL    HW156451   0.847  -5.147  -9.633
18148SOL    HW256452  11.766   5.886   1.315
18149SOL     OW56453   2.176  12.157   1.862
18149SOL    HW156454   2.088  -9.928   1.826
18149SOL    HW256455  -8.806  12.139   1.788
18150SOL     OW56456   5.801   0.457   7.553
18150SOL    HW156457  16.864   0.371   7.586
18150SOL    HW256458  -5.224   0.516   7.628
18151SOL     OW56459   8.907   1.887   8.121
18151SOL    HW156460  -2.081  24.033  19.116
18151SOL    HW256461  30.972   1.819   8.056
18152SOL     OW56462   5.896   0.315   9.640
18152SOL    HW156463   5.950  22.470  20.701
18152SOL    HW256464   5.848   0.296   9.721
18153SOL     OW56465   0.910   1.501   3.380
18153SOL    HW156466   0.919  23.547  -7.570
18153SOL    HW256467 -10.111   1.595   3.387
18154SOL     OW56468   0.248   3.405   5.721
18154SOL    HW156469   0.206  25.530   5.793
18154SOL    HW256470  11.372   3.448   5.712
18155SOL     OW56471   4.596   6.241   7.631
18155SOL    HW156472   4.594   6.176  -3.479
18155SOL    HW256473   4.505  -4.776   7.645
18156SOL     OW56474   8.870  -0.272   0.920
18156SOL    HW156475  42.076  10.780   0.883
18156SOL    HW256476   8.878  -0.246   1.012
18157SOL     OW56477   4.461   9.021   8.542
18157SOL    HW156478   4.393   9.003   8.607
18157SOL    HW256479   4.442  19.999 -24.648
18158SOL     OW56480   4.643   0.944   5.258
18158SOL    HW156481   4.639   0.908  27.426
18158SOL    HW256482   4.732   0.926   5.229
18159SOL     OW56483   6.231   7.830  10.321
18159SOL    HW156484  28.245   7.884  21.317
18159SOL    HW256485   6.194   7.814  10.408
18160SOL     OW56486   6.771   9.072   2.586
18160SOL    HW156487   6.754  20.097  -8.546
18160SOL    HW256488   6.861  -1.998  -8.441
18161SOL     OW56489   9.823   0.304   9.652
18161SOL    HW156490   9.836   0.270   9.740
18161SOL    HW256491   9.898   0.272  20.642
18162SOL     OW56492   0.991   3.067   5.935
18162SOL    HW156493   0.979  -7.878   5.924
18162SOL    HW256494   1.080  36.177   5.970
18163SOL     OW56495   8.703   2.321   5.031
18163SOL    HW156496  -2.325  13.289  -5.945
18163SOL    HW256497   8.644   2.382   5.075
18164SOL     OW56498  12.217   1.650   3.721
18164SOL    HW156499  12.207   1.555   3.714
18164SOL    HW256500 -20.985  23.760   3.755
18165SOL     OW56501   2.344  10.657   8.076
18165SOL    HW156502  24.513  10.643   8.105
18165SOL    HW256503   2.312 -11.351  30.211
18166SOL     OW56504   0.745   5.166   5.891
18166SOL    HW156505   0.683  -5.946   5.893
18166SOL    HW256506   0.765   5.177   5.798
18167SOL     OW56507   5.314   9.143   3.850
18167SOL    HW156508   5.348   9.108  -7.272
18167SOL    HW256509   5.382   9.203   3.880
18168SOL     OW56510   4.502   0.756   8.851
18168SOL    HW156511   4.427   0.705   8.882
18168SOL    HW256512  15.574   0.708   8.775
18169SOL     OW56513   6.453   6.600   3.153
18169SOL    HW156514   6.361  50.782   3.160
18169SOL    HW256515   6.486   6.600   3.243
18170SOL     OW56516   7.361   5.229  10.809
18170SOL    HW156517  -3.747  16.292  10.746
18170SOL    HW256518   7.433   5.289  10.790
18171SOL     OW56519   5.170  -0.155   8.161
18171SOL    HW156520   5.221  21.848  30.271
18171SOL    HW256521   5.104  -0.192   8.104
18172SOL     OW56522   6.943   7.668   9.320
18172SOL    HW156523   6.885   7.723   9.266
18172SOL    HW256524  -4.156   7.609  31.445
18173SOL     OW56525   1.627   4.007  -1.334
18173SOL    HW156526   1.722   4.016  20.742
18173SOL    HW256527   1.595   4.096   9.725
18174SOL     OW56528   1.295   4.889   5.143
18174SOL    HW156529  12.427  -6.132   5.123
18174SOL    HW256530  -9.778   4.971   5.180
18175SOL     OW56531   1.385   4.615   4.716
18175SOL    HW156532  -9.636   4.610   4.622
18175SOL    HW256533   1.315   4.680   4.723
18176SOL     OW56534  10.014   9.695   2.394
18176SOL    HW156535  10.108   9.708   2.406
18176SOL    HW256536  10.000  31.790   2.300
18177SOL     OW56537   7.629   7.887   9.258
18177SOL    HW156538   7.615   7.982   9.261
18177SOL    HW256539  -3.484   7.851   9.307
18178SOL     OW56540   1.076   3.509   8.951
18178SOL    HW156541   1.095   3.472   9.037
18178SOL    HW256542  12.126   3.435 -13.189
18179SOL     OW56543   1.833   0.116   4.613
18179SOL    HW156544   1.918 -10.890 -17.495
18179SOL    HW256545   1.837  22.200   4.708
18180SOL     OW56546   3.387   9.335   8.076
18180SOL    HW156547  14.502   9.389   8.100
18180SOL    HW256548  14.457   9.245   8.086
18181SOL     OW56549   3.443   0.005   8.026
18181SOL    HW156550  25.510  -0.057  18.993
18181SOL    HW256551  14.405  -0.008   8.081
18182SOL     OW56552   6.713  10.703   5.303
18182SOL    HW156553   6.691  10.772  16.280
18182SOL    HW256554   6.629  10.662  16.364
18183SOL     OW56555   0.100  11.071   8.623
18183SOL    HW156556   0.073  11.148   8.574
18183SOL    HW256557   0.055  -0.042   8.581
18184SOL     OW56558   6.271   8.639   8.599
18184SOL    HW156559  39.416   8.718 -13.432
18184SOL    HW256560   6.177   8.632   8.616
18185SOL     OW56561   1.424   6.068   2.815
18185SOL    HW156562  12.387   6.012  13.862
18185SOL    HW256563   1.429   6.113  13.939
18186SOL     OW56564   0.898  10.138   8.907
18186SOL    HW156565   0.843  10.217  -2.134
18186SOL    HW256566   0.891  10.105  -2.043
18187SOL     OW56567   6.695   1.658   5.731
18187SOL    HW156568   6.618   1.683   5.782
18187SOL    HW256569   6.669   1.671  -5.400
18188SOL     OW56570   5.889   1.764  10.184
18188SOL    HW156571   5.873   1.821  10.259
18188SOL    HW256572   5.977   1.728 -11.880
18189SOL     OW56573   8.862   5.452   3.266
18189SOL    HW156574   8.923 -16.687   3.223
18189SOL    HW256575   8.775 -16.666  25.330
18190SOL     OW56576   5.206   2.998   5.177
18190SOL    HW156577   5.300 -19.073   5.194
18190SOL    HW256578  -5.876   3.019   5.260
18191SOL     OW56579   5.533   3.353  -1.678
18191SOL    HW156580   5.523   3.291  -1.750
18191SOL    HW256581   5.625   3.378  42.478
18192SOL     OW56582   1.296   3.149   2.390
18192SOL    HW156583  -9.827   3.191  24.487
18192SOL    HW256584   1.362   3.212  13.461
18193SOL     OW56585   0.731   6.089   2.885
18193SOL    HW156586   0.692   6.134  13.999
18193SOL    HW256587   0.660   6.077  13.863
18194SOL     OW56588   6.578   3.948   8.605
18194SOL    HW156589   6.583 -18.221  -2.402
18194SOL    HW256590  17.571   3.996   8.673
18195SOL     OW56591   7.367   9.103   1.337
18195SOL    HW156592   7.417   9.122  12.456
18195SOL    HW256593   7.425   9.045   1.286
18196SOL     OW56594   6.701   7.072   2.438
18196SOL    HW156595   6.721   7.140   2.374
18196SOL    HW256596   6.747   7.099   2.517
18197SOL     OW56597  10.245  10.963  -0.433
18197SOL    HW156598  21.320  10.955  -0.522
18197SOL    HW256599  10.187  10.888  32.695
18198SOL     OW56600  10.741   1.909  -2.145
18198SOL    HW156601  -0.351   1.939  41.938
18198SOL    HW256602 -22.329   1.987  -2.118
18199SOL     OW56603   8.397   0.977   6.391
18199SOL    HW156604   8.404  -9.971  17.459
18199SOL    HW256605   8.486   0.951   6.370
18200SOL     OW56606   6.860   3.916   6.730
18200SOL    HW156607  17.911  15.038  -4.263
18200SOL    HW256608   6.945  14.912   6.737
18201SOL     OW56609   2.549   6.280   4.103
18201SOL    HW156610   2.583  17.350   4.019
18201SOL    HW256611   2.612  28.392   4.167
18202SOL     OW56612   9.126   6.177   0.456
18202SOL    HW156613   9.173   6.105  11.538
18202SOL    HW256614   9.100   6.142  11.410
18203SOL     OW56615   6.960   9.771   3.163
18203SOL    HW156616   6.968   9.690   3.214
18203SOL    HW256617   6.955   9.840  -7.810
18204SOL     OW56618   2.271   0.461   8.530
18204SOL    HW156619   2.240   0.462  -2.419
18204SOL    HW256620  24.437   0.500   8.534
18205SOL     OW56621   8.876   2.007   0.492
18205SOL    HW156622   8.865  13.135   0.527
18205SOL    HW256623   8.854  12.989   0.565
18206SOL     OW56624   5.921   8.946   0.636
18206SOL    HW156625   5.865   9.023   0.648
18206SOL    HW256626   6.010   8.981   0.634
18207SOL     OW56627   9.224   9.255  12.099
18207SOL    HW156628 -23.890   9.168 -20.979
18207SOL    HW256629 -34.970   9.239   0.972
18208SOL     OW56630   4.084   1.074   0.325
18208SOL    HW156631   4.014   1.108  11.310
18208SOL    HW256632   4.116   1.150   0.374
18209SOL     OW56633   1.506   9.321  -0.901
18209SOL    HW156634  -9.611   9.305  10.086
18209SOL    HW256635   1.481 -23.727  10.198
18210SOL     OW56636   5.027   6.054  11.862
18210SOL    HW156637  16.045  28.221  11.832
18210SOL    HW256638  16.162   6.049 -10.222
18211SOL     OW56639  10.426   8.901   2.132
18211SOL    HW156640  10.348  -2.106   2.086
18211SOL    HW256641  21.471  -2.085   2.211
18212SOL     OW56642   8.912   8.612   9.354
18212SOL    HW156643  20.003  41.807  20.368
18212SOL    HW256644   8.862   8.590   9.276
18213SOL     OW56645   3.156   6.405   7.820
18213SOL    HW156646  14.232   6.317   7.819
18213SOL    HW256647   3.181   6.442   7.735
18214SOL     OW56648  10.231   9.983   6.575
18214SOL    HW156649  10.316  -1.056  -4.421
18214SOL    HW256650  10.169  32.092   6.642
18215SOL     OW56651   8.306   8.896   6.170
18215SOL    HW156652   8.243   8.923   6.103
18215SOL    HW256653   8.356   8.826   6.129
18216SOL     OW56654   8.662   4.275   1.332
18216SOL    HW156655   8.574  15.301   1.365
18216SOL    HW256656   8.659   4.244   1.242
18217SOL     OW56657  10.728   2.323   9.175
18217SOL    HW156658  21.695   2.310  20.276
18217SOL    HW256659  -0.292   2.235   9.142
18218SOL     OW56660   3.308   2.256   9.066
18218SOL    HW156661   3.226  -8.749   9.032
18218SOL    HW256662   3.375 -19.766   9.029
18219SOL     OW56663   8.243   5.920   3.055
18219SOL    HW156664   8.270   5.922   2.963
18219SOL    HW256665  19.192  16.930   3.053
18220SOL     OW56666   0.473   4.441   6.466
18220SOL    HW156667  33.567   4.532   6.449
18220SOL    HW256668   0.390   4.397   6.487
18221SOL     OW56669   1.861   4.757   7.048
18221SOL    HW156670   1.784  26.886   7.020
18221SOL    HW256671   1.884   4.794   7.133
18222SOL     OW56672  10.090  10.748  10.714
18222SOL    HW156673  -1.034 -11.341  10.759
18222SOL    HW256674  10.084  -0.353  10.640
18223SOL     OW56675   7.335   5.002   9.840
18223SOL    HW156676   7.333   4.919   9.889
18223SOL    HW256677   7.352 -17.103   9.749
18224SOL     OW56678   1.862   5.651   2.632
18224SOL    HW156679  12.856 -16.400   2.552
18224SOL    HW256680   1.826 -27.555  13.690
18225SOL     OW56681   8.381   4.518   6.452
18225SOL    HW156682   8.466   4.475   6.449
18225SOL    HW256683   8.319  26.528   6.429
18226SOL     OW56684   7.140   7.297   8.941
18226SOL    HW156685   7.088   7.293  -2.018
18226SOL    HW256686   7.076  18.326   8.871
18227SOL     OW56687  10.883   9.048   0.721
18227SOL    HW156688 -11.265 -13.064   0.778
18227SOL    HW256689  10.838   9.081 -10.396
18228SOL     OW56690   2.079   5.808   8.522
18228SOL    HW156691  46.146   5.802   8.494
18228SOL    HW256692   2.075   5.795   8.617
18229SOL     OW56693  10.301   7.309   8.599
18229SOL    HW156694  10.301  29.295   8.577
18229SOL    HW256695  10.210   7.327   8.625
18230SOL     OW56696   3.870   0.704   7.927
18230SOL    HW156697   3.833  22.737  40.971
18230SOL    HW256698   3.846   0.796  18.953
18231SOL     OW56699   4.603   8.574  10.834
18231SOL    HW156700   4.547   8.616  10.899
18231SOL    HW256701   4.691   8.578  -0.168
18232SOL     OW56702  -1.360   2.597   4.720
18232SOL    HW156703  42.824   2.534  15.826
18232SOL    HW256704  -1.445   2.566   4.689
18233SOL     OW56705   2.891   0.569   3.169
18233SOL    HW156706   2.855  11.534   3.121
18233SOL    HW256707  -8.217   0.592   3.231
18234SOL     OW56708   4.331   2.813   7.922
18234SOL    HW156709  15.378   2.794  -3.024
18234SOL    HW256710  -6.693  13.769  18.918
18235SOL     OW56711   6.648   2.699   6.705
18235SOL    HW156712   6.591   2.776 -15.375
18235SOL    HW256713   6.730   2.731 -26.375
18236SOL     OW56714   5.798   2.855   9.168
18236SOL    HW156715   5.812   2.923 -24.017
18236SOL    HW256716   5.707   2.867  -1.844
18237SOL     OW56717  13.368   5.272   3.929
18237SOL    HW156718  -8.658   5.349   3.911
18237SOL    HW256719  -8.801   5.304 -18.151
18238SOL     OW56720   2.504   8.657   5.274
18238SOL    HW156721   2.597   8.649   5.251
18238SOL    HW256722   2.488   8.583   5.333
18239SOL     OW56723   5.958   0.829   2.385
18239SOL    HW156724  -5.117   0.764  -8.716
18239SOL    HW256725   5.989 -10.140  -8.711
18240SOL     OW56726   3.955   7.878  -0.657
18240SOL    HW156727  -7.120  -3.161 -11.607
18240SOL    HW256728   4.031   7.937  32.466
18241SOL     OW56729   9.017   7.993   8.702
18241SOL    HW156730   9.062   8.070   8.668
18241SOL    HW256731  20.097  18.959   8.656
18242SOL     OW56732   1.163   7.548   2.405
18242SOL    HW156733   1.119   7.476  13.400
18242SOL    HW256734   1.212   7.593  13.376
18243SOL     OW56735  10.215   3.737   0.709
18243SOL    HW156736  10.189   3.799  11.680
18243SOL    HW256737  10.310   3.744   0.713
18244SOL     OW56738   8.963   5.417  10.915
18244SOL    HW156739   8.886   5.447  10.865
18244SOL    HW256740   8.928   5.356 -22.139
18245SOL     OW56741   2.989   5.088   5.749
18245SOL    HW156742 -19.087   5.099   5.844
18245SOL    HW256743  -7.973   5.036   5.729
18246SOL     OW56744   5.888   2.194   4.743
18246SOL    HW156745   5.865   2.128   4.677
18246SOL    HW256746   5.927   2.145   4.814
18247SOL     OW56747   4.605   3.310   5.069
18247SOL    HW156748  -6.470   3.310   4.980
18247SOL    HW256749   4.548   3.250   5.117
18248SOL     OW56750   5.690   6.852   6.255
18248SOL    HW156751  27.802   6.931   6.212
18248SOL    HW256752   5.598  39.988   6.271
18249SOL     OW56753   8.588   5.404   3.458
18249SOL    HW156754   8.556   5.493   3.441
18249SOL    HW256755  -2.440   5.366   3.371
18250SOL     OW56756   9.671   7.973   9.535
18250SOL    HW156757  -1.460   7.952  20.556
18250SOL    HW256758  42.840  18.950 -12.596
18251SOL     OW56759   1.265   9.813   2.789
18251SOL    HW156760  12.231  20.793 -41.354
18251SOL    HW256761  -9.737   9.784   2.706
18252SOL     OW56762  -0.474   4.737   8.286
18252SOL    HW156763  -0.405  -6.352  -2.710
18252SOL    HW256764  10.593   4.742  -2.845
18253SOL     OW56765   3.172  11.844   6.372
18253SOL    HW156766  -7.920 -10.211   6.449
18253SOL    HW256767  -7.931   0.771  -4.731
18254SOL     OW56768  10.828   3.798  -1.089
18254SOL    HW156769  10.802   3.707  21.007
18254SOL    HW256770  10.922  14.840  -1.070
18255SOL     OW56771   1.202   0.607   2.187
18255SOL    HW156772   1.121   0.643  24.301
18255SOL    HW256773   1.205   0.517  24.299
18256SOL     OW56774   7.788   3.889   8.072
18256SOL    HW156775  29.944   3.834   8.087
18256SOL    HW256776   7.822  15.017  -2.973
18257SOL     OW56777  10.838   2.970   9.417
18257SOL    HW156778  10.826   2.889   9.368
18257SOL    HW256779  10.774  25.045   9.488
18258SOL     OW56780   1.385   8.467   2.569
18258SOL    HW156781   1.466   8.490   2.523
18258SOL    HW256782   1.413  30.537  13.700
18259SOL     OW56783   5.623   3.330   6.697
18259SOL    HW156784 -16.516   3.257  -4.356
18259SOL    HW256785   5.693   3.294 -15.327
18260SOL     OW56786   4.191   8.547  -0.091
18260SOL    HW156787   4.182  30.611  10.854
18260SOL    HW256788   4.266   8.606  10.956
18261SOL     OW56789   2.055   2.181   9.040
18261SOL    HW156790   2.064   2.217   9.128
18261SOL    HW256791  24.053  13.259   9.007
18262SOL     OW56792   6.361   7.542   5.706
18262SOL    HW156793   6.308  18.594   5.785
18262SOL    HW256794   6.297   7.537   5.635
18263SOL     OW56795   7.744   6.208   9.580
18263SOL    HW156796  29.783  28.206 -12.468
18263SOL    HW256797   7.820  28.300 -12.442
18264SOL     OW56798   7.449   9.885   3.816
18264SOL    HW156799   7.489   9.972   3.814
18264SOL    HW256800   7.373   9.893   3.758
18265SOL     OW56801   2.837   2.995   3.538
18265SOL    HW156802   2.787   2.917  14.553
18265SOL    HW256803   2.869   2.976  14.665
18266SOL     OW56804   1.786   7.428   6.634
18266SOL    HW156805  23.949   7.471   6.655
18266SOL    HW256806   1.720   7.483   6.677
18267SOL     OW56807   0.727   2.365   9.662
18267SOL    HW156808   0.680   2.367  20.619
18267SOL    HW256809   0.811   2.407   9.643
18268SOL     OW56810   8.551  10.553   4.878
18268SOL    HW156811   8.572  10.464   4.906
18268SOL    HW256812   8.629  10.604   4.901
18269SOL     OW56813   3.412   1.346   6.546
18269SOL    HW156814  -7.600   1.254   6.545
18269SOL    HW256815   3.342   1.349  -4.428
18270SOL     OW56816   6.462   6.819   2.682
18270SOL    HW156817   6.475   6.899  24.711
18270SOL    HW256818   6.410   6.846   2.758
18271SOL     OW56819  10.850   5.543   8.179
18271SOL    HW156820 -11.265  27.542   8.140
18271SOL    HW256821  10.828   5.612  -2.924
18272SOL     OW56822   6.511   4.064  10.474
18272SOL    HW156823   6.585   4.051  10.533
18272SOL    HW256824  17.561   4.153  10.441
18273SOL     OW56825   9.068  10.221   8.297
18273SOL    HW156826   9.028  10.134   8.293
18273SOL    HW256827   9.021  10.273   8.232
18274SOL     OW56828   5.155   2.546   3.740
18274SOL    HW156829   5.081   2.598   3.708
18274SOL    HW256830  16.156   2.459  -7.283
18275SOL     OW56831   7.031  -0.252   1.851
18275SOL    HW156832   6.981  10.731   1.910
18275SOL    HW256833   7.072  10.728   1.789
18276SOL     OW56834   6.992   9.920  10.264
18276SOL    HW156835  18.035   9.850  21.238
18276SOL    HW256836  18.003   9.997  10.216
18277SOL     OW56837   3.825   3.604  11.716
18277SOL    HW156838   3.918   3.615 -10.342
18277SOL    HW256839 -18.263   3.645  11.630
18278SOL     OW56840   9.299   9.849  10.072
18278SOL    HW156841   9.370  -1.175  10.009
18278SOL    HW256842   9.223   9.829  10.017
18279SOL     OW56843   2.464  10.091  10.870
18279SOL    HW156844   2.423 -12.064  10.912
18279SOL    HW256845  13.586  10.102  10.916
18280SOL     OW56846   4.495   8.933   1.835
18280SOL    HW156847   4.518   9.025   1.849
18280SOL    HW256848   4.517   8.891  12.958
18281SOL     OW56849   6.447   8.471   5.872
18281SOL    HW156850 -26.738  30.502 -16.256
18281SOL    HW256851   6.528  -2.581   5.823
18282SOL     OW56852   3.959   3.422   3.029
18282SOL    HW156853   4.002   3.370   3.097
18282SOL    HW256854  15.053   3.500  14.060
18283SOL     OW56855   2.935   2.572   2.414
18283SOL    HW156856 -19.130 -19.422   2.454
18283SOL    HW256857   2.985   2.575   2.333
18284SOL     OW56858   3.572   7.374   2.653
18284SOL    HW156859   3.496   7.425   2.626
18284SOL    HW256860   3.567   7.294   2.601
18285SOL     OW56861   8.405   3.522  -0.890
18285SOL    HW156862   8.356   3.598  -0.922
18285SOL    HW256863  30.500   3.542  21.281
18286SOL     OW56864  -0.819   7.878  10.008
18286SOL    HW156865  21.207   7.956   9.996
18286SOL    HW256866  10.293   7.888 -23.172
18287SOL     OW56867   4.152   8.129   8.856
18287SOL    HW156868   4.198  30.191   8.775
18287SOL    HW256869   4.173  19.094  19.952
18288SOL     OW56870   2.092   2.087   5.134
18288SOL    HW156871   2.089   2.058   5.225
18288SOL    HW256872   2.152   2.027   5.091
18289SOL     OW56873   8.664   2.017   7.844
18289SOL    HW156874   8.624  -8.953   7.895
18289SOL    HW256875   8.609   1.940   7.860
18290SOL     OW56876   7.178   7.440   6.781
18290SOL    HW156877  29.352   7.438  39.915
18290SOL    HW256878   7.144  -3.672   6.833
18291SOL     OW56879   5.989   5.350   1.519
18291SOL    HW156880 -27.201   5.382   1.574
18291SOL    HW256881   5.948   5.286   1.461
18292SOL     OW56882  10.129   6.135   8.151
18292SOL    HW156883  10.161   6.207   8.097
18292SOL    HW256884  10.137  17.207   8.241
18293SOL     OW56885   2.514   4.894   7.705
18293SOL    HW156886  24.558  27.010   7.786
18293SOL    HW256887 -19.618   4.815   7.691
18294SOL     OW56888  10.209   2.897   7.331
18294SOL    HW156889  10.215  13.887   7.413
18294SOL    HW256890  10.119  13.922   7.301
18295SOL     OW56891   2.685   6.523   2.449
18295SOL    HW156892   2.696   6.593   2.514
18295SOL    HW256893   2.733   6.449   2.484
18296SOL     OW56894   8.666   4.642  10.087
18296SOL    HW156895  -2.415 -17.517 -11.961
18296SOL    HW256896   8.741   4.612  -1.003
18297SOL     OW56897   2.874   3.337   4.922
18297SOL    HW156898   2.946  14.316  15.944
18297SOL    HW256899   2.900  14.421   5.003
18298SOL     OW56900   2.353   8.065   3.297
18298SOL    HW156901   2.320  19.022   3.333
18298SOL    HW256902   2.359  41.242  36.491
18299SOL     OW56903  -0.341   0.702   1.381
18299SOL    HW156904  10.641   0.627  45.528
18299SOL    HW256905  -0.323   0.732   1.292
18300SOL     OW56906   2.421   1.683   4.276
18300SOL    HW156907  24.537  12.811   4.268
18300SOL    HW256908   2.467   1.645  -6.689
18301SOL     OW56909   6.608   8.325   6.255
18301SOL    HW156910   6.623   8.257   6.321
18301SOL    HW256911  -4.516 -13.778  17.256
18302SOL     OW56912   9.965   3.462  -0.679
18302SOL    HW156913 -12.090   3.545  21.359
18302SOL    HW256914   9.966   3.399  -0.751
18303SOL     OW56915   2.834   0.060   2.549
18303SOL    HW156916   2.896   0.028  35.733
18303SOL    HW256917  -8.278  -0.002   2.552
18304SOL     OW56918   9.823   6.789   0.089
18304SOL    HW156919  -1.263   6.873   0.092
18304SOL    HW256920   9.790  28.820   0.164
18305SOL     OW56921   8.822   5.736   2.847
18305SOL    HW156922  19.918   5.663  -8.166
18305SOL    HW256923   8.873   5.783   2.781
18306SOL     OW56924   6.640   5.333   4.589
18306SOL    HW156925   6.638  60.479   4.670
18306SOL    HW256926   6.646   5.268   4.519
18307SOL     OW56927   9.456  11.401   6.319
18307SOL    HW156928   9.495   0.401   6.242
18307SOL    HW256929   9.375 -10.718  17.327
18308SOL     OW56930   9.738  -0.163   9.542
18308SOL    HW156931   9.737  10.923   9.626
18308SOL    HW256932   9.667  -0.122   9.492
18309SOL     OW56933   0.805  12.207   8.861
18309SOL    HW156934   0.887  12.163   8.885
18309SOL    HW256935   0.810  -9.864  19.805
18310SOL     OW56936   3.788  10.450   5.724
18310SOL    HW156937   3.813  10.428   5.814
18310SOL    HW256938   3.754  10.368   5.689
18311SOL     OW56939   2.368   8.351   9.319
18311SOL    HW156940   2.284   8.315   9.348
18311SOL    HW256941  -8.638   8.398   9.395
18312SOL     OW56942   3.096   6.560   7.027
18312SOL    HW156943   3.169   6.600   7.074
18312SOL    HW256944  -7.980 -26.489   6.973
18313SOL     OW56945   0.767   0.544   7.234
18313SOL    HW156946   0.846   0.548   7.180
18313SOL    HW256947   0.723   0.627   7.218
18314SOL     OW56948   9.236   1.854   7.020
18314SOL    HW156949   9.308   1.805   7.058
18314SOL    HW256950  20.317   1.924  51.128
18315SOL     OW56951   4.852   4.404   0.676
18315SOL    HW156952   4.850   4.494   0.646
18315SOL    HW256953   4.939   4.393   0.714
18316SOL     OW56954   7.382   3.891   8.659
18316SOL    HW156955   7.296   3.890   8.618
18316SOL    HW256956  18.407  -7.105  -2.296
18317SOL     OW56957   4.485   6.031   8.555
18317SOL    HW156958   4.419   5.969   8.585
18317SOL    HW256959   4.435  17.146  -2.515
18318SOL     OW56960   3.143   8.900   8.262
18318SOL    HW156961   3.062   8.855   8.284
18318SOL    HW256962   3.180   8.848   8.190
18319SOL     OW56963   3.585   7.319   6.829
18319SOL    HW156964   3.540  40.354  -4.222
18319SOL    HW256965   3.624   7.314   6.916
18320SOL     OW56966   8.925   8.205   5.056
18320SOL    HW156967   8.905  30.247   4.970
18320SOL    HW256968   8.870   8.155   5.116
18321SOL     OW56969   3.895   2.943   1.553
18321SOL    HW156970   3.822   2.887  23.658
18321SOL    HW256971 -29.264  -8.026   1.502
18322SOL     OW56972   3.465   2.426   8.942
18322SOL    HW156973  -7.516   2.399   8.871
18322SOL    HW256974   3.455   2.520  19.971
18323SOL     OW56975   4.117   5.955  11.029
18323SOL    HW156976  15.203   5.883  11.071
18323SOL    HW256977   4.185 -16.060  11.009
18324SOL     OW56978   6.730   2.808   3.146
18324SOL    HW156979  17.715  -8.204   3.073
18324SOL    HW256980 -26.438   2.736   3.187
18325SOL     OW56981  10.754   3.094   3.492
18325SOL    HW156982  10.772   3.180   3.456
18325SOL    HW256983  10.718   3.112  -7.460
18326SOL     OW56984   6.687  10.607   9.100
18326SOL    HW156985   6.706  -0.526   9.090
18326SOL    HW256986  28.789 -22.492   9.191
18327SOL     OW56987   0.844   0.989   5.228
18327SOL    HW156988 -10.106   0.964  16.247
18327SOL    HW256989   0.833   0.966 -27.799
18328SOL     OW56990   7.889   3.273   1.442
18328SOL    HW156991 -14.144   3.280   1.358
18328SOL    HW256992   7.809   3.226   1.421
18329SOL     OW56993   2.465   6.257   8.651
18329SOL    HW156994  -8.569   6.348   8.620
18329SOL    HW256995   2.372 -15.842  -2.389
18330SOL     OW56996  11.357   3.263   1.911
18330SOL    HW156997 -10.673   3.181   1.913
18330SOL    HW256998  11.360   3.291   1.819
18331SOL     OW56999   5.511   1.160   0.025
18331SOL    HW157000 -16.644   1.213   0.049
18331SOL    HW257001   5.485   1.070   0.042
18332SOL     OW57002   6.621   5.220   5.952
18332SOL    HW157003   6.677  16.330   5.985
18332SOL    HW257004  17.616   5.258   5.876
18333SOL     OW57005   2.782   1.298   5.616
18333SOL    HW157006  24.938   1.352  27.679
18333SOL    HW257007  24.857   1.288   5.711
18334SOL     OW57008   2.022   8.527   3.638
18334SOL    HW157009   1.935   8.561   3.659
18334SOL    HW257010   2.080   8.602   3.647
18335SOL     OW57011   8.449   1.834   9.054
18335SOL    HW157012   8.439  12.910   8.966
18335SOL    HW257013   8.467   1.741   9.040
18336SOL     OW57014   9.507   4.813   8.634
18336SOL    HW157015  20.628   4.773   8.664
18336SOL    HW257016   9.480   4.761  -2.481
18337SOL     OW57017  10.252   0.325   3.091
18337SOL    HW157018  21.375  11.319  14.143
18337SOL    HW257019  10.190   0.276   3.146
18338SOL     OW57020   9.178   0.040   1.327
18338SOL    HW157021  20.300   0.081   1.300
18338SOL    HW257022   9.123   0.114 -20.725
18339SOL     OW57023   4.398   3.444  10.460
18339SOL    HW157024   4.404  -7.515  10.409
18339SOL    HW257025   4.356   3.382  10.402
18340SOL     OW57026   8.469   9.520   1.966
18340SOL    HW157027   8.380 -12.525  12.995
18340SOL    HW257028   8.477   9.454   1.897
18341SOL     OW57029  -0.350   5.879   6.263
18341SOL    HW157030  -0.387   5.792   6.252
18341SOL    HW257031  10.779 -27.247   6.230
18342SOL     OW57032   2.283  10.264   3.729
18342SOL    HW157033   2.359  10.244   3.783
18342SOL    HW257034 -19.839  -0.702  25.852
18343SOL     OW57035   1.741   8.465   2.961
18343SOL    HW157036   1.730   8.511   3.044
18343SOL    HW257037   1.789   8.385   2.984
18344SOL     OW57038   7.771  10.293  -0.721
18344SOL    HW157039   7.865 -22.837  43.421
18344SOL    HW257040  18.792  10.236  10.392
18345SOL     OW57041   7.410   9.019   7.967
18345SOL    HW157042  18.456  -1.927   7.990
18345SOL    HW257043  29.563   8.978  19.052
18346SOL     OW57044   5.467   2.918   6.877
18346SOL    HW157045   5.495   2.951  -4.078
18346SOL    HW257046   5.547   2.911   6.826
18347SOL     OW57047  13.602   4.003   2.542
18347SOL    HW157048 -19.569   4.024   2.620
18347SOL    HW257049 -19.433  15.012   2.576
18348SOL     OW57050   5.376   6.530   1.640
18348SOL    HW157051  38.491   6.439   1.670
18348SOL    HW257052  16.505   6.558 -20.420
18349SOL     OW57053   6.741   0.972   6.492
18349SOL    HW157054   6.812   0.908  28.579
18349SOL    HW257055   6.778   1.041  17.477
18350SOL     OW57056   6.109  10.895  11.582
18350SOL    HW157057   6.018  10.908  22.593
18350SOL    HW257058   6.152  -0.185 -10.573
18351SOL     OW57059   9.003   1.612   8.786
18351SOL    HW157060   9.037  -9.412  19.737
18351SOL    HW257061   8.922   1.663  -2.250
18352SOL     OW57062   4.302   2.768   8.965
18352SOL    HW157063   4.278  13.740   8.902
18352SOL    HW257064   4.223  13.820   9.018
18353SOL     OW57065   8.417   7.096   9.850
18353SOL    HW157066   8.486  -3.886 -12.263
18353SOL    HW257067   8.424 -14.977   9.945
18354SOL     OW57068   7.682   6.113   4.119
18354SOL    HW157069   7.737  17.182   4.046
18354SOL    HW257070  18.657   6.183   4.130
18355SOL     OW57071   4.395   0.632   4.677
18355SOL    HW157072   4.362  22.639  15.664
18355SOL    HW257073 -50.765   0.693   4.614
18356SOL     OW57074   2.224   0.856   8.362
18356SOL    HW157075   2.155  11.930   8.419
18356SOL    HW257076  -8.741   0.916   8.376
18357SOL     OW57077   7.906   1.538   2.133
18357SOL    HW157078   7.976   1.602  13.155
18357SOL    HW257079   7.825   1.588  -8.916
18358SOL     OW57080   8.399   1.762   1.476
18358SOL    HW157081 -13.730   1.689   1.437
18358SOL    HW257082   8.395   1.831  12.449
18359SOL     OW57083   1.364   2.655   0.653
18359SOL    HW157084  -9.681   2.567  11.655
18359SOL    HW257085   1.351   2.642   0.747
18360SOL     OW57086   8.659   8.699   0.370
18360SOL    HW157087  19.691   8.709   0.465
18360SOL    HW257088  30.781   8.780   0.341
18361SOL     OW57089   2.984   7.905   5.666
18361SOL    HW157090  13.998   7.950  16.786
18361SOL    HW257091   2.992   7.975  -5.439
18362SOL     OW57092  10.740  10.416   6.339
18362SOL    HW157093  10.812  10.411  -4.638
18362SOL    HW257094  10.665  10.446   6.390
18363SOL     OW57095  11.040  -0.319  10.500
18363SOL    HW157096  -0.038  21.752  10.587
18363SOL    HW257097  11.008  21.684  10.451
18364SOL     OW57098   4.006  10.324   9.542
18364SOL    HW157099   3.934  -0.729   9.603
18364SOL    HW257100  15.024  10.406  20.537
18365SOL     OW57101  10.158  10.396   9.394
18365SOL    HW157102  10.212  10.460   9.347
18365SOL    HW257103  10.199  21.351   9.375
18366SOL     OW57104  10.134   9.260   6.691
18366SOL    HW157105  10.175   9.195   6.748
18366SOL    HW257106  10.146   9.343   6.737
18367SOL     OW57107  10.081   0.739   4.686
18367SOL    HW157108  -0.990 -10.243  15.796
18367SOL    HW257109  10.175   0.757   4.681
18368SOL     OW57110   3.025   4.397  10.450
18368SOL    HW157111   3.072   4.465  10.403
18368SOL    HW257112   3.088   4.325  10.459
18369SOL     OW57113   6.383   9.494   9.616
18369SOL    HW157114   6.444   9.508  31.768
18369SOL    HW257115  28.378   9.474   9.658
18370SOL     OW57116   9.675   4.549   9.610
18370SOL    HW157117  -1.381   4.479   9.546
18370SOL    HW257118   9.715   4.619   9.558
18371SOL     OW57119  10.943   4.414   6.794
18371SOL    HW157120  -0.126   4.338  28.923
18371SOL    HW257121  10.871   4.433   6.734
18372SOL     OW57122   1.226   8.846   7.436
18372SOL    HW157123   1.216   8.837   7.531
18372SOL    HW257124   1.285   8.775   7.412
18373SOL     OW57125   4.898   0.919   5.167
18373SOL    HW157126   4.964  22.942  -5.912
18373SOL    HW257127  15.897  12.004  -5.946
18374SOL     OW57128   5.364   7.697  10.314
18374SOL    HW157129   5.337   7.657  10.397
18374SOL    HW257130   5.453   7.664  10.300
18375SOL     OW57131   0.831   4.692  11.328
18375SOL    HW157132   0.845  15.693  11.415
18375SOL    HW257133  22.820 -17.355   0.291
18376SOL     OW57134   6.399   0.245   5.774
18376SOL    HW157135   6.312  11.267   5.738
18376SOL    HW257136   6.456   0.250   5.697
18377SOL     OW57137   4.887   4.501   2.519
18377SOL    HW157138  -6.124   4.523   2.430
18377SOL    HW257139   4.883   4.405   2.519
18378SOL     OW57140   8.403  10.371   3.884
18378SOL    HW157141   8.494  10.385   3.859
18378SOL    HW257142   8.355 -33.786 -18.278
18379SOL     OW57143   9.200   3.044   6.867
18379SOL    HW157144   9.192   3.132 -15.249
18379SOL    HW257145  20.191   2.988  -4.233
18380SOL     OW57146   7.007   2.163   6.990
18380SOL    HW157147   6.920   2.203   6.987
18380SOL    HW257148   7.020   2.127  17.942
18381SOL     OW57149   4.199  10.718   2.321
18381SOL    HW157150  -6.886  10.635   2.305
18381SOL    HW257151   4.141  10.784   2.282
18382SOL     OW57152   2.386   2.394   2.434
18382SOL    HW157153   2.448   2.461   2.408
18382SOL    HW257154  13.454  13.407  -8.518
18383SOL     OW57155   9.498  10.134   9.154
18383SOL    HW157156  20.483  10.213  -1.893
18383SOL    HW257157 -23.670  10.077   9.213
18384SOL     OW57158   8.860   7.531   0.754
18384SOL    HW157159   8.939   7.531  11.739
18384SOL    HW257160  -2.191   7.622  22.859
18385SOL     OW57161   8.594  10.074   9.027
18385SOL    HW157162   8.568 -12.029   8.938
18385SOL    HW257163   8.569   9.998   9.080
18386SOL     OW57164   5.336  11.923   0.623
18386SOL    HW157165   5.251 -10.191   0.649
18386SOL    HW257166   5.389  11.917   0.703
18387SOL     OW57167   4.483   0.233   8.074
18387SOL    HW157168  15.603   0.209   8.120
18387SOL    HW257169   4.431   0.153  19.113
18388SOL     OW57170  -2.642   2.884   9.234
18388SOL    HW157171  30.457   2.911   9.324
18388SOL    HW257172  19.366  24.903   9.211
18389SOL     OW57173   2.632   8.975  10.407
18389SOL    HW157174   2.575   8.912  10.364
18389SOL    HW257175   2.708   8.981  10.350
18390SOL     OW57176   1.994   0.460   0.163
18390SOL    HW157177   1.948   0.408   0.097
18390SOL    HW257178   1.925   0.509   0.208
18391SOL     OW57179  -2.185   4.918   4.106
18391SOL    HW157180   8.775  16.002  48.237
18391SOL    HW257181  30.979   4.896   4.025
18392SOL     OW57182   5.051   4.352   0.908
18392SOL    HW157183   5.083   4.301   0.983
18392SOL    HW257184   5.112   4.425   0.900
18393SOL     OW57185   3.657   6.364   6.071
18393SOL    HW157186   3.679   6.289  39.134
18393SOL    HW257187 -29.552   6.347  39.219
18394SOL     OW57188   5.562   9.628   0.816
18394SOL    HW157189   5.582   9.678   0.895
18394SOL    HW257190   5.508 -23.431   0.763
18395SOL     OW57191   9.035   2.388   9.232
18395SOL    HW157192   8.971  13.375   9.185
18395SOL    HW257193   9.095  13.365   9.271
18396SOL     OW57194  -0.639   4.094   6.160
18396SOL    HW157195 -11.586   4.116   6.164
18396SOL    HW257196  32.440   4.166   6.110
18397SOL     OW57197   5.980   3.262   4.978
18397SOL    HW157198  -5.102  -7.732 -17.028
18397SOL    HW257199   5.922   3.277   4.903
18398SOL     OW57200   8.032   6.495   4.490
18398SOL    HW157201  -3.031  17.448   4.523
18398SOL    HW257202  18.989  50.701  15.525
18399SOL     OW57203   8.833   1.055   5.024
18399SOL    HW157204   8.905   0.992  -6.007
18399SOL    HW257205   8.755   1.004   5.044
18400SOL     OW57206  10.318   2.715   6.918
18400SOL    HW157207  10.303  -8.261  18.027
18400SOL    HW257208  -0.798  24.803   6.860
18401SOL     OW57209   3.357  10.639   3.388
18401SOL    HW157210   3.344  10.608   3.298
18401SOL    HW257211   3.431 -22.529   3.421
18402SOL     OW57212   7.093   9.307   5.947
18402SOL    HW157213  18.162   9.237   6.005
18402SOL    HW257214  29.152   9.380   6.005
18403SOL     OW57215   5.352   6.674   2.139
18403SOL    HW157216   5.275   6.640   2.093
18403SOL    HW257217   5.408   6.597  13.192
18404SOL     OW57218   7.087   4.875   1.290
18404SOL    HW157219   7.164   4.911   1.245
18404SOL    HW257220   7.022   4.945   1.284
18405SOL     OW57221  -0.692   7.929   0.853
18405SOL    HW157222  21.454  -3.152 -10.241
18405SOL    HW257223  -0.745   7.857   0.887
18406SOL     OW57224   5.094   6.794   6.871
18406SOL    HW157225   5.129   6.707  17.890
18406SOL    HW257226   5.118   6.808   6.963
18407SOL     OW57227   6.717   8.525   3.704
18407SOL    HW157228   6.648   8.543   3.641
18407SOL    HW257229   6.740   8.433 -29.429
18408SOL     OW57230  10.605   3.801  10.155
18408SOL    HW157231  10.688  -7.192  10.169
18408SOL    HW257232  10.548  14.907  10.115
18409SOL     OW57233   1.963   4.089   5.860
18409SOL    HW157234   1.885   4.040  16.875
18409SOL    HW257235  24.020  26.208  16.984
18410SOL     OW57236   1.608   3.995   5.452
18410SOL    HW157237   1.699   3.982  -5.617
18410SOL    HW257238   1.558   4.002   5.371
18411SOL     OW57239   5.985   0.489   3.807
18411SOL    HW157240   5.947   0.426  -7.171
18411SOL    HW257241  -5.015   0.434   3.739
18412SOL     OW57242   2.313   8.160   1.458
18412SOL    HW157243   2.408  19.210   1.454
18412SOL    HW257244 -19.785  -2.893  -9.489
18413SOL     OW57245   2.174   2.256   1.601
18413SOL    HW157246   2.207   2.210   1.524
18413SOL    HW257247  24.161   2.272  12.622
18414SOL     OW57248   9.198   0.180  11.084
18414SOL    HW157249  20.309  11.234 -11.058
18414SOL    HW257250   9.161   0.267   0.058
18415SOL     OW57251   9.912   5.218   2.498
18415SOL    HW157252   9.969   5.230   2.573
18415SOL    HW257253   9.886  49.465   2.472
18416SOL     OW57254   1.000  10.018  12.206
18416SOL    HW157255   0.976   9.937  12.252
18416SOL    HW257256   0.918  -0.991  -9.911
18417SOL     OW57257   1.240   0.757   8.774
18417SOL    HW157258   1.237  11.717   8.828
18417SOL    HW257259  23.412   0.778 -13.313
18418SOL     OW57260   9.981   1.344   3.560
18418SOL    HW157261  10.036   1.295  14.538
18418SOL    HW257262   9.949   1.279   3.621
18419SOL     OW57263   5.403   4.297   8.551
18419SOL    HW157264  16.494   4.346  -2.552
18419SOL    HW257265   5.327   4.352   8.569
18420SOL     OW57266   0.475   6.946  10.623
18420SOL    HW157267   0.555  17.998 -11.507
18420SOL    HW257268   0.501   6.885  -0.347
18421SOL     OW57269   2.554  10.179  -1.470
18421SOL    HW157270   2.624  10.241   9.587
18421SOL    HW257271   2.595  -0.929  20.556
18422SOL     OW57272   2.627   9.086   4.065
18422SOL    HW157273   2.610   9.148   4.136
18422SOL    HW257274   2.699   9.126   4.015
18423SOL     OW57275  10.966   7.336   9.637
18423SOL    HW157276  -0.124   7.351   9.717
18423SOL    HW257277   0.009   7.298   9.668
18424SOL     OW57278  10.101   8.132   5.070
18424SOL    HW157279  10.141   8.055   5.027
18424SOL    HW257280  10.045   8.095   5.138
18425SOL     OW57281   7.062   0.967   6.643
18425SOL    HW157282   7.021   0.891   6.603
18425SOL    HW257283  -3.917   1.000  -4.464
18426SOL     OW57284   5.712   6.548  11.556
18426SOL    HW157285  16.757   6.614  11.487
18426SOL    HW257286   5.625   6.509   0.505
18427SOL     OW57287   6.400   4.124   8.425
18427SOL    HW157288   6.489   4.097 -13.678
18427SOL    HW257289  -4.682   4.043   8.453
18428SOL     OW57290   1.156   8.535   1.110
18428SOL    HW157291   1.113  -2.533   1.028
18428SOL    HW257292   1.119  19.517   1.177
18429SOL     OW57293   4.236   3.700   0.528
18429SOL    HW157294   4.324   3.662   0.537
18429SOL    HW257295   4.246   3.768   0.462
18430SOL     OW57296   9.957   3.850   7.519
18430SOL    HW157297   9.903   3.777   7.551
18430SOL    HW257298  20.954   3.928  -3.485
18431SOL     OW57299   3.760   2.084   7.439
18431SOL    HW157300   3.695   2.032   7.487
18431SOL    HW257301   3.819   2.117   7.507
18432SOL     OW57302   9.076   3.099   9.323
18432SOL    HW157303   9.070  -8.021   9.271
18432SOL    HW257304   9.010  58.286   9.392
18433SOL     OW57305   7.101   4.915   2.196
18433SOL    HW157306   7.028 -17.134  -8.790
18433SOL    HW257307   7.176   4.912   2.255
18434SOL     OW57308   9.671   0.093   2.059
18434SOL    HW157309  20.748   0.064  -8.897
18434SOL    HW257310  20.661  44.175   2.028
18435SOL     OW57311   6.152   2.739   1.029
18435SOL    HW157312   6.197   2.659  12.095
18435SOL    HW257313  -4.879  35.860   0.933
18436SOL     OW57314   8.550   8.131  10.781
18436SOL    HW157315 -13.555 -13.867  10.738
18436SOL    HW257316  19.511  19.142  10.827
18437SOL     OW57317   6.950   7.846   2.287
18437SOL    HW157318   6.992   7.859   2.372
18437SOL    HW257319   7.022   7.853   2.223
18438SOL     OW57320   2.704  -0.578   8.909
18438SOL    HW157321   2.656  10.398   8.961
18438SOL    HW257322   2.637  -0.525   8.866
18439SOL     OW57323   8.706   7.496   4.610
18439SOL    HW157324   8.660  -3.536   4.527
18439SOL    HW257325   8.781   7.440  15.630
18440SOL     OW57326   5.644   0.736   1.284
18440SOL    HW157327  27.785  22.888   1.290
18440SOL    HW257328 -16.512   0.773   1.241
18441SOL     OW57329   0.869   8.446   8.922
18441SOL    HW157330  11.826   8.437   8.969
18441SOL    HW257331   0.853  -2.525   8.858
18442SOL     OW57332   2.240  11.608  10.374
18442SOL    HW157333   2.241 -10.511  -0.753
18442SOL    HW257334   2.328  11.591  -0.632
18443SOL     OW57335  10.534   1.743  -0.294
18443SOL    HW157336 -11.540  12.765  32.731
18443SOL    HW257337  10.476   1.820  -0.288
18444SOL     OW57338   1.889   2.351   8.307
18444SOL    HW157339   1.854   2.439   8.293
18444SOL    HW257340  -9.075  13.405   8.364
18445SOL     OW57341   1.696  10.943   3.967
18445SOL    HW157342   1.716  10.883 -18.183
18445SOL    HW257343   1.629  10.898   4.018
18446SOL     OW57344   0.991   9.735  11.343
18446SOL    HW157345   1.042   9.815  11.335
18446SOL    HW257346   0.935 -23.370   0.380
18447SOL     OW57347   4.222   8.780   7.919
18447SOL    HW157348   4.192   8.716  -3.056
18447SOL    HW257349   4.212   8.735   7.835
18448SOL     OW57350   0.228   8.400   8.981
18448SOL    HW157351   0.223   8.319   8.930
18448SOL    HW257352   0.265   8.374   9.065
18449SOL     OW57353   1.756   5.165   7.526
18449SOL    HW157354   1.759   5.250   7.481
18449SOL    HW257355   1.668  16.200   7.562
18450SOL     OW57356   4.301   9.227   1.445
18450SOL    HW157357   4.234   9.180   1.395
18450SOL    HW257358   4.384   9.204   1.402
18451SOL     OW57359   3.299  10.246   4.467
18451SOL    HW157360   3.385  -0.753   4.451
18451SOL    HW257361  -7.793  -0.768   4.391
18452SOL     OW57362   7.266   8.220   5.531
18452SOL    HW157363   7.178   8.229   5.495
18452SOL    HW257364   7.256   8.239   5.624
18453SOL     OW57365   5.897   2.618   5.738
18453SOL    HW157366   5.896   2.548  38.791
18453SOL    HW257367   5.953  13.725  27.779
18454SOL     OW57368   0.063   0.770  10.198
18454SOL    HW157369  11.084   0.676  21.239
18454SOL    HW257370  -0.020   0.810 -22.896
18455SOL     OW57371   1.977   8.840   3.401
18455SOL    HW157372  13.053  -2.143   3.333
18455SOL    HW257373  24.098  -2.284  14.427
18456SOL     OW57374   1.876   0.780   5.213
18456SOL    HW157375   1.807  22.812  16.299
18456SOL    HW257376   1.830   0.845   5.161
18457SOL     OW57377   7.882   3.369  10.087
18457SOL    HW157378   7.931   3.445  10.117
18457SOL    HW257379 -14.214  14.358  10.167
18458SOL     OW57380  11.670   7.168  12.263
18458SOL    HW157381  11.636   7.082   1.200
18458SOL    HW257382 -21.362  -3.868 -20.896
18459SOL     OW57383   5.642   0.709   8.600
18459SOL    HW157384   5.713   0.722   8.662
18459SOL    HW257385   5.605   0.624   8.623
18460SOL     OW57386   8.292   6.202  10.068
18460SOL    HW157387   8.329   6.209  21.196
18460SOL    HW257388   8.197   6.206  10.082
18461SOL     OW57389  12.607  10.480   6.889
18461SOL    HW157390 -20.572  -0.613   6.940
18461SOL    HW257391   1.638  10.503   6.950
18462SOL     OW57392   8.182  10.125   7.638
18462SOL    HW157393  -2.897  10.182   7.572
18462SOL    HW257394  -2.927  -0.929   7.702
18463SOL     OW57395   1.879  -0.307   4.742
18463SOL    HW157396   1.865  -0.389   4.694
18463SOL    HW257397   1.793  10.754   4.777
18464SOL     OW57398   9.617   9.505   3.724
18464SOL    HW157399  -1.406   9.548   3.640
18464SOL    HW257400   9.571   9.571   3.776
18465SOL     OW57401   3.913   5.491   8.359
18465SOL    HW157402   3.985  38.659   8.319
18465SOL    HW257403   3.863   5.457   8.286
18466SOL     OW57404   5.143   4.198  10.785
18466SOL    HW157405   5.200   4.172  10.857
18466SOL    HW257406   5.056 -17.875  10.824
18467SOL     OW57407   0.689  -0.678   4.904
18467SOL    HW157408   0.770  32.432   4.953
18467SOL    HW257409   0.643 -11.645   4.945
18468SOL     OW57410  -0.226   6.447  11.128
18468SOL    HW157411  10.889   6.478   0.037
18468SOL    HW257412  -0.299  17.486  11.065
18469SOL     OW57413   2.907  11.582   6.308
18469SOL    HW157414   2.887   0.523   6.217
18469SOL    HW257415   2.852  11.657   6.329
18470SOL     OW57416   4.922   8.631   5.522
18470SOL    HW157417   4.867   8.668   5.592
18470SOL    HW257418   5.009  -2.417   5.562
18471SOL     OW57419  -1.261   6.532   6.824
18471SOL    HW157420  31.827  17.592   6.736
18471SOL    HW257421  -1.331   6.479  17.902
18472SOL     OW57422   1.354   8.044   6.364
18472SOL    HW157423 -20.638   8.017   6.333
18472SOL    HW257424   1.366 -14.022  17.497
18473SOL     OW57425   2.153   7.876   0.103
18473SOL    HW157426  24.259   7.944   0.165
18473SOL    HW257427   2.110  18.964  11.072
18474SOL     OW57428  11.764   3.484   3.710
18474SOL    HW157429 -10.301   3.389   3.704
18474SOL    HW257430  11.697   3.502   3.643
18475SOL     OW57431   5.765   1.978   2.747
18475SOL    HW157432   5.734 -20.144   2.667
18475SOL    HW257433   5.791   2.066   2.718
18476SOL     OW57434   0.606   8.552   3.047
18476SOL    HW157435   0.677  19.595   3.111
18476SOL    HW257436   0.584   8.459   3.040
18477SOL     OW57437   1.872   5.459   4.279
18477SOL    HW157438   1.883   5.370  15.285
18477SOL    HW257439 -20.182   5.515   4.205
18478SOL     OW57440   0.798   9.360   5.697
18478SOL    HW157441   0.882  20.375   5.660
18478SOL    HW257442   0.769   9.284  49.905
18479SOL     OW57443   8.332   8.900   5.767
18479SOL    HW157444 -13.686   8.974   5.776
18479SOL    HW257445 -24.769   8.845  38.961
18480SOL     OW57446   8.890   7.696  10.567
18480SOL    HW157447   8.838  18.715  10.644
18480SOL    HW257448  19.960   7.785  10.581
18481SOL     OW57449   1.437   0.010   1.413
18481SOL    HW157450   1.484   0.046  45.496
18481SOL    HW257451   1.441  44.073   1.402
18482SOL     OW57452   0.326   7.353   1.642
18482SOL    HW157453   0.258  18.347   1.592
18482SOL    HW257454   0.373  29.485  23.657
18483SOL     OW57455   3.289   5.268   4.445
18483SOL    HW157456   3.353   5.213  26.480
18483SOL    HW257457   3.208 -27.901   4.444
18484SOL     OW57458   4.388   8.047   3.340
18484SOL    HW157459   4.402   8.140 -18.722
18484SOL    HW257460 -28.702   8.035   3.249
18485SOL     OW57461   9.933   1.165   3.762
18485SOL    HW157462   9.945   1.082   3.807
18485SOL    HW257463   9.892   1.222   3.827
18486SOL     OW57464   1.537   9.060   4.652
18486SOL    HW157465   1.518 -12.945   4.709
18486SOL    HW257466   1.625  -1.962  26.698
18487SOL     OW57467   1.851   1.352   8.580
18487SOL    HW157468   1.766   1.382   8.546
18487SOL    HW257469  23.967   1.430   8.623
18488SOL     OW57470   2.975  -0.188   4.386
18488SOL    HW157471   2.896  21.919  15.472
18488SOL    HW257472   2.942  10.797   4.314
18489SOL     OW57473   1.032  11.297   3.489
18489SOL    HW157474  12.102   0.243   3.399
18489SOL    HW257475   1.069 -32.935  25.617
18490SOL     OW57476   8.351   6.450   3.453
18490SOL    HW157477  -2.721 -15.662   3.536
18490SOL    HW257478 -13.718   6.544 -18.613
18491SOL     OW57479   4.093  10.877   1.381
18491SOL    HW157480  15.048  10.921   1.369
18491SOL    HW257481   4.084  10.795  -9.706
18492SOL     OW57482   9.227   4.890   3.504
18492SOL    HW157483   9.287  15.856   3.489
18492SOL    HW257484   9.231  26.985   3.598
18493SOL     OW57485   0.427   4.244  10.117
18493SOL    HW157486  11.383  15.304  -0.966
18493SOL    HW257487   0.404  15.275  10.210
18494SOL     OW57488   3.113   0.693  -0.429
18494SOL    HW157489   3.100   0.640  -0.508
18494SOL    HW257490   3.075   0.639  10.680
18495SOL     OW57491   0.639   0.874   3.654
18495SOL    HW157492   0.600  11.997   3.629
18495SOL    HW257493   0.576   0.836  14.755
18496SOL     OW57494   3.740   6.266   8.924
18496SOL    HW157495   3.697   6.189  -2.154
18496SOL    HW257496  -7.341   6.276   9.010
18497SOL     OW57497   0.892   1.835   2.109
18497SOL    HW157498   0.965   1.886  24.225
18497SOL    HW257499  11.954   1.827   2.016
18498SOL     OW57500   3.789   5.603   5.291
18498SOL    HW157501   3.876   5.563  -5.753
18498SOL    HW257502   3.741   5.565  -5.823
18499SOL     OW57503   1.097   2.799  10.879
18499SOL    HW157504   1.175   2.789 -11.145
18499SOL    HW257505  12.075  -8.191 -33.225
18500SOL     OW57506   6.874   2.297   0.295
18500SOL    HW157507  -4.154   2.209 -21.747
18500SOL    HW257508   6.957   2.316  22.331
18501SOL     OW57509   2.149   1.070   9.525
18501SOL    HW157510  46.362  12.169   9.577
18501SOL    HW257511   2.060   1.099   9.541
18502SOL     OW57512  10.915   6.254   1.545
18502SOL    HW157513  10.979   6.310   1.588
18502SOL    HW257514 -22.237   6.307   1.472
18503SOL     OW57515   1.390   2.762  12.085
18503SOL    HW157516   1.441   2.741   1.124
18503SOL    HW257517   1.388   2.680   0.995
18504SOL     OW57518   6.807   3.239   3.519
18504SOL    HW157519   6.817   3.322  14.603
18504SOL    HW257520   6.715   3.238  14.531
18505SOL     OW57521   0.683   1.319  11.027
18505SOL    HW157522   0.643   1.405  11.019
18505SOL    HW257523   0.773   1.336  11.055
18506SOL     OW57524   5.727   8.600  10.952
18506SOL    HW157525  38.886   8.621  10.867
18506SOL    HW257526   5.785   8.638  11.017
18507SOL     OW57527   0.717   1.221   1.149
18507SOL    HW157528   0.629  12.282   1.181
18507SOL    HW257529   0.776   1.261   1.213
18508SOL     OW57530   2.521   8.719   2.207
18508SOL    HW157531   2.433 -13.326   2.191
18508SOL    HW257532   2.566   8.789  13.293
18509SOL     OW57533   3.653   7.401   1.596
18509SOL    HW157534   3.685  -3.707  -9.502
18509SOL    HW257535   3.562 -14.703  -9.425
18510SOL     OW57536   5.669   4.266  10.375
18510SOL    HW157537  -5.451  -6.722  21.422
18510SOL    HW257538  -5.382  15.234  10.437
18511SOL     OW57539   9.492   0.409   3.654
18511SOL    HW157540   9.526   0.350   3.721
18511SOL    HW257541   9.461   0.485   3.703
18512SOL     OW57542   5.983  10.494   5.009
18512SOL    HW157543  17.030  10.400  -6.049
18512SOL    HW257544   6.064  10.516   5.054
18513SOL     OW57545   3.579   0.746   4.630
18513SOL    HW157546   3.495  22.855   4.593
18513SOL    HW257547   3.641 -10.224  -6.431
18514SOL     OW57548   6.481   1.731   8.642
18514SOL    HW157549   6.390   1.761   8.633
18514SOL    HW257550  -4.558   1.645   8.601
18515SOL     OW57551  11.029   3.530   3.123
18515SOL    HW157552 -33.067   3.549   3.193
18515SOL    HW257553 -22.173  -7.527   3.168
18516SOL     OW57554  13.344   8.480  -0.104
18516SOL    HW157555  -8.732   8.563  10.983
18516SOL    HW257556  -8.826   8.451  -0.095
18517SOL     OW57557  10.458   6.673   5.012
18517SOL    HW157558  10.368   6.656  27.118
18517SOL    HW257559  10.450  -4.308   4.937
18518SOL     OW57560   3.398  10.367   2.472
18518SOL    HW157561   3.475  10.424   2.471
18518SOL    HW257562  14.470  10.282  -8.596
18519SOL     OW57563   7.523   6.664   0.440
18519SOL    HW157564  18.496   6.670   0.509
18519SOL    HW257565  29.634   6.574  11.485
18520SOL     OW57566   1.645  10.929   3.272
18520SOL    HW157567  -9.330  10.921  47.360
18520SOL    HW257568  12.606  10.962  36.346
18521SOL     OW57569  -0.372   2.974   7.792
18521SOL    HW157570  -0.290   2.990  18.878
18521SOL    HW257571  10.688  -8.050   7.700
18522SOL     OW57572   0.757   2.082   9.387
18522SOL    HW157573   0.756   2.157   9.328
18522SOL    HW257574   0.751   2.006   9.330
18523SOL     OW57575   2.324   4.419   7.584
18523SOL    HW157576   2.229   4.432   7.574
18523SOL    HW257577   2.348  26.443  18.549
18524SOL     OW57578   8.356   1.916   7.505
18524SOL    HW157579  19.442   1.949 -25.691
18524SOL    HW257580  30.419  34.942   7.485
18525SOL     OW57581   7.888   3.904   9.820
18525SOL    HW157582   7.855   3.825   9.778
18525SOL    HW257583  18.864   3.972   9.798
18526SOL     OW57584   6.207   2.848   0.758
18526SOL    HW157585 -15.787 -19.190   0.774
18526SOL    HW257586 -26.931   2.869   0.666
18527SOL     OW57587  11.065   3.099   4.601
18527SOL    HW157588  11.058   3.163   4.530
18527SOL    HW257589   0.107  -7.918  -6.394
18528SOL     OW57590   6.869   0.612   9.553
18528SOL    HW157591   6.937  11.679   9.614
18528SOL    HW257592   6.918   0.585   9.475
18529SOL     OW57593   9.175   1.886   6.119
18529SOL    HW157594  31.281  -9.067   6.086
18529SOL    HW257595  20.289   1.855   6.170
18530SOL     OW57596  10.135   1.807   9.197
18530SOL    HW157597  10.089  12.764   9.210
18530SOL    HW257598  10.188  12.832   9.118
18531SOL     OW57599   6.201   5.820   8.014
18531SOL    HW157600   6.196   5.749   7.950
18531SOL    HW257601   6.276  -5.167   7.987
18532SOL     OW57602   8.042   2.978   2.278
18532SOL    HW157603  19.094   3.059   2.328
18532SOL    HW257604   7.948   2.962   2.283
18533SOL     OW57605   5.694   9.054   1.689
18533SOL    HW157606  27.697   9.017   1.733
18533SOL    HW257607   5.715 -12.946   1.740
18534SOL     OW57608  -0.914   6.212  11.740
18534SOL    HW157609  10.191   6.142 -21.372
18534SOL    HW257610  10.088   6.218 -10.252
18535SOL     OW57611   3.712   5.251   9.481
18535SOL    HW157612  36.904   5.193   9.502
18535SOL    HW257613   3.649   5.237   9.551
18536SOL     OW57614   5.984   2.864   3.057
18536SOL    HW157615   5.926   2.825 -19.088
18536SOL    HW257616   5.959  24.901  14.179
18537SOL     OW57617   3.034   2.649  10.117
18537SOL    HW157618  14.042   2.600  10.041
18537SOL    HW257619   3.112   2.696  10.085
18538SOL     OW57620  11.481   2.753   4.745
18538SOL    HW157621   0.380  -8.216   4.724
18538SOL    HW257622  11.452 -19.358   4.830
18539SOL     OW57623   9.734   9.190   2.334
18539SOL    HW157624   9.648  -1.883   2.309
18539SOL    HW257625  20.782 -12.806   2.288
18540SOL     OW57626  10.886   0.427   5.936
18540SOL    HW157627  10.859   0.376  17.052
18540SOL    HW257628  10.810   0.424  16.917
18541SOL     OW57629   6.557   8.446   9.779
18541SOL    HW157630   6.489   8.513  20.809
18541SOL    HW257631   6.627  -2.565  -1.319
18542SOL     OW57632   0.430   9.506   4.660
18542SOL    HW157633   0.475   9.589   4.676
18542SOL    HW257634   0.342   9.531  -6.405
18543SOL     OW57635  -0.018   6.946  11.930
18543SOL    HW157636  -0.065  -4.156  11.875
18543SOL    HW257637  11.103   6.902 -32.206
18544SOL     OW57638   6.799   8.826  10.775
18544SOL    HW157639   6.767   8.855  10.690
18544SOL    HW257640 -15.223   8.897  10.805
18545SOL     OW57641   0.217   5.004   5.934
18545SOL    HW157642   0.235  -5.982   5.857
18545SOL    HW257643   0.170   4.928   5.900
18546SOL     OW57644  10.048   1.647   8.297
18546SOL    HW157645  10.116  34.832   8.289
18546SOL    HW257646  -0.957  12.611   8.248
18547SOL     OW57647   7.549   9.142   7.328
18547SOL    HW157648  18.503   9.160  29.368
18547SOL    HW257649  18.617  -1.979   7.288
18548SOL     OW57650   6.052   2.332   6.492
18548SOL    HW157651   6.096   2.405   6.448
18548SOL    HW257652   5.967   2.326  28.527
18549SOL     OW57653   1.791   2.559   9.017
18549SOL    HW157654  -9.219   2.478  31.052
18549SOL    HW257655   1.724   2.594  19.999
18550SOL     OW57656   1.589   5.954   5.680
18550SOL    HW157657   1.640   5.950   5.600
18550SOL    HW257658  12.694   5.956   5.750
18551SOL     OW57659   6.365  -0.531   3.264
18551SOL    HW157660   6.336  21.536   3.354
18551SOL    HW257661 -15.645  -0.466  14.309
18552SOL     OW57662   6.680   9.637  10.355
18552SOL    HW157663  -4.297   9.651  -0.613
18552SOL    HW257664  17.636   9.668  10.389
18553SOL     OW57665   9.916   0.768   4.087
18553SOL    HW157666 -12.123   0.681   4.078
18553SOL    HW257667 -23.161   0.805   4.164
18554SOL     OW57668   0.994  10.547   3.480
18554SOL    HW157669   1.033  10.489   3.415
18554SOL    HW257670   1.068  10.577  14.572
18555SOL     OW57671   2.490  10.288   0.137
18555SOL    HW157672   2.477  10.363   0.079
18555SOL    HW257673   2.402  10.252   0.150
18556SOL     OW57674   9.973   8.779   8.317
18556SOL    HW157675   9.900   8.794   8.377
18556SOL    HW257676  10.046   8.755  -2.666
18557SOL     OW57677   0.852  10.416   1.784
18557SOL    HW157678  11.943  10.461   1.717
18557SOL    HW257679   0.905  10.341  -9.230
18558SOL     OW57680   0.838  -0.202   4.102
18558SOL    HW157681 -10.215  -0.231  -7.027
18558SOL    HW257682   0.923  21.921 -17.979
18559SOL     OW57683   8.276   1.892   6.661
18559SOL    HW157684   8.242  -9.232  17.670
18559SOL    HW257685  19.281   1.902   6.749
18560SOL     OW57686   5.840   2.678   9.841
18560SOL    HW157687   5.893  -8.302   9.894
18560SOL    HW257688   5.903   2.636   9.783
18561SOL     OW57689   8.041   7.798   6.805
18561SOL    HW157690   8.002   7.794   6.893
18561SOL    HW257691   8.076   7.886  -4.241
18562SOL     OW57692   6.087   5.473  -0.478
18562SOL    HW157693  -4.982   5.469  -0.387
18562SOL    HW257694  -4.952  -5.657  21.572
18563SOL     OW57695   5.431   8.982   8.532
18563SOL    HW157696   5.525  -2.042   8.542
18563SOL    HW257697   5.409   8.927   8.607
18564SOL     OW57698   9.059   6.110   4.126
18564SOL    HW157699   9.092   6.109  15.255
18564SOL    HW257700   9.066  -4.838   4.099
18565SOL     OW57701  10.647  10.538   9.741
18565SOL    HW157702  -0.369  10.554  20.872
18565SOL    HW257703  10.658  10.623  20.738
18566SOL     OW57704   7.662   9.598   3.801
18566SOL    HW157705  29.777   9.543  25.810
18566SOL    HW257706   7.568   9.605  14.819
18567SOL     OW57707   3.057   0.779   1.953
18567SOL    HW157708   3.101   0.783   2.038
18567SOL    HW257709  36.113   0.707   1.962
18568SOL     OW57710  -1.915  -0.034   8.521
18568SOL    HW157711  31.273 -11.038   8.578
18568SOL    HW257712   9.062  22.006   8.582
18569SOL     OW57713  10.715   9.165  11.572
18569SOL    HW157714  10.727  20.297  11.595
18569SOL    HW257715  10.623  20.197   0.509
18570SOL     OW57716   2.193   6.453   3.831
18570SOL    HW157717   2.160   6.372  -7.169
18570SOL    HW257718   2.132   6.471   3.759
18571SOL     OW57719   5.574   2.852   9.308
18571SOL    HW157720   5.575   2.878   9.400
18571SOL    HW257721   5.571  35.875   9.310
18572SOL     OW57722   5.060   1.404   9.341
18572SOL    HW157723   5.123   1.418  -1.628
18572SOL    HW257724   5.048   1.491   9.303
18573SOL     OW57725   1.981   7.338  12.438
18573SOL    HW157726   1.886   7.350  12.437
18573SOL    HW257727   1.995  -3.773 -20.619
18574SOL     OW57728   3.568   9.993   3.289
18574SOL    HW157729   3.633   9.986   3.358
18574SOL    HW257730  14.601 -11.993   3.272
18575SOL     OW57731   9.975   1.312   9.434
18575SOL    HW157732   9.947  45.384 -34.692
18575SOL    HW257733  -0.969   1.306   9.429
18576SOL     OW57734   3.094  10.928  10.380
18576SOL    HW157735   3.169  10.904  -0.605
18576SOL    HW257736   3.044  10.990 -11.646
18577SOL     OW57737   1.630   8.639   9.797
18577SOL    HW157738   1.536   8.658  20.836
18577SOL    HW257739   1.653 -13.446   9.704
18578SOL     OW57740   6.802   6.852   9.790
18578SOL    HW157741  -4.275   6.891   9.869
18578SOL    HW257742   6.872   6.912   9.765
18579SOL     OW57743   4.661   8.285   3.110
18579SOL    HW157744   4.742  19.376   3.118
18579SOL    HW257745   4.604  19.358  25.259
18580SOL     OW57746   7.179   6.573   3.980
18580SOL    HW157747   7.240   6.509   3.944
18580SOL    HW257748   7.096   6.526  -7.053
18581SOL     OW57749  12.006   9.276   4.428
18581SOL    HW157750 -10.042  -1.813  15.545
18581SOL    HW257751  12.051   9.360   4.434
18582SOL     OW57752  10.238   6.800   7.633
18582SOL    HW157753  10.158   6.834 -14.484
18582SOL    HW257754  10.241   6.709   7.606
18583SOL     OW57755   2.086   3.696   1.065
18583SOL    HW157756   2.011   3.696   1.124
18583SOL    HW257757   2.049   3.710   0.978
18584SOL     OW57758   6.581  10.435   6.829
18584SOL    HW157759   6.581  10.355   6.777
18584SOL    HW257760   6.509  -0.552   6.792
18585SOL     OW57761   7.327   5.643   4.957
18585SOL    HW157762  -3.721  27.791   5.023
18585SOL    HW257763   7.408   5.663   4.911
18586SOL     OW57764   4.849   8.784   9.190
18586SOL    HW157765   4.915   8.747   9.248
18586SOL    HW257766  26.972  19.831   9.105
18587SOL     OW57767   6.620   7.852   9.288
18587SOL    HW157768   6.532   7.883  20.305
18587SOL    HW257769  50.792   7.776   9.232
18588SOL     OW57770   8.584   8.560   8.445
18588SOL    HW157771   8.672   8.527   8.426
18588SOL    HW257772  -2.502   8.486   8.484
18589SOL     OW57773   0.430  10.201   3.810
18589SOL    HW157774   0.496  10.181  -7.296
18589SOL    HW257775   0.404  10.116   3.845
18590SOL     OW57776   4.127   7.287  -0.988
18590SOL    HW157777 -29.062   7.287  43.236
18590SOL    HW257778  26.246   7.374  -0.979
18591SOL     OW57779   5.151  10.075   0.322
18591SOL    HW157780   5.071  10.085   0.373
18591SOL    HW257781   5.194   9.999   0.361
18592SOL     OW57782   9.105   6.584   2.696
18592SOL    HW157783   9.116   6.651 -19.450
18592SOL    HW257784   9.142   6.622  -8.264
18593SOL     OW57785   1.986   1.381   8.144
18593SOL    HW157786   1.969   1.454  -2.836
18593SOL    HW257787   1.945   1.407   8.061
18594SOL     OW57788   4.761   9.226   9.786
18594SOL    HW157789   4.681   9.201   9.833
18594SOL    HW257790   4.737  20.259  -1.346
18595SOL     OW57791   3.260   4.772   1.263
18595SOL    HW157792   3.186   4.776   1.323
18595SOL    HW257793  14.309   4.680   1.242
18596SOL     OW57794   9.497   3.586   0.957
18596SOL    HW157795   9.496   3.558   0.866
18596SOL    HW257796   9.417   3.550   0.994
18597SOL     OW57797   2.233   6.334   7.320
18597SOL    HW157798   2.207   6.244  -3.702
18597SOL    HW257799   2.298   6.328   7.250
18598SOL     OW57800   6.461   6.660  -0.300
18598SOL    HW157801   6.494   6.597  10.803
18598SOL    HW257802   6.535  39.794  -0.360
18599SOL     OW57803   3.076   4.926   7.152
18599SOL    HW157804   3.050   4.875   7.075
18599SOL    HW257805   3.067 -17.215   7.225
18600SOL     OW57806  10.866   7.965   0.951
18600SOL    HW157807  10.849   7.997   1.039
18600SOL    HW257808  10.957   7.936   0.953
18601SOL     OW57809  11.256   2.857   7.001
18601SOL    HW157810 -10.806   2.846   6.907
18601SOL    HW257811   0.180   2.772   7.029
18602SOL     OW57812   8.187   4.132   3.183
18602SOL    HW157813 -13.921   4.098  -7.773
18602SOL    HW257814   8.257   4.194  -7.835
18603SOL     OW57815  10.508   1.900   5.457
18603SOL    HW157816  10.475   1.877   5.544
18603SOL    HW257817  10.575   1.833  -5.601
18604SOL     OW57818   9.977   9.084   6.384
18604SOL    HW157819   9.933   9.108   6.302
18604SOL    HW257820  10.062  20.088  28.435
18605SOL     OW57821   0.868   2.007   3.928
18605SOL    HW157822   0.937   2.072  -7.099
18605SOL    HW257823   0.851   2.009   3.833
18606SOL     OW57824   7.121   8.042   9.423
18606SOL    HW157825   7.192   7.983   9.398
18606SOL    HW257826   7.074  19.035   9.493
18607SOL     OW57827   2.775   1.853   7.015
18607SOL    HW157828  -8.349  23.949  -4.065
18607SOL    HW257829  -8.285   1.814   7.100
18608SOL     OW57830  10.024   3.013   5.679
18608SOL    HW157831   9.961   2.970   5.622
18608SOL    HW257832  10.066   2.941  -5.313
18609SOL     OW57833   1.075   8.780   2.043
18609SOL    HW157834   1.159  19.850  -9.031
18609SOL    HW257835   1.018   8.776  13.006
18610SOL     OW57836   5.725   1.753   6.211
18610SOL    HW157837   5.724  45.829  50.417
18610SOL    HW257838   5.806  34.869   6.160
18611SOL     OW57839   3.247   6.556   5.548
18611SOL    HW157840   3.163   6.512  16.604
18611SOL    HW257841   3.303   6.527  27.699
18612SOL     OW57842   0.254   0.409   3.777
18612SOL    HW157843  11.328   0.325  25.828
18612SOL    HW257844   0.200  11.428  14.893
18613SOL     OW57845   6.086   5.806   1.049
18613SOL    HW157846   6.180   5.794   1.058
18613SOL    HW257847  17.113   5.901   1.051
18614SOL     OW57848  10.633   9.615   0.825
18614SOL    HW157849  -0.381   9.665   0.748
18614SOL    HW257850  10.716   9.586   0.863
18615SOL     OW57851  10.344   7.712   8.979
18615SOL    HW157852  21.350   7.784   9.032
18615SOL    HW257853  10.315   7.733   8.890
18616SOL     OW57854   1.067   5.348   6.086
18616SOL    HW157855   1.121   5.296   6.146
18616SOL    HW257856 -10.061   5.345  28.203
18617SOL     OW57857   4.353  12.520   4.947
18617SOL    HW157858   4.441   1.471   4.982
18617SOL    HW257859   4.359  -9.595   4.858
18618SOL     OW57860   1.528   6.911   3.661
18618SOL    HW157861  -9.500   6.914   3.566
18618SOL    HW257862  -9.518   7.003   3.688
18619SOL     OW57863   0.561   7.866   4.227
18619SOL    HW157864   0.566   7.953  26.267
18619SOL    HW257865   0.650   7.831  26.298
18620SOL     OW57866   6.955   1.170   8.227
18620SOL    HW157867   7.000   1.159   8.310
18620SOL    HW257868   6.966   1.087   8.182
18621SOL     OW57869   3.321   2.753   6.542
18621SOL    HW157870  14.336  13.783  17.489
18621SOL    HW257871   3.238   2.759   6.588
18622SOL     OW57872   1.530   1.274  11.371
18622SOL    HW157873   1.490   1.360  11.381
18622SOL    HW257874   1.494   1.222   0.403
18623SOL     OW57875   6.838   4.757   6.749
18623SOL    HW157876 -15.241   4.713  28.744
18623SOL    HW257877   6.748   4.748   6.781
18624SOL     OW57878   2.604   7.589   1.033
18624SOL    HW157879 -19.436   7.610   1.119
18624SOL    HW257880  -8.486   7.667   1.010
18625SOL     OW57881   2.606   9.704   8.248
18625SOL    HW157882  -8.374   9.733  30.397
18625SOL    HW257883   2.606   9.776  19.225
18626SOL     OW57884   3.525   1.281   6.953
18626SOL    HW157885   3.564  -9.838   6.915
18626SOL    HW257886   3.452  -9.738   6.895
18627SOL     OW57887   7.474   6.302   5.876
18627SOL    HW157888   7.450   6.393   5.862
18627SOL    HW257889   7.394   6.262   5.912
18628SOL     OW57890  11.896   3.743   8.918
18628SOL    HW157891  11.955   3.721  20.029
18628SOL    HW257892 -10.140 -29.408   8.839
18629SOL     OW57893   7.558   2.080   1.337
18629SOL    HW157894   7.541  13.029   1.364
18629SOL    HW257895   7.581  13.165   1.418
18630SOL     OW57896   8.857   6.468   7.377
18630SOL    HW157897  -2.159   6.377   7.355
18630SOL    HW257898   8.846   6.468  40.591
18631SOL     OW57899  10.388   3.907   3.189
18631SOL    HW157900  -0.747   3.919   3.189
18631SOL    HW257901  10.424  26.068   3.222
18632SOL     OW57902   8.050   2.641   4.559
18632SOL    HW157903  19.126  13.672   4.471
18632SOL    HW257904  30.052   2.697   4.547
18633SOL     OW57905  -0.344   5.074   4.083
18633SOL    HW157906  -0.334  -6.052   4.042
18633SOL    HW257907  10.601   5.089   4.083
18634SOL     OW57908   5.427   2.304   7.918
18634SOL    HW157909   5.424  13.433   7.885
18634SOL    HW257910  -5.699   2.290   7.958
18635SOL     OW57911   9.116   2.658   2.950
18635SOL    HW157912   9.146   2.578   2.907
18635SOL    HW257913   9.105   2.721  -8.161
18636SOL     OW57914   3.176   2.163   7.098
18636SOL    HW157915  -7.889   2.079   7.061
18636SOL    HW257916   3.120   2.174   7.175
18637SOL     OW57917  -0.323   2.986   9.113
18637SOL    HW157918  -0.272  13.954 -35.007
18637SOL    HW257919  10.637   2.989   9.165
18638SOL     OW57920   1.429   2.450   5.932
18638SOL    HW157921  -9.577   2.363   5.910
18638SOL    HW257922   1.349   2.433   5.982
18639SOL     OW57923   7.838  12.528   9.729
18639SOL    HW157924 -14.216  -9.590   9.813
18639SOL    HW257925 -25.317   1.574   9.753
18640SOL     OW57926   3.120   4.261   6.437
18640SOL    HW157927  14.070 -17.788  -4.617
18640SOL    HW257928 -18.905  15.378  17.464
18641SOL     OW57929   6.242   3.254   7.751
18641SOL    HW157930   6.238  -7.878   7.776
18641SOL    HW257931   6.294  25.374   7.820
18642SOL     OW57932   8.721   6.297   5.608
18642SOL    HW157933   8.791 -15.728   5.571
18642SOL    HW257934   8.686  39.368  16.572
18643SOL     OW57935   2.631   8.331   1.486
18643SOL    HW157936   2.712   8.367   1.523
18643SOL    HW257937  -8.392   8.330   1.391
18644SOL     OW57938   3.265   1.774   3.049
18644SOL    HW157939   3.174   1.754   3.070
18644SOL    HW257940   3.315  12.759   3.110
18645SOL     OW57941   0.828   6.108  -0.549
18645SOL    HW157942   0.766   6.181  -0.544
18645SOL    HW257943   0.866   6.116  43.522
18646SOL     OW57944  11.194  -0.401   9.700
18646SOL    HW157945  11.154  21.734   9.633
18646SOL    HW257946   0.108  10.662   9.781
18647SOL     OW57947   1.756   4.073   8.900
18647SOL    HW157948  -9.291   3.979   8.882
18647SOL    HW257949   1.786  37.197  31.070
18648SOL     OW57950   8.320   7.597  -0.182
18648SOL    HW157951   8.334   7.531  10.925
18648SOL    HW257952  -2.668   7.672  32.966
18649SOL     OW57953   8.033   1.690   1.773
18649SOL    HW157954   7.949   1.656   1.804
18649SOL    HW257955   8.089   1.688  -9.189
18650SOL     OW57956   9.593   9.841   4.064
18650SOL    HW157957   9.500   9.862   4.066
18650SOL    HW257958   9.631   9.895   4.133
18651SOL     OW57959  12.208  10.387   3.354
18651SOL    HW157960  -9.930  -0.716  25.391
18651SOL    HW257961  12.277  10.334  -7.646
18652SOL     OW57962   5.854   0.535   9.424
18652SOL    HW157963 -16.154   0.476   9.450
18652SOL    HW257964   5.898  11.654   9.395
18653SOL     OW57965   9.669   2.749   9.556
18653SOL    HW157966  20.703   2.841  -1.456
18653SOL    HW257967   9.589  13.749   9.590
18654SOL     OW57968   8.448   6.545   2.100
18654SOL    HW157969  19.395 -15.510  24.187
18654SOL    HW257970   8.460   6.476  13.205
18655SOL     OW57971   8.516  10.435   0.306
18655SOL    HW157972   8.436  10.386   0.326
18655SOL    HW257973   8.515  10.509   0.367
18656SOL     OW57974   8.123  -0.004   1.947
18656SOL    HW157975   8.158  11.019   2.034
18656SOL    HW257976   8.050  10.974   1.938
18657SOL     OW57977   8.951  -1.480   6.708
18657SOL    HW157978  31.101  -1.467   6.771
18657SOL    HW257979   8.881  42.736   6.738
18658SOL     OW57980   7.153   2.821   3.367
18658SOL    HW157981 -25.961   2.726   3.355
18658SOL    HW257982   7.153   2.856  -7.762
18659SOL     OW57983   6.861   7.417   3.018
18659SOL    HW157984   6.787   7.394  -8.077
18659SOL    HW257985  -4.219  -3.597  -7.938
18660SOL     OW57986   1.713   2.590   2.949
18660SOL    HW157987   1.656  13.660  -8.161
18660SOL    HW257988   1.679   2.634   3.027
18661SOL     OW57989   2.495   3.920   4.741
18661SOL    HW157990  35.616  14.906   4.820
18661SOL    HW257991  13.449  25.981   4.702
18662SOL     OW57992   7.451  10.738   5.852
18662SOL    HW157993   7.364  10.719   5.815
18662SOL    HW257994   7.439  -0.311  -5.093
18663SOL     OW57995   8.876   5.259   5.165
18663SOL    HW157996   8.926   5.334   5.135
18663SOL    HW257997   8.838  27.301   5.086
18664SOL     OW57998   2.514   6.985   4.093
18664SOL    HW157999   2.508  18.062   4.005
18664SOL    HW258000 -19.656   6.968   4.119
18665SOL     OW58001  -1.686   4.932   8.396
18665SOL    HW158002  31.393   4.849   8.423
18665SOL    HW258003   9.327   4.994  -2.576
18666SOL     OW58004   9.654   1.135  10.199
18666SOL    HW158005  20.706   1.095  10.113
18666SOL    HW258006   9.563   1.115  10.221
18667SOL     OW58007   3.250   4.596  -0.478
18667SOL    HW158008   3.333   4.643  10.573
18667SOL    HW258009  14.277 -28.570  10.644
18668SOL     OW58010   9.282   8.746   2.501
18668SOL    HW158011  20.250   8.802  -8.509
18668SOL    HW258012   9.243   8.658   2.497
18669SOL     OW58013   2.875   7.175   3.621
18669SOL    HW158014   2.870  18.151   3.692
18669SOL    HW258015   2.955   7.151 -18.506
18670SOL     OW58016  -0.356   4.053   6.174
18670SOL    HW158017  -0.339   4.043 -38.078
18670SOL    HW258018  10.763   4.020  28.295
18671SOL     OW58019   9.622   2.524   3.576
18671SOL    HW158020   9.560   2.497   3.509
18671SOL    HW258021   9.675   2.591  -7.507
18672SOL     OW58022  10.218   2.280   2.752
18672SOL    HW158023  32.389  -8.774  13.771
18672SOL    HW258024  -0.821 -19.775   2.845
18673SOL     OW58025   8.253   7.782   1.314
18673SOL    HW158026  -2.714   7.782   1.253
18673SOL    HW258027   8.208   7.865   1.299
18674SOL     OW58028   9.456   8.786   9.503
18674SOL    HW158029   9.529   8.816  31.637
18674SOL    HW258030  20.418   8.821   9.546
18675SOL     OW58031   4.829   7.296   9.829
18675SOL    HW158032   4.790   7.239   9.763
18675SOL    HW258033   4.913   7.322   9.790
18676SOL     OW58034   5.834   7.431   5.600
18676SOL    HW158035   5.828  -3.592  38.813
18676SOL    HW258036   5.784 -14.729  27.666
18677SOL     OW58037   5.248   8.269   9.583
18677SOL    HW158038  -5.707   8.292 -23.496
18677SOL    HW258039  -5.775  -2.765 -12.590
18678SOL     OW58040   6.387   3.076   4.987
18678SOL    HW158041 -15.742   3.041   5.061
18678SOL    HW258042   6.345   3.160   4.967
18679SOL     OW58043   0.485   7.223   9.908
18679SOL    HW158044   0.450   7.285   9.973
18679SOL    HW258045  22.563   7.272   9.826
18680SOL     OW58046   5.785  -0.403   8.449
18680SOL    HW158047 -16.263  10.707  19.544
18680SOL    HW258048   5.726  -0.361   8.387
18681SOL     OW58049  -0.267   1.160  11.010
18681SOL    HW158050  10.846  12.171  11.065
18681SOL    HW258051  10.718  12.121  11.000
18682SOL     OW58052   2.856   1.616   6.867
18682SOL    HW158053   2.937  12.688  17.867
18682SOL    HW258054   2.840   1.676  17.980
18683SOL     OW58055   8.639   4.204   5.244
18683SOL    HW158056 -35.446   4.229   5.299
18683SOL    HW258057  -2.475   4.196   5.304
18684SOL     OW58058   6.277  10.786   2.810
18684SOL    HW158059   6.228  -0.309 -19.330
18684SOL    HW258060   6.264  10.875   2.777
18685SOL     OW58061   9.000   2.813   6.436
18685SOL    HW158062  19.976 -30.258   6.384
18685SOL    HW258063   9.081   2.864  -4.611
18686SOL     OW58064   3.076  -0.102   0.998
18686SOL    HW158065   3.066  10.956  -9.948
18686SOL    HW258066   3.086  10.842   0.994
18687SOL     OW58067   4.664   1.813   2.006
18687SOL    HW158068   4.572   1.786  -9.026
18687SOL    HW258069   4.692  12.819   1.921
18688SOL     OW58070   6.485   4.633   6.037
18688SOL    HW158071   6.493  15.608  -4.932
18688SOL    HW258072   6.396  -6.372  -4.993
18689SOL     OW58073   0.494   8.629   5.211
18689SOL    HW158074  22.643   8.570  -5.857
18689SOL    HW258075   0.413  30.662 -16.889
18690SOL     OW58076   2.342   8.605   2.466
18690SOL    HW158077  24.450   8.561   2.386
18690SOL    HW258078  13.447  19.619   2.532
18691SOL     OW58079   9.112   7.800   2.306
18691SOL    HW158080   9.179  29.818 -19.802
18691SOL    HW258081 -23.975   7.833  -8.650
18692SOL     OW58082  -0.947   0.854   5.186
18692SOL    HW158083  43.171   0.940  60.375
18692SOL    HW258084  10.108 -10.195  27.360
18693SOL     OW58085   0.408   1.305   2.415
18693SOL    HW158086   0.366   1.389  -8.611
18693SOL    HW258087   0.343   1.252   2.369
18694SOL     OW58088   0.834   9.857  11.556
18694SOL    HW158089 -21.314  20.875 -10.460
18694SOL    HW258090  11.835  -1.113  11.502
18695SOL     OW58091   8.360   6.130   4.799
18695SOL    HW158092   8.447   6.125   4.759
18695SOL    HW258093   8.377   6.164   4.887
18696SOL     OW58094   8.288  12.302   1.486
18696SOL    HW158095  19.422   1.277   1.500
18696SOL    HW258096   8.262  -9.836   1.557
18697SOL     OW58097   2.023   8.812   7.001
18697SOL    HW158098  -8.991   8.874 -15.011
18697SOL    HW258099   1.927   8.817  -4.041
18698SOL     OW58100   1.953   6.262   6.572
18698SOL    HW158101 -20.049   6.263  17.668
18698SOL    HW258102   1.914   6.349  -4.457
18699SOL     OW58103   1.873   0.402   8.935
18699SOL    HW158104   1.788   0.376   8.900
18699SOL    HW258105   1.889   0.489   8.898
18700SOL     OW58106   3.340   0.856   2.482
18700SOL    HW158107   3.286   0.797  -8.504
18700SOL    HW258108   3.402   0.894  -8.497
18701SOL     OW58109   8.941   8.709   8.785
18701SOL    HW158110   9.003   8.734  19.893
18701SOL    HW258111   8.945  19.820   8.721
18702SOL     OW58112   7.384   0.002   0.147
18702SOL    HW158113  18.482  -0.042   0.209
18702SOL    HW258114   7.345  10.970   0.095
18703SOL     OW58115  10.305   5.663   1.036
18703SOL    HW158116  10.338   5.746   1.071
18703SOL    HW258117  10.383   5.612   1.016
18704SOL     OW58118  10.242   8.514   8.376
18704SOL    HW158119  10.320   8.568   8.359
18704SOL    HW258120  10.266   8.428   8.344
18705SOL     OW58121   7.447   8.393   1.140
18705SOL    HW158122   7.354   8.385   1.118
18705SOL    HW258123  18.488 -13.655  12.270
18706SOL     OW58124   8.276   6.358   0.648
18706SOL    HW158125   8.221   6.393   0.577
18706SOL    HW258126   8.341   6.304   0.603
18707SOL     OW58127   5.204   4.992   8.369
18707SOL    HW158128  -5.800   4.996  -2.760
18707SOL    HW258129   5.116  -6.011  19.401
18708SOL     OW58130  10.973   2.199   2.410
18708SOL    HW158131  -0.090   2.288  -8.601
18708SOL    HW258132 -11.078   2.156   2.491
18709SOL     OW58133   8.122   4.755   0.536
18709SOL    HW158134  30.249   4.679   0.502
18709SOL    HW258135   8.100   4.806   0.458
18710SOL     OW58136   2.168   3.959   1.721
18710SOL    HW158137   2.143 -18.112   1.629
18710SOL    HW258138   2.200   3.869   1.729
18711SOL     OW58139   4.459   9.039  10.371
18711SOL    HW158140  15.568   8.988  10.412
18711SOL    HW258141   4.499   9.125  10.356
18712SOL     OW58142   4.684   4.118   9.980
18712SOL    HW158143   4.698   4.094 -12.008
18712SOL    HW258144  -6.433   4.175 -12.097
18713SOL     OW58145   9.829   1.153  11.267
18713SOL    HW158146  -1.293   1.116   0.196
18713SOL    HW258147 -23.277   1.113  11.353
18714SOL     OW58148   4.253   7.619   2.893
18714SOL    HW158149  -6.754   7.691  13.878
18714SOL    HW258150   4.230   7.551   2.831
18715SOL     OW58151   6.314   0.980   6.626
18715SOL    HW158152   6.286  12.059   6.709
18715SOL    HW258153  -4.787  11.947   6.611
18716SOL     OW58154   0.134   6.939   9.195
18716SOL    HW158155   0.083   7.020  -1.847
18716SOL    HW258156   0.069   6.869   9.184
18717SOL     OW58157   2.562   7.541   2.611
18717SOL    HW158158   2.637   7.534  -8.488
18717SOL    HW258159  13.581  -3.590  -8.407
18718SOL     OW58160   6.241   5.843   4.425
18718SOL    HW158161   6.305  16.948   4.396
18718SOL    HW258162   6.240   5.778  15.394
18719SOL     OW58163   1.998   6.233   3.264
18719SOL    HW158164  -8.951  17.303   3.273
18719SOL    HW258165   2.005  39.260   3.237
18720SOL     OW58166   4.210   9.868   8.073
18720SOL    HW158167   4.262   9.943  30.181
18720SOL    HW258168   4.197   9.816   8.152
18721SOL     OW58169   0.774   5.419   3.896
18721SOL    HW158170   0.701  -5.631   3.956
18721SOL    HW258171  11.884   5.369   3.935
18722SOL     OW58172   3.549   3.763   4.027
18722SOL    HW158173   3.605   3.804   4.093
18722SOL    HW258174  14.538   3.698   4.076
18723SOL     OW58175   5.164   0.435   4.307
18723SOL    HW158176  -5.809   0.503   4.292
18723SOL    HW258177   5.200   0.383  15.418
18724SOL     OW58178   2.403   7.612   6.000
18724SOL    HW158179   2.412   7.701   5.968
18724SOL    HW258180  13.493  18.598  -5.102
18725SOL     OW58181   6.938   5.595   0.641
18725SOL    HW158182  17.990  16.540 -10.396
18725SOL    HW258183   6.844   5.608   0.633
18726SOL     OW58184   1.801   0.969   4.591
18726SOL    HW158185   1.775   1.061   4.587
18726SOL    HW258186 -20.267   0.943   4.500
18727SOL     OW58187   9.947   3.240   4.596
18727SOL    HW158188   9.923  25.300  15.545
18727SOL    HW258189  -1.112   3.160  37.762
18728SOL     OW58190   1.198  10.588   4.051
18728SOL    HW158191   1.116  10.543   4.031
18728SOL    HW258192   1.171  10.669   4.094
18729SOL     OW58193   1.561  11.385   6.500
18729SOL    HW158194   1.649  11.423  -4.548
18729SOL    HW258195   1.526 -21.731   6.411
18730SOL     OW58196   3.298   1.541   9.060
18730SOL    HW158197   3.267   1.631   9.061
18730SOL    HW258198   3.224   1.491   9.026
18731SOL     OW58199   4.227   8.469   4.980
18731SOL    HW158200   4.263   8.478   4.892
18731SOL    HW258201   4.304  -2.572   5.038
18732SOL     OW58202   0.006   4.314   6.160
18732SOL    HW158203  -0.079  15.368   6.118
18732SOL    HW258204  -0.006  37.463   6.250
18733SOL     OW58205   0.496   7.904   9.854
18733SOL    HW158206   0.436   7.835   9.881
18733SOL    HW258207  11.598   7.859   9.796
18734SOL     OW58208   7.676  11.604   9.917
18734SOL    HW158209  -3.368 -10.526   9.836
18734SOL    HW258210  -3.284  11.658   9.906
18735SOL     OW58211   2.869   4.942   3.428
18735SOL    HW158212  13.958   4.917   3.506
18735SOL    HW258213  24.965  27.114   3.417
18736SOL     OW58214   3.114  11.612   3.348
18736SOL    HW158215   3.133 -10.560 -18.719
18736SOL    HW258216   3.034  11.613   3.295
18737SOL     OW58217  11.457   9.886   9.926
18737SOL    HW158218  11.394   9.820  -1.085
18737SOL    HW258219   0.484   9.887  32.075
18738SOL     OW58220   3.836   5.956   7.271
18738SOL    HW158221  14.786   5.951   7.236
18738SOL    HW258222   3.892   5.926  18.239
18739SOL     OW58223   7.039   5.595   9.836
18739SOL    HW158224   6.947   5.617 -34.337
18739SOL    HW258225  -3.997   5.500   9.825
18740SOL     OW58226   3.109   0.681   2.907
18740SOL    HW158227  -7.840   0.681   2.875
18740SOL    HW258228   3.117   0.700   3.000
18741SOL     OW58229   3.462   9.082   4.867
18741SOL    HW158230   3.534   9.114   4.920
18741SOL    HW258231   3.418   9.161  15.875
18742SOL     OW58232   4.280   1.967   9.479
18742SOL    HW158233   4.187  13.000 -34.698
18742SOL    HW258234   4.291   2.055   9.515
18743SOL     OW58235   5.768   0.706  10.424
18743SOL    HW158236   5.843   0.681  10.477
18743SOL    HW258237  -5.234   0.749  10.347
18744SOL     OW58238   2.291   5.181   4.572
18744SOL    HW158239   2.224  27.327   4.554
18744SOL    HW258240 -19.719   5.200   4.509
18745SOL     OW58241   9.570   5.739   2.960
18745SOL    HW158242  31.692   5.770   3.039
18745SOL    HW258243   9.573   5.643   2.967
18746SOL     OW58244   7.461   3.767   4.904
18746SOL    HW158245   7.381   3.775   4.851
18746SOL    HW258246   7.469  25.752   4.920
18747SOL     OW58247  -0.408   1.479   9.596
18747SOL    HW158248  -0.458  -9.481  -1.427
18747SOL    HW258249  10.584   1.436  20.565
18748SOL     OW58250   7.778   5.201   8.559
18748SOL    HW158251  -3.238   5.112  -2.452
18748SOL    HW258252   7.694   5.189  41.632
18749SOL     OW58253   2.020   6.123   2.006
18749SOL    HW158254   2.019   6.107  -9.128
18749SOL    HW258255   2.037   6.037  -8.995
18750SOL     OW58256   3.722  10.858  -1.786
18750SOL    HW158257  14.720  -0.220  -1.709
18750SOL    HW258258   3.752  10.783  31.282
18751SOL     OW58259   6.178   6.950   5.443
18751SOL    HW158260   6.237   6.886   5.482
18751SOL    HW258261  17.130   6.916   5.460
18752SOL     OW58262   0.783   6.996   1.435
18752SOL    HW158263   0.774   6.981  12.569
18752SOL    HW258264   0.731   7.074  12.458
18753SOL     OW58265   4.199   6.029   2.097
18753SOL    HW158266  -6.779 -15.977   2.107
18753SOL    HW258267  15.275   5.959   2.151
18754SOL     OW58268   0.013   4.086   4.305
18754SOL    HW158269  10.993   4.061   4.235
18754SOL    HW258270   0.077   4.015   4.308
18755SOL     OW58271   5.982   1.678   6.037
18755SOL    HW158272  -5.072   1.586   6.014
18755SOL    HW258273   6.068   1.699   6.000
18756SOL     OW58274   9.564   4.519   7.999
18756SOL    HW158275  31.568   4.562  18.998
18756SOL    HW258276   9.550   4.530   8.093
18757SOL     OW58277  -1.168   1.054  11.509
18757SOL    HW158278  20.887  23.179   0.551
18757SOL    HW258279  20.991   1.007  11.531
18758SOL     OW58280   5.983   9.918   5.954
18758SOL    HW158281   5.959   9.923   6.046
18758SOL    HW258282 -16.037   9.993   5.940
18759SOL     OW58283   6.892  -0.156   6.641
18759SOL    HW158284   6.942  -0.199   6.710
18759SOL    HW258285   6.942  21.907   6.561
18760SOL     OW58286   5.524   9.926  10.332
18760SOL    HW158287   5.557   9.875  10.257
18760SOL    HW258288   5.449 -12.203  -0.676
18761SOL     OW58289   4.837   3.476   8.452
18761SOL    HW158290  26.980  36.650  30.576
18761SOL    HW258291 -17.190   3.407  19.450
18762SOL     OW58292   6.562   3.517   5.118
18762SOL    HW158293   6.466  25.597   5.112
18762SOL    HW258294   6.584   3.428   5.144
18763SOL     OW58295  10.502   0.805   8.247
18763SOL    HW158296  10.557   0.731 -24.898
18763SOL    HW258297  10.452   0.826   8.169
18764SOL     OW58298   9.359   5.332   6.226
18764SOL    HW158299   9.384   5.307   6.314
18764SOL    HW258300  -1.776   5.320   6.223
18765SOL     OW58301   0.930   8.992   9.932
18765SOL    HW158302  11.919   8.911   9.934
18765SOL    HW258303   0.974 -13.089  20.886
18766SOL     OW58304   9.791  10.021   9.603
18766SOL    HW158305   9.847 -34.196   9.655
18766SOL    HW258306  20.892  10.082 -12.518
18767SOL     OW58307   2.226   1.768   0.971
18767SOL    HW158308  -8.876   1.798 -10.135
18767SOL    HW258309   2.266  23.928   1.004
18768SOL     OW58310   8.629   4.138   5.908
18768SOL    HW158311   8.588  15.137   5.984
18768SOL    HW258312   8.558 -17.892   5.866
18769SOL     OW58313   7.396   4.740   3.566
18769SOL    HW158314  18.368 -17.405   3.581
18769SOL    HW258315   7.442  -6.329  -7.553
18770SOL     OW58316   7.202   8.824   9.595
18770SOL    HW158317   7.245   8.743   9.569
18770SOL    HW258318   7.111 -13.264   9.566
18771SOL     OW58319   0.135   4.686   7.120
18771SOL    HW158320   0.149   4.592  29.191
18771SOL    HW258321   0.213   4.725   7.079
18772SOL     OW58322   6.358   3.298   8.861
18772SOL    HW158323  28.349   3.336   8.867
18772SOL    HW258324   6.409  -7.695  -2.113
18773SOL     OW58325   1.318   7.617   0.914
18773SOL    HW158326   1.379   7.655 -10.189
18773SOL    HW258327   1.245   7.587  11.901
18774SOL     OW58328   5.531  10.753   9.150
18774SOL    HW158329   5.508  10.660  -1.900
18774SOL    HW258330   5.450  10.793   9.183
18775SOL     OW58331   1.573   8.216  -0.325
18775SOL    HW158332 -20.504   8.305  -0.360
18775SOL    HW258333   1.662   8.183  10.703
18776SOL     OW58334   3.282   9.599  10.158
18776SOL    HW158335   3.287   9.607  -0.977
18776SOL    HW258336   3.274  31.584  10.173
18777SOL     OW58337   0.659   8.532   9.120
18777SOL    HW158338   0.564   8.544  20.165
18777SOL    HW258339 -10.353   8.595   9.054
18778SOL     OW58340   7.330   7.469   8.827
18778SOL    HW158341   7.288   7.402  19.921
18778SOL    HW258342   7.402   7.502   8.881
18779SOL     OW58343   0.462   3.475  -0.262
18779SOL    HW158344   0.556   3.474  10.759
18779SOL    HW258345  11.470  -7.650  -0.291
18780SOL     OW58346   7.809   4.350   7.626
18780SOL    HW158347   7.798   4.384 -14.542
18780SOL    HW258348   7.721   4.354   7.664
18781SOL     OW58349   0.992   5.651   9.998
18781SOL    HW158350  12.116   5.626   9.960
18781SOL    HW258351   0.950   5.568  10.020
18782SOL     OW58352  12.046   2.254   9.997
18782SOL    HW158353 -32.131 -19.894  20.973
18782SOL    HW258354  -9.960   2.220  10.048
18783SOL     OW58355   2.794   9.804   8.557
18783SOL    HW158356   2.757  20.882   8.637
18783SOL    HW258357   2.805   9.711   8.577
18784SOL     OW58358   7.670   0.194   4.602
18784SOL    HW158359   7.709   0.208   4.516
18784SOL    HW258360   7.736   0.146   4.651
18785SOL     OW58361   6.962  10.011   0.485
18785SOL    HW158362   7.025  -1.066   0.423
18785SOL    HW258363  17.957   9.935  22.601
18786SOL     OW58364   3.662  11.001  10.741
18786SOL    HW158365   3.686  10.935  10.676
18786SOL    HW258366   3.726  -0.051  10.812
18787SOL     OW58367   1.140   5.767   3.823
18787SOL    HW158368  -9.811  -5.276   3.859
18787SOL    HW258369   1.083   5.751   3.898
18788SOL     OW58370   0.767   2.656   0.270
18788SOL    HW158371   0.698  -8.393   0.335
18788SOL    HW258372   0.721   2.682   0.190
18789SOL     OW58373  11.128   5.278   7.243
18789SOL    HW158374  11.174   5.224   7.178
18789SOL    HW258375 -10.983  -5.824   7.308
18790SOL     OW58376   3.088   5.131   3.363
18790SOL    HW158377   3.136  49.367  14.434
18790SOL    HW258378 -18.954   5.059  14.453
18791SOL     OW58379   3.312   7.404   0.497
18791SOL    HW158380  25.351   7.481   0.458
18791SOL    HW258381  14.409  18.408   0.429
18792SOL     OW58382   2.157   2.945  12.129
18792SOL    HW158383   2.130  14.018  12.043
18792SOL    HW258384   2.099   2.989  -9.888
18793SOL     OW58385   3.334   9.602   2.692
18793SOL    HW158386  -7.710   9.559   2.778
18793SOL    HW258387  58.622   9.631   2.685
18794SOL     OW58388   3.446  13.417   4.826
18794SOL    HW158389  14.396   2.411  15.866
18794SOL    HW258390   3.497 -19.635 -17.207
18795SOL     OW58391   3.627  10.748   5.800
18795SOL    HW158392  25.667  10.687  -5.302
18795SOL    HW258393   3.612 -11.244   5.761
18796SOL     OW58394   1.323   8.679   2.414
18796SOL    HW158395   1.291   8.601   2.460
18796SOL    HW258396  -9.767   8.681   2.333
18797SOL     OW58397   4.581   7.134   5.346
18797SOL    HW158398   4.530   7.054   5.362
18797SOL    HW258399   4.599  18.208   5.434
18798SOL     OW58400   6.904   2.902   7.078
18798SOL    HW158401  -4.140   2.944  40.283
18798SOL    HW258402   6.972   2.950  29.111
18799SOL     OW58403  10.663   4.115   3.231
18799SOL    HW158404  10.746   4.161   3.240
18799SOL    HW258405  -0.418   4.156   3.154
18800SOL     OW58406   4.878  10.119  10.781
18800SOL    HW158407   4.883  10.027  10.808
18800SOL    HW258408  -6.154  -0.871  10.863
18801SOL     OW58409   0.185   3.859   2.394
18801SOL    HW158410   0.129   3.903   2.458
18801SOL    HW258411   0.187  14.807   2.423
18802SOL     OW58412   5.946   6.340   9.135
18802SOL    HW158413  16.935  17.379 -12.863
18802SOL    HW258414   5.999   6.419 -23.979
18803SOL     OW58415   1.015   0.120   4.185
18803SOL    HW158416   0.962   0.132  -6.934
18803SOL    HW258417   0.979  11.080  -6.814
18804SOL     OW58418   6.111   7.540   1.463
18804SOL    HW158419   6.052  40.630   1.533
18804SOL    HW258420  17.105   7.517   1.382
18805SOL     OW58421  10.870   4.131   2.421
18805SOL    HW158422  10.929   4.173   2.357
18805SOL    HW258423  10.917   4.138  24.583
18806SOL     OW58424   7.424   8.302   3.051
18806SOL    HW158425   7.401   8.330  14.179
18806SOL    HW258426   7.519   8.295   3.052
18807SOL     OW58427  10.425  10.440   3.315
18807SOL    HW158428  10.448  10.349  -7.744
18807SOL    HW258429  10.444  10.487   3.234
18808SOL     OW58430   1.355   4.922   8.521
18808SOL    HW158431   1.267 -17.140   8.554
18808SOL    HW258432  12.448   4.909  -2.441
18809SOL     OW58433   3.305   4.547   9.249
18809SOL    HW158434  -7.762 -17.501   9.336
18809SOL    HW258435   3.241   4.585   9.189
18810SOL     OW58436   8.923   5.187   7.124
18810SOL    HW158437  30.956   5.213   7.204
18810SOL    HW258438  19.929  -5.940   7.105
18811SOL     OW58439   5.315   4.368   2.495
18811SOL    HW158440   5.352   4.350   2.409
18811SOL    HW258441   5.221  -6.665   2.480
18812SOL     OW58442   3.521   6.919   1.955
18812SOL    HW158443  36.722 -15.167   2.002
18812SOL    HW258444   3.544  -4.084   1.870
18813SOL     OW58445   5.580   6.739   5.348
18813SOL    HW158446   5.645   6.702   5.288
18813SOL    HW258447   5.568   6.829  16.359
18814SOL     OW58448   4.011   8.745  -0.263
18814SOL    HW158449   3.983   8.723  21.905
18814SOL    HW258450   4.107   8.748  -0.257
18815SOL     OW58451   5.625   1.634   8.160
18815SOL    HW158452  -5.431   1.654   8.253
18815SOL    HW258453  27.654  12.741   8.113
18816SOL     OW58454   8.593   1.135   2.315
18816SOL    HW158455   8.617   1.098   2.229
18816SOL    HW258456   8.673   1.177   2.345
18817SOL     OW58457  10.539   5.647   6.211
18817SOL    HW158458 -22.613  38.839   6.159
18817SOL    HW258459  10.524  16.609   6.157
18818SOL     OW58460   9.091   8.196  10.183
18818SOL    HW158461   9.117   8.120 -22.883
18818SOL    HW258462   9.073 -13.920  10.096
18819SOL     OW58463   4.189   9.734   1.229
18819SOL    HW158464   4.106   9.753  12.312
18819SOL    HW258465   4.197   9.639   1.232
18820SOL     OW58466   6.305   4.022   3.012
18820SOL    HW158467 -15.703   3.985   2.960
18820SOL    HW258468   6.338   4.020   3.102
18821SOL     OW58469   3.765   9.584  11.328
18821SOL    HW158470   3.712 -23.598  11.376
18821SOL    HW258471  25.934   9.560   0.308
18822SOL     OW58472   3.477   8.024   2.364
18822SOL    HW158473   3.440  30.045 -19.782
18822SOL    HW258474   3.550   8.067  -8.719
18823SOL     OW58475   5.372   6.378   7.829
18823SOL    HW158476   5.348  17.389   7.917
18823SOL    HW258477   5.330  -4.725 -14.308
18824SOL     OW58478   7.108   4.397   0.344
18824SOL    HW158479   7.066  15.355   0.374
18824SOL    HW258480  -3.900  15.417   0.256
18825SOL     OW58481   8.779   1.549   4.466
18825SOL    HW158482  41.897   1.535   4.371
18825SOL    HW258483 -13.217  -9.445  15.522
18826SOL     OW58484   7.062   8.801   4.868
18826SOL    HW158485   6.968  30.897   4.874
18826SOL    HW258486   7.093   8.862   4.801
18827SOL     OW58487   5.383   4.642   8.105
18827SOL    HW158488   5.426   4.678   8.183
18827SOL    HW258489   5.316   4.707   8.082
18828SOL     OW58490   3.186   8.754   6.353
18828SOL    HW158491   3.137  30.912   6.379
18828SOL    HW258492   3.119   8.695   6.319
18829SOL     OW58493   8.165  10.399   4.338
18829SOL    HW158494   8.125  10.417  -6.616
18829SOL    HW258495   8.250  10.441   4.342
18830SOL     OW58496   2.774   3.265   1.678
18830SOL    HW158497   2.732   3.186   1.645
18830SOL    HW258498 -19.337  14.313   1.768
18831SOL     OW58499   0.252   7.632   5.687
18831SOL    HW158500   0.298  -3.359   5.756
18831SOL    HW258501  11.319   7.541   5.699
18832SOL     OW58502   9.399   8.438   6.753
18832SOL    HW158503 -23.670   8.388  -4.222
18832SOL    HW258504   9.459   8.506  28.803
18833SOL     OW58505   7.351   0.480   1.693
18833SOL    HW158506   7.396   0.555   1.653
18833SOL    HW258507  -3.620   0.436   1.744
18834SOL     OW58508  10.822   2.485   5.218
18834SOL    HW158509  10.866   2.548  16.200
18834SOL    HW258510  10.821   2.403   5.168
18835SOL     OW58511   3.200   4.904   2.249
18835SOL    HW158512  14.305   4.837   2.229
18835SOL    HW258513   3.209 -17.111  -8.861
18836SOL     OW58514   0.721  10.098   1.454
18836SOL    HW158515  11.739  -0.866   1.400
18836SOL    HW258516   0.723  -0.908   1.544
18837SOL     OW58517   9.225   9.519   7.164
18837SOL    HW158518   9.197 -12.542   7.254
18837SOL    HW258519   9.316   9.548  51.319
18838SOL     OW58520   5.020   1.499   7.598
18838SOL    HW158521   4.971  23.527   7.534
18838SOL    HW258522 -17.126  12.581   7.651
18839SOL     OW58523   1.597   4.486   9.420
18839SOL    HW158524   1.528   4.482   9.486
18839SOL    HW258525   1.642   4.569  20.477
18840SOL     OW58526   8.841   5.834   7.327
18840SOL    HW158527   8.921  16.856   7.278
18840SOL    HW258528   8.846  16.816  18.443
18841SOL     OW58529   2.132  11.975   0.061
18841SOL    HW158530   2.087   0.900  -0.016
18841SOL    HW258531  24.282   0.989  11.064
18842SOL     OW58532   1.129  10.406  10.679
18842SOL    HW158533   1.219  10.400  10.710
18842SOL    HW258534   1.110  -0.540  10.676
18843SOL     OW58535   0.032   2.351   7.758
18843SOL    HW158536  -0.005   2.380   7.841
18843SOL    HW258537   0.115   2.397  18.791
18844SOL     OW58538   2.034   7.813   9.055
18844SOL    HW158539  -9.075   7.753  20.065
18844SOL    HW258540   1.996  29.937  -1.908
18845SOL     OW58541  10.657   8.898   0.811
18845SOL    HW158542  10.650   8.844 -10.307
18845SOL    HW258543  10.697   8.841   0.877
18846SOL     OW58544   5.061   9.038   2.614
18846SOL    HW158545   5.064   8.986   2.694
18846SOL    HW258546   4.985  20.134   2.625
18847SOL     OW58547   5.308   4.830   7.381
18847SOL    HW158548  38.520  15.860  18.437
18847SOL    HW258549   5.297   4.812   7.288
18848SOL     OW58550   8.951  10.371   8.108
18848SOL    HW158551   8.949  10.307   8.037
18848SOL    HW258552  41.998  10.431 -13.989
18849SOL     OW58553   3.630  -0.491   5.351
18849SOL    HW158554   3.536  -0.507   5.357
18849SOL    HW258555  14.695  10.513  16.305
18850SOL     OW58556   3.099   9.624  -0.010
18850SOL    HW158557   3.166  -1.352  11.051
18850SOL    HW258558   3.026   9.676  -0.044
18851SOL     OW58559   3.729   0.177  10.320
18851SOL    HW158560  14.800   0.264  -0.744
18851SOL    HW258561   3.788   0.116  10.275
18852SOL     OW58562   5.190   7.612   5.343
18852SOL    HW158563 -16.885   7.526  -5.655
18852SOL    HW258564   5.215   7.674   5.411
18853SOL     OW58565   5.791   7.254   8.779
18853SOL    HW158566   5.872   7.274   8.732
18853SOL    HW258567   5.726   7.314   8.742
18854SOL     OW58568   7.180   2.540  10.195
18854SOL    HW158569   7.116   2.566  -0.912
18854SOL    HW258570   7.247 -41.665 -11.933
18855SOL     OW58571   2.152   5.013   8.620
18855SOL    HW158572   2.219  27.024   8.613
18855SOL    HW258573   2.081   4.982  19.603
18856SOL     OW58574   7.328   2.609   7.341
18856SOL    HW158575   7.314   2.656 -25.696
18856SOL    HW258576   7.289   2.664 -14.805
18857SOL     OW58577   9.273   0.920   6.103
18857SOL    HW158578 -12.759   0.841  28.210
18857SOL    HW258579  -1.731  45.098   6.016
18858SOL     OW58580   9.967   0.276   8.429
18858SOL    HW158581   9.914  22.315   8.360
18858SOL    HW258582   9.929   0.363  -2.597
18859SOL     OW58583   5.226  10.935   9.033
18859SOL    HW158584  -5.820  -0.155 -24.167
18859SOL    HW258585   5.136  10.962  -1.988
18860SOL     OW58586   5.839   2.499   6.338
18860SOL    HW158587  16.814   2.429   6.345
18860SOL    HW258588   5.871   2.494   6.248
18861SOL     OW58589   4.010   5.693  10.589
18861SOL    HW158590   3.915   5.701  10.579
18861SOL    HW258591  15.064 -16.392  10.683
18862SOL     OW58592  10.916   1.973   4.398
18862SOL    HW158593  -0.181   1.993 -17.755
18862SOL    HW258594  10.971   2.051   4.408
18863SOL     OW58595   0.357   8.710   5.570
18863SOL    HW158596  11.446   8.660   5.635
18863SOL    HW258597  22.504   8.753   5.517
18864SOL     OW58598   4.506  11.472   8.263
18864SOL    HW158599   4.433 -21.585   8.264
18864SOL    HW258600   4.488  11.415   8.188
18865SOL     OW58601   4.019   8.144   9.889
18865SOL    HW158602  26.037   8.148   9.815
18865SOL    HW258603  37.096   8.197   9.957
18866SOL     OW58604   2.454   7.499   1.705
18866SOL    HW158605   2.502  -3.619   1.731
18866SOL    HW258606  13.402  -3.569  -9.340
18867SOL     OW58607   7.949   1.940   4.274
18867SOL    HW158608  30.049   1.935   4.181
18867SOL    HW258609   7.874   2.000  15.318
18868SOL     OW58610   2.904   9.664   0.851
18868SOL    HW158611   2.921  -1.404   0.761
18868SOL    HW258612   2.810   9.650   0.864
18869SOL     OW58613   1.414   0.513  -0.912
18869SOL    HW158614   1.411  11.565  -1.006
18869SOL    HW258615   1.463  11.471  21.180
18870SOL     OW58616  10.495   4.686   9.735
18870SOL    HW158617  10.583   4.715 -12.368
18870SOL    HW258618  10.458  15.799  31.864
18871SOL     OW58619   0.248   9.476   2.340
18871SOL    HW158620  33.397   9.486   2.431
18871SOL    HW258621   0.179   9.411 -19.734
18872SOL     OW58622   4.254   2.107   3.974
18872SOL    HW158623   4.298   2.191  15.025
18872SOL    HW258624  -6.848   2.121  -7.137
18873SOL     OW58625   7.239  10.545   5.140
18873SOL    HW158626   7.304  10.539   5.070
18873SOL    HW258627   7.195  10.461   5.140
18874SOL     OW58628   2.387  11.097   0.971
18874SOL    HW158629   2.317 -11.046 -10.063
18874SOL    HW258630  -8.630  22.139   0.878
18875SOL     OW58631   3.229   8.997   5.264
18875SOL    HW158632   3.303 -13.136 -16.788
18875SOL    HW258633   3.206   8.965   5.177
18876SOL     OW58634   3.225   4.363   2.301
18876SOL    HW158635   3.173  15.416  13.261
18876SOL    HW258636   3.274   4.444  35.430
18877SOL     OW58637   7.385   3.153  12.262
18877SOL    HW158638   7.339   3.103   1.155
18877SOL    HW258639   7.382   3.243   1.191
18878SOL     OW58640   4.998   9.120   4.208
18878SOL    HW158641 -17.044   9.196   4.164
18878SOL    HW258642  16.109  -1.952   4.263
18879SOL     OW58643   1.131   9.674   8.902
18879SOL    HW158644  12.102  31.793   8.849
18879SOL    HW258645   1.139   9.732  20.018
18880SOL     OW58646   3.011   8.364   5.691
18880SOL    HW158647   2.974   8.288  -5.394
18880SOL    HW258648   3.060   8.411   5.623
18881SOL     OW58649   8.217   7.309   7.640
18881SOL    HW158650 -13.903   7.258   7.711
18881SOL    HW258651  -2.832   7.253   7.563
18882SOL     OW58652   7.344  -0.204   2.932
18882SOL    HW158653   7.320  21.892  13.881
18882SOL    HW258654  -3.765  -0.162   2.984
18883SOL     OW58655   4.751  -1.037   2.469
18883SOL    HW158656   4.709  10.084  13.481
18883SOL    HW258657   4.794  43.088   2.390
18884SOL     OW58658   3.662   1.332  -1.381
18884SOL    HW158659   3.611  -9.634  20.664
18884SOL    HW258660  14.651   1.255   9.635
18885SOL     OW58661   1.017  10.170   6.713
18885SOL    HW158662   1.033  21.199   6.807
18885SOL    HW258663   1.068  10.099   6.673
18886SOL     OW58664  -0.197   8.337   0.951
18886SOL    HW158665  32.888   8.249 -10.103
18886SOL    HW258666 -11.180  30.408   1.028
18887SOL     OW58667  10.112  13.122   2.324
18887SOL    HW158668  10.125  -9.028   2.261
18887SOL    HW258669  10.187  -8.963   2.383
18888SOL     OW58670   8.509   6.823   2.662
18888SOL    HW158671   8.465  39.945   2.747
18888SOL    HW258672   8.577  28.970   2.667
18889SOL     OW58673   9.811  10.021   0.413
18889SOL    HW158674 -12.287  10.113   0.427
18889SOL    HW258675  -1.133  -1.023   0.410
18890SOL     OW58676   8.381   1.544  10.120
18890SOL    HW158677   8.312   1.487  21.127
18890SOL    HW258678   8.394   1.516  10.211
18891SOL     OW58679   4.731   4.737   8.921
18891SOL    HW158680   4.697  15.854   8.876
18891SOL    HW258681   4.811   4.715  19.913
18892SOL     OW58682   8.989   6.654   3.501
18892SOL    HW158683   8.901   6.676  36.589
18892SOL    HW258684   8.990   6.559  -7.533
18893SOL     OW58685   0.780  10.522   6.785
18893SOL    HW158686 -10.219  10.512  17.911
18893SOL    HW258687   0.686  -0.517   6.802
18894SOL     OW58688   6.142   5.296   9.785
18894SOL    HW158689 -15.974   5.303   9.873
18894SOL    HW258690   6.069   5.317   9.727
18895SOL     OW58691   8.279   5.618   0.611
18895SOL    HW158692   8.186   5.607   0.630
18895SOL    HW258693   8.320   5.536   0.639
18896SOL     OW58694   1.883   5.591   1.691
18896SOL    HW158695   1.844   5.504  12.723
18896SOL    HW258696  12.915  -5.412   1.603
18897SOL     OW58697   4.598   2.015   8.281
18897SOL    HW158698   4.563   1.926  19.336
18897SOL    HW258699 -28.446   2.001   8.223
18898SOL     OW58700   7.183  10.066   2.465
18898SOL    HW158701   7.199 -23.002   2.545
18898SOL    HW258702   7.253  10.001   2.464
18899SOL     OW58703   4.083   2.516   2.559
18899SOL    HW158704 -29.039   2.524   2.464
18899SOL    HW258705  -7.006   2.437   2.579
18900SOL     OW58706  10.868   2.982   8.278
18900SOL    HW158707 -11.254   3.033   8.347
18900SOL    HW258708  10.960   3.008 -13.796
18901SOL     OW58709   9.418   8.209   7.541
18901SOL    HW158710  31.557   8.143  -3.533
18901SOL    HW258711   9.389   8.173   7.625
18902SOL     OW58712  10.272   3.859   4.706
18902SOL    HW158713  -0.710   3.782   4.704
18902SOL    HW258714  10.319   3.925   4.655
18903SOL     OW58715   3.184  10.181   9.573
18903SOL    HW158716  25.217  -0.925   9.625
18903SOL    HW258717   3.121  10.253   9.566
18904SOL     OW58718   2.104  -0.932   1.360
18904SOL    HW158719 -19.890  21.173   1.395
18904SOL    HW258720   2.097  -1.025   1.380
18905SOL     OW58721  10.520   8.345   6.170
18905SOL    HW158722  10.441  -2.716  -4.920
18905SOL    HW258723  10.588   8.291   6.130
18906SOL     OW58724   5.959   9.080   6.097
18906SOL    HW158725   6.016   9.033   6.158
18906SOL    HW258726   5.898  -1.912   6.154
18907SOL     OW58727   0.334   5.510   5.119
18907SOL    HW158728   0.294   5.584   5.073
18907SOL    HW258729   0.283  -5.605   5.092
18908SOL     OW58730   7.370   9.476   4.015
18908SOL    HW158731  18.378   9.544   4.074
18908SOL    HW258732  18.384  -1.533   3.928
18909SOL     OW58733   0.524   3.957   5.120
18909SOL    HW158734  11.632   3.974  -5.984
18909SOL    HW258735   0.533 -18.051   5.183
18910SOL     OW58736   7.318  10.555   3.152
18910SOL    HW158737   7.365  10.559   3.069
18910SOL    HW258738   7.378  10.593  14.256
18911SOL     OW58739   4.827   2.795   9.608
18911SOL    HW158740   4.890   2.814   9.539
18911SOL    HW258741  -6.291  -8.195   9.583
18912SOL     OW58742   6.787   3.386   1.035
18912SOL    HW158743  -4.243  14.423   0.940
18912SOL    HW258744   6.796  14.518   1.058
18913SOL     OW58745   1.129   5.885   3.436
18913SOL    HW158746   1.039   5.856  -7.616
18913SOL    HW258747   1.126   5.940  -7.525
18914SOL     OW58748   3.327   1.643   3.279
18914SOL    HW158749   3.350 -20.376   3.349
18914SOL    HW258750   3.297   1.564   3.325
18915SOL     OW58751   3.373   5.378   2.694
18915SOL    HW158752 -18.703   5.351   2.786
18915SOL    HW258753   3.336   5.302   2.648
18916SOL     OW58754  11.232   5.853   7.554
18916SOL    HW158755 -21.805 -16.268   7.524
18916SOL    HW258756 -10.834   5.946  18.575
18917SOL     OW58757   1.865   5.750   3.523
18917SOL    HW158758   1.846   5.717   3.435
18917SOL    HW258759  24.040   5.752  -7.512
18918SOL     OW58760   5.948   3.354   6.064
18918SOL    HW158761  -5.015   3.324   6.113
18918SOL    HW258762   5.985 -18.685   5.985
18919SOL     OW58763  10.308   6.324   6.083
18919SOL    HW158764  10.283   6.416   6.080
18919SOL    HW258765 -11.703   6.316  28.095
18920SOL     OW58766   9.574   3.064   8.818
18920SOL    HW158767   9.637  14.034   8.838
18920SOL    HW258768   9.595   3.090   8.728
18921SOL     OW58769   4.707   1.981   8.677
18921SOL    HW158770  37.735   2.009  19.721
18921SOL    HW258771  15.759  -9.115  19.792
18922SOL     OW58772   0.998   7.942   8.118
18922SOL    HW158773   1.052   7.869   8.150
18922SOL    HW258774   1.046  -3.019   8.142
18923SOL     OW58775   3.407   3.615   6.208
18923SOL    HW158776  36.496   3.694   6.254
18923SOL    HW258777   3.477   3.580   6.263
18924SOL     OW58778   6.226   3.324   4.909
18924SOL    HW158779   6.243   3.416   4.893
18924SOL    HW258780   6.137 -18.758  38.061
18925SOL     OW58781   6.689  -0.696   8.556
18925SOL    HW158782  17.655  43.453   8.616
18925SOL    HW258783  -4.306  10.423   8.585
18926SOL     OW58784   5.607   0.049   5.657
18926SOL    HW158785   5.684  11.103  -5.438
18926SOL    HW258786   5.643   0.018  16.780
18927SOL     OW58787   8.052  10.307   8.059
18927SOL    HW158788  19.005  10.268  -2.970
18927SOL    HW258789  30.131  10.342   7.969
18928SOL     OW58790   7.869   2.003   1.595
18928SOL    HW158791   7.954   2.014   1.639
18928SOL    HW258792   7.879   2.050   1.512
18929SOL     OW58793  10.891   0.137   7.033
18929SOL    HW158794  -0.168   0.117   6.941
18929SOL    HW258795  -0.162   0.231   7.041
18930SOL     OW58796   5.689   4.096   6.999
18930SOL    HW158797  -5.323   4.164  17.977
18930SOL    HW258798   5.606   4.064   6.964
18931SOL     OW58799   0.435   7.826   3.200
18931SOL    HW158800 -10.640   7.860   3.282
18931SOL    HW258801  22.598   7.871  14.229
18932SOL     OW58802   1.203   2.789   6.439
18932SOL    HW158803   1.217   2.883  17.465
18932SOL    HW258804   1.210  13.817  -4.506
18933SOL     OW58805  10.110   4.307   2.608
18933SOL    HW158806  21.172  -6.796  -8.363
18933SOL    HW258807  -1.025  -6.725   2.613
18934SOL     OW58808   5.157   3.772   7.275
18934SOL    HW158809  16.162   3.856   7.305
18934SOL    HW258810   5.250   3.775  -3.744
18935SOL     OW58811   5.229   0.718   4.166
18935SOL    HW158812   5.312  22.764   4.198
18935SOL    HW258813  -5.817  22.766   4.075
18936SOL     OW58814   7.466  10.980   8.655
18936SOL    HW158815  40.636  11.061   8.662
18936SOL    HW258816   7.448  10.972   8.561
18937SOL     OW58817   0.003   6.784   1.816
18937SOL    HW158818   0.010   6.807  -9.131
18937SOL    HW258819  10.978  17.753   1.814
18938SOL     OW58820   7.335   1.818   8.008
18938SOL    HW158821  29.461  12.833   8.087
18938SOL    HW258822  29.384   1.907  -3.015
18939SOL     OW58823   3.865   9.275   6.401
18939SOL    HW158824 -29.189  -1.717   6.348
18939SOL    HW258825  -7.128   9.257   6.483
18940SOL     OW58826   4.521   7.942   5.602
18940SOL    HW158827   4.484   7.854   5.609
18940SOL    HW258828   4.471 -25.125   5.665
18941SOL     OW58829   0.613   6.855   8.029
18941SOL    HW158830   0.640   6.941   8.062
18941SOL    HW258831   0.666   6.792   8.078
18942SOL     OW58832   2.167  11.074   3.978
18942SOL    HW158833   2.116 -11.044  -6.991
18942SOL    HW258834   2.157  11.169   3.992
18943SOL     OW58835   2.574   4.943   6.846
18943SOL    HW158836   2.501  27.083  50.994
18943SOL    HW258837   2.560  15.941   6.931
18944SOL     OW58838  10.267  10.987   2.381
18944SOL    HW158839  10.193  10.996   2.441
18944SOL    HW258840  -0.745  -0.144  13.430
18945SOL     OW58841  10.067   5.945   9.510
18945SOL    HW158842   9.995   5.919   9.568
18945SOL    HW258843  10.029   6.012   9.454
18946SOL     OW58844   8.218   3.169   5.898
18946SOL    HW158845   8.175   3.084  -5.155
18946SOL    HW258846   8.238   3.172   5.991
18947SOL     OW58847   5.635   4.122   3.495
18947SOL    HW158848   5.649  26.114   3.532
18947SOL    HW258849   5.688   4.123   3.415
18948SOL     OW58850   3.518   3.582   7.175
18948SOL    HW158851   3.535  -7.370 -14.938
18948SOL    HW258852   3.529   3.590   7.270
18949SOL     OW58853   8.325   2.246   0.560
18949SOL    HW158854   8.339   2.184  22.567
18949SOL    HW258855   8.231   2.250   0.572
18950SOL     OW58856   7.341   8.637   9.474
18950SOL    HW158857   7.416   8.579   9.463
18950SOL    HW258858   7.337   8.688  -1.647
18951SOL     OW58859   9.651  -0.795   1.641
18951SOL    HW158860  20.762  21.314   1.584
18951SOL    HW258861   9.695  21.256   1.721
18952SOL     OW58862   6.210   7.414   6.833
18952SOL    HW158863  17.284   7.400   6.921
18952SOL    HW258864   6.157  29.415  28.895
18953SOL     OW58865   7.618   9.484   5.201
18953SOL    HW158866  29.704   9.425 -16.803
18953SOL    HW258867   7.689 -23.571  27.292
18954SOL     OW58868   7.277   5.903   2.722
18954SOL    HW158869   7.371   5.888  -8.321
18954SOL    HW258870  -3.795   5.873  24.716
18955SOL     OW58871  10.266   8.260   3.009
18955SOL    HW158872  10.237   8.282   3.098
18955SOL    HW258873  10.278  19.384   2.966
18956SOL     OW58874   7.361   8.418  10.250
18956SOL    HW158875  18.388   8.495  10.305
18956SOL    HW258876   7.404   8.354  10.306
18957SOL     OW58877   1.852   7.670  -0.166
18957SOL    HW158878   1.921   7.697  -0.225
18957SOL    HW258879   1.833   7.748  10.926
18958SOL     OW58880   7.919   5.388   8.679
18958SOL    HW158881   7.869   5.462   8.642
18958SOL    HW258882   7.875   5.310   8.645
18959SOL     OW58883   4.694   5.408   3.003
18959SOL    HW158884   4.774   5.443  14.082
18959SOL    HW258885   4.656   5.352   3.071
18960SOL     OW58886   2.138   2.760   0.697
18960SOL    HW158887  35.281   2.806   0.617
18960SOL    HW258888   2.141  13.866 -10.274
18961SOL     OW58889   6.957   1.243   5.363
18961SOL    HW158890  40.073  34.457  16.413
18961SOL    HW258891 -15.210   1.219   5.335
18962SOL     OW58892   1.080   5.420  10.746
18962SOL    HW158893   1.086   5.366  10.825
18962SOL    HW258894   1.024  16.533  10.772
18963SOL     OW58895   7.239   5.999   0.394
18963SOL    HW158896  -3.847   6.048   0.462
18963SOL    HW258897   7.185   5.921   0.380
18964SOL     OW58898   8.103   3.710   6.592
18964SOL    HW158899   8.187   3.756  28.664
18964SOL    HW258900   8.043  -7.263   6.624
18965SOL     OW58901   9.446   8.137   9.774
18965SOL    HW158902   9.467  -2.963   9.702
18965SOL    HW258903 -12.621   8.085  31.932
18966SOL     OW58904   4.266   1.673  10.282
18966SOL    HW158905 -39.869   1.618  10.356
18966SOL    HW258906  26.250   1.665  -0.765
18967SOL     OW58907   9.785   6.052   9.053
18967SOL    HW158908 -12.257   5.985   8.995
18967SOL    HW258909  31.787   6.084   9.006
18968SOL     OW58910   9.931  10.370   3.666
18968SOL    HW158911   9.960  10.455   3.697
18968SOL    HW258912   9.907  10.384  14.614
18969SOL     OW58913   3.875  10.186  10.849
18969SOL    HW158914   3.838 -11.915  10.934
18969SOL    HW258915  -7.174  10.107  10.797
18970SOL     OW58916   8.811  10.042   5.387
18970SOL    HW158917   8.770  10.121   5.353
18970SOL    HW258918   8.742  -1.041  27.516
18971SOL     OW58919   3.346   6.443   2.975
18971SOL    HW158920   3.251  17.493   2.964
18971SOL    HW258921   3.369   6.370  13.957
18972SOL     OW58922   7.942   9.894   7.684
18972SOL    HW158923  18.903   9.840  18.724
18972SOL    HW258924   8.006   9.844  29.814
18973SOL     OW58925   4.949   9.484   6.555
18973SOL    HW158926   4.902   9.516   6.478
18973SOL    HW258927   4.893   9.508   6.629
18974SOL     OW58928   8.218  10.616   2.589
18974SOL    HW158929   8.165  -0.501   2.570
18974SOL    HW258930  19.342  10.581  -8.423
18975SOL     OW58931   7.767   1.841   9.534
18975SOL    HW158932   7.710   1.764  -1.508
18975SOL    HW258933   7.766   1.869   9.625
18976SOL     OW58934   4.188   8.471  10.067
18976SOL    HW158935   4.256   8.538  10.075
18976SOL    HW258936   4.107   8.520  10.053
18977SOL     OW58937   3.588   7.660   2.775
18977SOL    HW158938   3.666  -3.393  35.840
18977SOL    HW258939   3.515  -3.402   2.717
18978SOL     OW58940   0.630   9.806   3.800
18978SOL    HW158941   0.556   9.856  -7.204
18978SOL    HW258942   0.699   9.872   3.788
18979SOL     OW58943  -1.215   0.227   0.099
18979SOL    HW158944  20.851   0.316   0.133
18979SOL    HW258945  -1.137  11.234  11.184
18980SOL     OW58946   0.209   0.014   9.763
18980SOL    HW158947   0.253   0.060  20.874
18980SOL    HW258948   0.264  -0.062   9.745
18981SOL     OW58949  10.416   7.150   0.416
18981SOL    HW158950  10.464  18.132   0.356
18981SOL    HW258951  10.337   7.102   0.438
18982SOL     OW58952   6.000   8.504   6.841
18982SOL    HW158953  39.208   8.479   6.864
18982SOL    HW258954   6.008   8.595   6.809
18983SOL     OW58955   7.040  11.093   9.565
18983SOL    HW158956   7.078 -10.919  20.549
18983SOL    HW258957   7.106  11.023   9.566
18984SOL     OW58958   2.723   0.494   3.653
18984SOL    HW158959   2.732 -10.625  14.639
18984SOL    HW258960   2.647  22.556  14.748
18985SOL     OW58961   5.946   8.640   2.017
18985SOL    HW158962  -5.155  -2.409   2.090
18985SOL    HW258963 -38.207   8.734   2.001
18986SOL     OW58964   2.265   8.545   4.801
18986SOL    HW158965  13.372  19.632   4.752
18986SOL    HW258966   2.198   8.611  48.979
18987SOL     OW58967   5.877   9.772   4.404
18987SOL    HW158968   5.823   9.818   4.340
18987SOL    HW258969  -5.077  -1.276   4.361
18988SOL     OW58970   4.479   6.731   2.744
18988SOL    HW158971 -17.603   6.653  -8.240
18988SOL    HW258972   4.525   6.797   2.796
18989SOL     OW58973   5.628   9.998   8.357
18989SOL    HW158974   5.710 -12.105   8.400
18989SOL    HW258975  16.692  10.068 -13.783
18990SOL     OW58976   4.818   2.020   4.218
18990SOL    HW158977  15.892   1.951   4.161
18990SOL    HW258978  26.935   2.101   4.184
18991SOL     OW58979   8.170   3.215   8.678
18991SOL    HW158980   8.262   3.188   8.682
18991SOL    HW258981   8.170  14.330   8.620
18992SOL     OW58982   9.170  -0.794   5.082
18992SOL    HW158983 -24.043  10.228   5.088
18992SOL    HW258984  -1.848  10.292  27.241
18993SOL     OW58985   3.875   8.915   8.994
18993SOL    HW158986  37.066   8.977  20.025
18993SOL    HW258987   3.825   8.948  31.147
18994SOL     OW58988   6.963   2.135   7.574
18994SOL    HW158989   7.045   2.177  18.590
18994SOL    HW258990   6.983   2.088   7.655
18995SOL     OW58991   0.661   3.824   9.764
18995SOL    HW158992  33.775   3.731   9.788
18995SOL    HW258993   0.572  36.966  31.820
18996SOL     OW58994   2.809  10.270   5.762
18996SOL    HW158995  -8.257  10.179   5.776
18996SOL    HW258996   2.860  10.292   5.839
18997SOL     OW58997   7.883   1.042   3.497
18997SOL    HW158998   7.794  23.146   3.472
18997SOL    HW258999   7.889   0.949   3.475
18998SOL     OW59000   5.197   5.064   7.146
18998SOL    HW159001   5.254   5.099   7.214
18998SOL    HW259002   5.226  16.013   7.133
18999SOL     OW59003   7.023   3.228  10.915
18999SOL    HW159004 -15.138   3.189  10.945
18999SOL    HW259005   7.012   3.322  10.932
19000SOL     OW59006   9.902   1.534   8.479
19000SOL    HW159007  20.991  12.620   8.412
19000SOL    HW259008   9.968  12.519   8.524
19001SOL     OW59009   0.460   3.211  -0.632
19001SOL    HW159010  11.526   3.143  -0.694
19001SOL    HW259011   0.416   3.277  21.394
19002SOL     OW59012   0.521   4.863   6.186
19002SOL    HW159013   0.481  -6.225   6.258
19002SOL    HW259014   0.474   4.947   6.185
19003SOL     OW59015   5.269   0.010   8.367
19003SOL    HW159016   5.216  -0.005   8.288
19003SOL    HW259017   5.357  11.024   8.342
19004SOL     OW59018   8.538   2.765   4.467
19004SOL    HW159019  -2.593  -8.246   4.473
19004SOL    HW259020   8.588   2.846  -6.578
19005SOL     OW59021   5.440   0.402   5.989
19005SOL    HW159022   5.521   0.351  28.063
19005SOL    HW259023   5.467   0.492   5.971
19006SOL     OW59024   2.802   0.389  10.865
19006SOL    HW159025  13.914   0.371  -0.114
19006SOL    HW259026   2.770   0.475  21.931
19007SOL     OW59027   9.549   3.418   1.990
19007SOL    HW159028  -1.454   3.364   1.919
19007SOL    HW259029   9.621   3.429   2.051
19008SOL     OW59030   6.443   3.294   7.928
19008SOL    HW159031   6.491   3.375   7.911
19008SOL    HW259032   6.408   3.305   8.016
19009SOL     OW59033   7.068   0.266   2.939
19009SOL    HW159034 -14.935   0.318   2.914
19009SOL    HW259035  29.111   0.312   3.015
19010SOL     OW59036  11.219  10.946   7.452
19010SOL    HW159037  11.132  21.997   7.413
19010SOL    HW259038 -10.813  -0.013  -3.609
19011SOL     OW59039   0.213   5.498   7.423
19011SOL    HW159040   0.161   5.419  29.487
19011SOL    HW259041   0.171 -16.515  18.407
19012SOL     OW59042   6.141   6.906  -0.897
19012SOL    HW159043   6.232   6.890  -0.872
19012SOL    HW259044  -4.932   6.820  21.155
19013SOL     OW59045   4.745   4.211   0.530
19013SOL    HW159046 -28.301  -6.891  11.568
19013SOL    HW259047   4.780   4.287   0.577
19014SOL     OW59048   9.577  10.466   7.685
19014SOL    HW159049  -1.387  10.524   7.687
19014SOL    HW259050   9.615  10.378   7.687
19015SOL     OW59051   7.578   8.903   0.429
19015SOL    HW159052   7.548   8.977   0.482
19015SOL    HW259053   7.593  41.951   0.492
19016SOL     OW59054   4.543  10.155   5.700
19016SOL    HW159055   4.506  10.174   5.786
19016SOL    HW259056   4.470  10.123   5.648
19017SOL     OW59057   7.371   8.195   7.821
19017SOL    HW159058   7.379   8.289   7.837
19017SOL    HW259059  40.539  -2.859  18.779
19018SOL     OW59060   2.078   8.807   4.815
19018SOL    HW159061   2.102   8.899   4.816
19018SOL    HW259062   2.025   8.797   4.736
19019SOL     OW59063   0.289   6.462   7.489
19019SOL    HW159064  11.375  28.476   7.435
19019SOL    HW259065  11.390  17.523   7.559
19020SOL     OW59066   9.923   8.936   6.768
19020SOL    HW159067  -1.095   8.896  17.891
19020SOL    HW259068  -1.032   8.948   6.724
19021SOL     OW59069   7.025   5.638   0.902
19021SOL    HW159070   6.997   5.639   0.810
19021SOL    HW259071   7.038   5.546   0.921
19022SOL     OW59072  10.342   5.566   6.802
19022SOL    HW159073  10.426   5.521   6.790
19022SOL    HW259074  10.340   5.630   6.731
19023SOL     OW59075   3.284   2.328   2.834
19023SOL    HW159076  47.380  13.311   2.880
19023SOL    HW259077   3.231   2.377   2.772
19024SOL     OW59078   7.308   4.150   5.759
19024SOL    HW159079  -3.809  -6.836   5.774
19024SOL    HW259080 -14.725   4.193   5.687
19025SOL     OW59081   4.306   4.439  10.059
19025SOL    HW159082  -6.773   4.493   9.991
19025SOL    HW259083   4.350 -28.617  10.117
19026SOL     OW59084  12.044   4.803   6.223
19026SOL    HW159085  12.028   4.718   6.182
19026SOL    HW259086 -21.070   4.865  28.230
19027SOL     OW59087   1.965  10.507   1.301
19027SOL    HW159088  12.939  10.565  12.303
19027SOL    HW259089  68.153  10.447   1.357
19028SOL     OW59090   6.994   1.974   7.819
19028SOL    HW159091  17.986   1.919   7.881
19028SOL    HW259092   7.070   2.005  -3.172
19029SOL     OW59093   2.802   5.233   5.092
19029SOL    HW159094   2.853   5.221   5.012
19029SOL    HW259095  13.856   5.324  -5.923
19030SOL     OW59096   5.922   3.754   1.935
19030SOL    HW159097  39.089   3.831   1.965
19030SOL    HW259098   5.931   3.691  13.046
19031SOL     OW59099  10.407   3.340   5.416
19031SOL    HW159100  21.368   3.310   5.461
19031SOL    HW259101  10.419  25.357   5.345
19032SOL     OW59102   3.664   9.495   7.825
19032SOL    HW159103   3.609  -1.467  -3.211
19032SOL    HW259104   3.640   9.452   7.743
19033SOL     OW59105  10.362   4.214   5.858
19033SOL    HW159106  10.361   4.127   5.820
19033SOL    HW259107  10.443  37.373   5.825
19034SOL     OW59108   0.367   6.116   1.398
19034SOL    HW159109   0.292   6.135  12.381
19034SOL    HW259110   0.354  28.254   1.473
19035SOL     OW59111   5.244   2.819   3.716
19035SOL    HW159112   5.257   2.724   3.718
19035SOL    HW259113   5.175  -8.205   3.780
19036SOL     OW59114   5.846   6.207   8.698
19036SOL    HW159115   5.790   6.216   8.775
19036SOL    HW259116   5.931   6.239   8.726
19037SOL     OW59117  10.258  10.157   9.338
19037SOL    HW159118 -11.818  -0.944   9.410
19037SOL    HW259119  10.284 -23.013  -1.778
19038SOL     OW59120   1.522  10.667   8.628
19038SOL    HW159121   1.597  10.702   8.579
19038SOL    HW259122 -20.606  10.745  19.694
19039SOL     OW59123  10.719   3.369   4.647
19039SOL    HW159124  10.759   3.456 -17.433
19039SOL    HW259125  -0.276   3.323   4.717
19040SOL     OW59126  10.459   1.938   1.316
19040SOL    HW159127  10.378  24.066  -9.711
19040SOL    HW259128  -0.515   2.004   1.292
19041SOL     OW59129   5.273   7.611   9.586
19041SOL    HW159130   5.224   7.684   9.624
19041SOL    HW259131   5.362   7.643  20.618
19042SOL     OW59132  10.453   6.160   5.904
19042SOL    HW159133  10.385   6.106  -5.175
19042SOL    HW259134  -0.507  -4.903   5.855
19043SOL     OW59135   4.395   1.351   8.220
19043SOL    HW159136   4.358   1.372  52.464
19043SOL    HW259137  15.360   1.354   8.160
19044SOL     OW59138   1.568   2.534   4.777
19044SOL    HW159139   1.571   2.630  26.853
19044SOL    HW259140   1.475   2.513   4.777
19045SOL     OW59141   8.956   4.883   6.679
19045SOL    HW159142   9.018   4.915   6.614
19045SOL    HW259143 -13.163 -17.274   6.639
19046SOL     OW59144   1.832   3.211  11.051
19046SOL    HW159145  23.827  14.264  -0.032
19046SOL    HW259146  23.922   3.287 -10.972
19047SOL     OW59147   1.942   3.471   6.616
19047SOL    HW159148  24.077   3.431   6.549
19047SOL    HW259149   1.882  14.567   6.568
19048SOL     OW59150   4.726   6.206   0.783
19048SOL    HW159151  -6.317  39.395   0.848
19048SOL    HW259152   4.812 -15.864  11.782
19049SOL     OW59153   3.254   1.086   6.307
19049SOL    HW159154   3.216 -10.040 -15.756
19049SOL    HW259155   3.306   1.075  -4.812
19050SOL     OW59156   4.853   5.025   0.177
19050SOL    HW159157   4.768   5.068   0.169
19050SOL    HW259158   4.864   4.977  22.175
19051SOL     OW59159   7.887   0.722   6.910
19051SOL    HW159160  18.910 -10.235   6.863
19051SOL    HW259161   7.804   0.701   6.951
19052SOL     OW59162   8.898   4.023   2.188
19052SOL    HW159163   8.876   4.035  13.320
19052SOL    HW259164  20.031  26.083  13.227
19053SOL     OW59165   6.788  11.235  10.180
19053SOL    HW159166   6.798  11.146  10.144
19053SOL    HW259167   6.695   0.216  10.166
19054SOL     OW59168   2.396   7.263   9.147
19054SOL    HW159169  -8.686  -3.693   9.127
19054SOL    HW259170   2.325  29.285  20.216
19055SOL     OW59171   8.382   0.646   5.925
19055SOL    HW159172 -13.650  11.617   5.972
19055SOL    HW259173   8.312   0.600   5.880
19056SOL     OW59174   1.747   2.202  10.001
19056SOL    HW159175  12.840   2.157 -34.222
19056SOL    HW259176   1.795   2.195  -0.956
19057SOL     OW59177   9.318   7.573   9.707
19057SOL    HW159178   9.238   7.557  31.837
19057SOL    HW259179  31.388   7.518   9.630
19058SOL     OW59180   5.503   3.655   9.365
19058SOL    HW159181  -5.583  14.633   9.421
19058SOL    HW259182 -27.529   3.664   9.405
19059SOL     OW59183   7.195   8.417   7.291
19059SOL    HW159184  -3.930   8.403  29.330
19059SOL    HW259185  29.297   8.332  18.368
19060SOL     OW59186   7.165   0.635   4.309
19060SOL    HW159187   7.243   0.667  -6.685
19060SOL    HW259188   7.198   0.577 -17.838
19061SOL     OW59189   3.519   5.694   6.512
19061SOL    HW159190   3.469   5.623   6.472
19061SOL    HW259191   3.464   5.725  28.663
19062SOL     OW59192   0.554   4.045   2.720
19062SOL    HW159193   0.533   4.061   2.812
19062SOL    HW259194   0.476   4.004   2.683
19063SOL     OW59195   8.059   9.705   5.699
19063SOL    HW159196   8.016  20.786   5.624
19063SOL    HW259197   8.077   9.615   5.670
19064SOL     OW59198   4.182   8.445   6.210
19064SOL    HW159199   4.138  -2.636  28.215
19064SOL    HW259200   4.201 -13.545   6.180
19065SOL     OW59201  -0.500   9.435   0.037
19065SOL    HW159202  10.604  20.524   0.086
19065SOL    HW259203  -0.584   9.479   0.056
19066SOL     OW59204   9.066   7.510   8.575
19066SOL    HW159205 -35.179   7.491   8.612
19066SOL    HW259206 -24.058   7.479   8.484
19067SOL     OW59207   8.690   1.746   5.972
19067SOL    HW159208   8.780   1.714   5.964
19067SOL    HW259209   8.662   1.716  28.138
19068SOL     OW59210   1.621   4.343   0.899
19068SOL    HW159211   1.583  -6.608 -10.139
19068SOL    HW259212   1.581   4.300   0.975
19069SOL     OW59213  10.195   2.722  10.431
19069SOL    HW159214  10.269   2.775  10.402
19069SOL    HW259215  10.137   2.785  -0.565
19070SOL     OW59216  11.571   2.033   5.501
19070SOL    HW159217  11.527   2.116   5.483
19070SOL    HW259218   0.546   2.034 -16.483
19071SOL     OW59219   3.715  10.857   6.963
19071SOL    HW159220   3.713  10.930   7.025
19071SOL    HW259221  14.720  10.893   6.881
19072SOL     OW59222   2.404   1.538  10.974
19072SOL    HW159223  13.514   1.480  11.004
19072SOL    HW259224   2.404   1.529  10.879
19073SOL     OW59225   8.126   5.945   9.695
19073SOL    HW159226   8.201   5.954  -1.285
19073SOL    HW259227   8.053   5.987  20.781
19074SOL     OW59228   6.987   3.443   5.505
19074SOL    HW159229   6.929   3.380   5.548
19074SOL    HW259230   7.043   3.476  27.655
19075SOL     OW59231  10.347   4.930   8.543
19075SOL    HW159232  10.317   5.009 -24.620
19075SOL    HW259233  10.286  -6.121   8.616
19076SOL     OW59234   8.778   3.100   5.593
19076SOL    HW159235   8.776  -7.940  -5.351
19076SOL    HW259236   8.736  14.058   5.568
19077SOL     OW59237   0.621   6.940   0.504
19077SOL    HW159238   0.538   6.947   0.552
19077SOL    HW259239   0.686   6.980   0.561
19078SOL     OW59240  10.188   4.846   1.218
19078SOL    HW159241  10.131   4.858   1.142
19078SOL    HW259242  10.186  15.791   1.234
19079SOL     OW59243   2.734   8.807   5.942
19079SOL    HW159244   2.727   8.726   5.993
19079SOL    HW259245  13.743  19.823   5.855
19080SOL     OW59246   8.352   3.363   2.634
19080SOL    HW159247  19.473   3.400   2.667
19080SOL    HW259248  19.386   3.395   2.544
19081SOL     OW59249   2.535   7.268   2.672
19081SOL    HW159250   2.559  18.220   2.640
19081SOL    HW259251 -19.557   7.256  24.846
19082SOL     OW59252   3.367   5.510   4.468
19082SOL    HW159253   3.297   5.567 -17.581
19082SOL    HW259254   3.330   5.422   4.472
19083SOL     OW59255   3.784   9.926   2.780
19083SOL    HW159256   3.716  -1.070  13.769
19083SOL    HW259257   3.742  20.888  35.935
19084SOL     OW59258   1.120   8.678   4.679
19084SOL    HW159259   1.202   8.719   4.651
19084SOL    HW259260  12.129   8.629   4.603
19085SOL     OW59261   6.637   1.731  10.987
19085SOL    HW159262   6.621  -9.399  -0.025
19085SOL    HW259263   6.712  -9.315  10.927
19086SOL     OW59264   0.769   5.767   5.531
19086SOL    HW159265  11.900   5.792   5.542
19086SOL    HW259266  11.765  16.839   5.610
19087SOL     OW59267   3.095   8.079   1.241
19087SOL    HW159268   3.103   7.986   1.219
19087SOL    HW259269  14.064   8.082  23.385
19088SOL     OW59270   6.984   5.550   2.537
19088SOL    HW159271   7.064 -16.495   2.496
19088SOL    HW259272   6.977   5.597   2.620
19089SOL     OW59273   3.667   8.946  12.425
19089SOL    HW159274   3.593   8.990  12.468
19089SOL    HW259275   3.632  30.941 -20.723
19090SOL     OW59276   2.987   7.035   8.090
19090SOL    HW159277   2.958   7.070 -35.984
19090SOL    HW259278   3.044   7.103   8.054
19091SOL     OW59279   3.551   3.972   2.743
19091SOL    HW159280   3.487   3.989   2.811
19091SOL    HW259281   3.612  14.949   2.782
19092SOL     OW59282   9.006   6.382   5.817
19092SOL    HW159283   9.016   6.381   5.722
19092SOL    HW259284   9.021   6.473   5.842
19093SOL     OW59285   5.425   4.318   7.685
19093SOL    HW159286  16.549   4.331   7.727
19093SOL    HW259287   5.416   4.223 -14.401
19094SOL     OW59288   4.172   8.512   3.439
19094SOL    HW159289   4.245   8.570   3.413
19094SOL    HW259290   4.094   8.565 -29.696
19095SOL     OW59291   9.587   7.857   0.612
19095SOL    HW159292  31.626   7.878   0.528
19095SOL    HW259293  -1.509   7.789   0.649
19096SOL     OW59294   2.085   8.417   1.082
19096SOL    HW159295  13.032   8.411  23.136
19096SOL    HW259296   2.094   8.354  -9.886
19097SOL     OW59297   1.543   4.558  10.637
19097SOL    HW159298  12.643   4.544  -0.475
19097SOL    HW259299   1.496   4.475  10.646
19098SOL     OW59300  -0.242   3.317   8.247
19098SOL    HW159301  10.750 -18.832   8.293
19098SOL    HW259302  -0.165  -7.706   8.303
19099SOL     OW59303   1.919   5.914   2.397
19099SOL    HW159304 -20.159   5.897   2.303
19099SOL    HW259305  -9.205 -16.199  13.466
19100SOL     OW59306   6.996   5.116   2.417
19100SOL    HW159307   6.909   5.075  13.450
19100SOL    HW259308   7.043  16.101   2.480
19101SOL     OW59309   8.820  11.050   7.220
19101SOL    HW159310  19.805 -22.023 -14.794
19101SOL    HW259311  30.925  11.118   7.158
19102SOL     OW59312   9.937   6.082   2.371
19102SOL    HW159313   9.929   5.993 -19.742
19102SOL    HW259314   9.992  17.167   2.307
19103SOL     OW59315   8.035   3.430   6.606
19103SOL    HW159316   8.063  25.597   6.579
19103SOL    HW259317   7.956   3.414 -15.524
19104SOL     OW59318   7.516   8.065   5.111
19104SOL    HW159319   7.514   8.039   5.203
19104SOL    HW259320 -14.514   7.996  16.107
19105SOL     OW59321   9.426   9.164  12.579
19105SOL    HW159322   9.422  -1.805 -20.605
19105SOL    HW259323   9.466 -12.989  12.532
19106SOL     OW59324  10.685   0.824   2.067
19106SOL    HW159325  10.593   0.798   2.074
19106SOL    HW259326  -0.357   0.906   2.017
19107SOL     OW59327   1.813   5.635   7.303
19107SOL    HW159328   1.892   5.679  18.311
19107SOL    HW259329   1.752  27.719   7.229
19108SOL     OW59330  -2.157   6.998   2.721
19108SOL    HW159331  19.958   6.992  -8.230
19108SOL    HW259332  19.953   7.083   2.688
19109SOL     OW59333   7.461   4.394   9.980
19109SOL    HW159334   7.449   4.319  10.038
19109SOL    HW259335   7.536   4.441  10.017
19110SOL     OW59336   1.600   0.121   5.653
19110SOL    HW159337   1.651   0.119   5.573
19110SOL    HW259338   1.513   0.091  27.706
19111SOL     OW59339   7.946   6.346   5.472
19111SOL    HW159340   7.859   6.329 -27.611
19111SOL    HW259341  18.988   6.297   5.390
19112SOL     OW59342   2.849   9.884   8.222
19112SOL    HW159343   2.883   9.903   8.135
19112SOL    HW259344   2.926   9.888   8.279
19113SOL     OW59345  10.765   2.382   1.231
19113SOL    HW159346  10.800  -8.578   1.191
19113SOL    HW259347  10.833   2.356   1.294
19114SOL     OW59348   5.189   3.531   5.264
19114SOL    HW159349   5.224  47.611   5.307
19114SOL    HW259350   5.266  25.655 -16.850
19115SOL     OW59351   8.061   8.183   7.030
19115SOL    HW159352  -3.046   8.123  -4.042
19115SOL    HW259353   8.025   8.217   7.113
19116SOL     OW59354   2.673   3.884   4.546
19116SOL    HW159355   2.747   3.833   4.577
19116SOL    HW259356   2.615   3.891   4.622
19117SOL     OW59357   8.857  -0.049   3.299
19117SOL    HW159358   8.899  -0.017   3.219
19117SOL    HW259359  19.818  11.044   3.307
19118SOL     OW59360   1.082   3.637   0.180
19118SOL    HW159361 -10.018   3.614 -10.930
19118SOL    HW259362   1.152   3.573  11.213
19119SOL     OW59363   1.976   2.129   5.584
19119SOL    HW159364   2.052  -8.951   5.543
19119SOL    HW259365  13.008   2.086   5.669
19120SOL     OW59366   9.858   4.976   6.752
19120SOL    HW159367  -1.259   5.006   6.704
19120SOL    HW259368   9.837   4.887  28.859
19121SOL     OW59369   3.405   4.448   0.548
19121SOL    HW159370   3.425   4.455   0.641
19121SOL    HW259371   3.363   4.362   0.539
19122SOL     OW59372   4.796   6.813   1.405
19122SOL    HW159373   4.745   6.894   1.412
19122SOL    HW259374   4.770   6.761   1.480
19123SOL     OW59375   0.594   2.955   0.801
19123SOL    HW159376   0.520   2.918  11.792
19123SOL    HW259377   0.633 -30.101   0.741
19124SOL     OW59378   9.689   4.436   5.743
19124SOL    HW159379  20.734  -6.669  -5.366
19124SOL    HW259380   9.761   4.414  27.882
19125SOL     OW59381   0.237   8.996   9.838
19125SOL    HW159382   0.280   9.059 -12.299
19125SOL    HW259383  11.184   9.020   9.834
19126SOL     OW59384   5.882   0.019   3.000
19126SOL    HW159385  -5.194   0.062   3.078
19126SOL    HW259386   5.843  33.051   3.000
19127SOL     OW59387  -0.240   2.536   7.210
19127SOL    HW159388  -0.205  13.661  18.275
19127SOL    HW259389  43.995   2.483   7.188
19128SOL     OW59390   1.908  10.368   0.214
19128SOL    HW159391  35.056  10.345   0.127
19128SOL    HW259392  12.961  10.463   0.220
19129SOL     OW59393   8.260   6.472   4.824
19129SOL    HW159394 -13.842   6.402   4.886
19129SOL    HW259395 -24.941   6.519  26.889
19130SOL     OW59396   6.861  -0.344   8.919
19130SOL    HW159397   6.797  32.739   8.981
19130SOL    HW259398  29.004  10.742   8.973
19131SOL     OW59399   2.231   8.152  10.353
19131SOL    HW159400   2.249   8.060  -0.664
19131SOL    HW259401 -19.891   8.188  21.470
19132SOL     OW59402   4.533   7.042   7.977
19132SOL    HW159403  -6.521   7.010   7.888
19132SOL    HW259404  15.664   7.072  -3.062
19133SOL     OW59405   7.100   0.969   7.425
19133SOL    HW159406   7.110   0.926   7.510
19133SOL    HW259407  -4.032   0.991   7.419
19134SOL     OW59408   0.843   0.306   5.696
19134SOL    HW159409  11.952   0.281  -5.405
19134SOL    HW259410   0.830   0.228   5.750
19135SOL     OW59411   9.862   9.227   6.585
19135SOL    HW159412   9.856   9.147  -4.505
19135SOL    HW259413   9.954   9.236  -4.433
19136SOL     OW59414   1.716   3.697   2.416
19136SOL    HW159415 -20.386   3.768   2.476
19136SOL    HW259416   1.640  14.726   2.360
19137SOL     OW59417   1.424   9.618   9.294
19137SOL    HW159418  12.369   9.638   9.293
19137SOL    HW259419   1.458   9.671   9.366
19138SOL     OW59420   7.618   9.667   3.046
19138SOL    HW159421   7.689  -1.355   3.108
19138SOL    HW259422   7.572  -1.289  25.118
19139SOL     OW59423   6.589   2.109  10.697
19139SOL    HW159424  -4.434   2.192  10.652
19139SOL    HW259425   6.636  -8.923  10.780
19140SOL     OW59426   6.785   3.839  10.872
19140SOL    HW159427   6.702  25.963  10.886
19140SOL    HW259428   6.851  25.977  -0.133
19141SOL     OW59429   5.557   2.169   7.726
19141SOL    HW159430   5.485   2.213  -3.268
19141SOL    HW259431   5.607   2.128 -25.322
19142SOL     OW59432   2.054   9.665   0.182
19142SOL    HW159433   1.981   9.655  11.160
19142SOL    HW259434  -8.980   9.760   0.197
19143SOL     OW59435   3.386  11.004   5.317
19143SOL    HW159436  14.389  10.926  27.354
19143SOL    HW259437   3.477  10.980   5.338
19144SOL     OW59438   7.790   6.220   8.934
19144SOL    HW159439  -3.343  61.421   8.953
19144SOL    HW259440   7.804   6.289   8.869
19145SOL     OW59441   0.971   5.761   6.288
19145SOL    HW159442   1.043   5.705   6.316
19145SOL    HW259443 -10.137   5.746   6.353
19146SOL     OW59444   5.959   5.116  10.824
19146SOL    HW159445   5.896   5.096  -0.146
19146SOL    HW259446   5.923   5.194  21.821
19147SOL     OW59447   7.160   7.799   4.778
19147SOL    HW159448   7.192   7.851  26.784
19147SOL    HW259449   7.229   7.805  26.924
19148SOL     OW59450   2.710   9.711   9.973
19148SOL    HW159451  -8.297   9.791  10.014
19148SOL    HW259452   2.693   9.652  10.046
19149SOL     OW59453   3.870   8.119   0.153
19149SOL    HW159454   3.890   8.182   0.084
19149SOL    HW259455  25.864   8.147   0.187
19150SOL     OW59456   8.051   3.613   2.186
19150SOL    HW159457   8.062   3.629   2.280
19150SOL    HW259458   7.962   3.641   2.167
19151SOL     OW59459   0.686   0.819   4.990
19151SOL    HW159460   0.757   0.853  27.015
19151SOL    HW259461   0.704   0.853   5.078
19152SOL     OW59462   0.711   1.272   4.875
19152SOL    HW159463   0.633 -20.787  -6.113
19152SOL    HW259464   0.772   1.342   4.895
19153SOL     OW59465   2.108   4.399   5.143
19153SOL    HW159466   2.173   4.446   5.196
19153SOL    HW259467   2.128   4.426   5.053
19154SOL     OW59468   4.860  10.793   9.943
19154SOL    HW159469   4.815  10.878   9.944
19154SOL    HW259470  -6.096  10.811   9.900
19155SOL     OW59471   2.387   4.109   1.248
19155SOL    HW159472   2.357   4.048 -20.764
19155SOL    HW259473  -8.701   4.190   1.266
19156SOL     OW59474   3.738   2.277   8.135
19156SOL    HW159475   3.686  13.239  -2.880
19156SOL    HW259476   3.795  -8.748   8.211
19157SOL     OW59477   1.223   0.418   6.270
19157SOL    HW159478   1.164  22.507  17.235
19157SOL    HW259479   1.188   0.344  50.477
19158SOL     OW59480   2.236  11.186   5.954
19158SOL    HW159481   2.221  11.221  27.945
19158SOL    HW259482   2.150 -10.890  28.075
19159SOL     OW59483   2.246  12.328   9.074
19159SOL    HW159484   2.220  -9.758   9.166
19159SOL    HW259485   2.189   1.358  20.078
19160SOL     OW59486   3.959   0.427   2.414
19160SOL    HW159487   3.879   0.423   2.362
19160SOL    HW259488   4.028   0.448   2.351
19161SOL     OW59489   7.258   3.906   2.566
19161SOL    HW159490  29.357   3.994   2.598
19161SOL    HW259491   7.297   3.848   2.632
19162SOL     OW59492   7.113   4.246   7.082
19162SOL    HW159493   7.166   4.185   7.031
19162SOL    HW259494  -3.881   4.330  18.112
19163SOL     OW59495  10.313   1.940   9.827
19163SOL    HW159496  10.297  -9.034   9.895
19163SOL    HW259497  10.299   1.856   9.871
19164SOL     OW59498   2.577   4.426   0.775
19164SOL    HW159499  -8.530   4.443  11.749
19164SOL    HW259500   2.646   4.379  11.767
19165SOL     OW59501   2.415  10.155   7.930
19165SOL    HW159502   2.448  -0.849   7.847
19165SOL    HW259503   2.323  10.138   7.913
19166SOL     OW59504  -0.339   3.180   3.752
19166SOL    HW159505  -0.413   3.214  14.842
19166SOL    HW259506  21.814   3.233   3.782
19167SOL     OW59507   1.936   5.396   7.153
19167SOL    HW159508   1.860   5.445   7.123
19167SOL    HW259509   2.009   5.458   7.145
19168SOL     OW59510   2.117   9.014   5.621
19168SOL    HW159511   2.046   9.025   5.558
19168SOL    HW259512   2.128  -2.121  16.668
19169SOL     OW59513  10.334   1.727   1.947
19169SOL    HW159514  10.302   1.689  12.905
19169SOL    HW259515 -11.654   1.749   1.928
19170SOL     OW59516   7.431   4.640   6.848
19170SOL    HW159517  18.495   4.668  17.799
19170SOL    HW259518   7.475   4.702  -4.134
19171SOL     OW59519   6.306   4.220   3.506
19171SOL    HW159520   6.251   4.293  -7.562
19171SOL    HW259521   6.282  37.267  -7.593
19172SOL     OW59522   2.844  11.100   9.975
19172SOL    HW159523  35.987  11.098  10.068
19172SOL    HW259524   2.756 -33.021   9.975
19173SOL     OW59525   4.790   2.869   4.755
19173SOL    HW159526   4.737   2.942   4.788
19173SOL    HW259527   4.783   2.876   4.660
19174SOL     OW59528   5.884   9.238   1.240
19174SOL    HW159529  -5.206   9.159  12.299
19174SOL    HW259530   5.820   9.302  -9.827
19175SOL     OW59531   6.341   6.558   8.448
19175SOL    HW159532   6.368   6.500  -2.520
19175SOL    HW259533   6.420  39.687   8.394
19176SOL     OW59534   4.659   9.213  10.317
19176SOL    HW159535   4.719   9.152  10.358
19176SOL    HW259536  15.748   9.295 -11.769
19177SOL     OW59537   1.971   7.064   6.742
19177SOL    HW159538  -9.065   6.973   6.714
19177SOL    HW259539   1.939   7.112  -4.374
19178SOL     OW59540   2.521   3.825   6.191
19178SOL    HW159541 -19.524   3.792   6.274
19178SOL    HW259542   2.574   3.782   6.124
19179SOL     OW59543   2.639   5.531   5.382
19179SOL    HW159544  -8.427  16.479   5.381
19179SOL    HW259545   2.678   5.546  27.375
19180SOL     OW59546   7.812   4.037   3.535
19180SOL    HW159547  29.925   4.019  14.663
19180SOL    HW259548   7.752   4.111  36.667
19181SOL     OW59549   1.951   8.970  10.495
19181SOL    HW159550 -20.146   9.042  10.434
19181SOL    HW259551   2.010   9.008  10.560
19182SOL     OW59552   9.318   2.356   8.145
19182SOL    HW159553   9.253   2.288   8.125
19182SOL    HW259554 -23.725   2.334   8.090
19183SOL     OW59555  11.458   2.430   8.664
19183SOL    HW159556  11.418  13.422   8.591
19183SOL    HW259557 -10.582   2.507  30.702
19184SOL     OW59558   4.307   6.439   7.882
19184SOL    HW159559   4.286  -4.519   7.927
19184SOL    HW259560   4.260 -15.634   7.799
19185SOL     OW59561   0.445   5.264   2.133
19185SOL    HW159562   0.422   5.354   2.111
19185SOL    HW259563   0.364   5.215   2.121
19186SOL     OW59564   1.733   0.213   4.205
19186SOL    HW159565   1.753  11.266   4.112
19186SOL    HW259566   1.786   0.278   4.251
19187SOL     OW59567   6.528  11.250   4.834
19187SOL    HW159568  28.610 -10.921   4.861
19187SOL    HW259569  28.515  11.274 -17.237
19188SOL     OW59570  10.564   8.331   9.566
19188SOL    HW159571  10.605  41.530   9.533
19188SOL    HW259572  10.470  -2.691   9.563
19189SOL     OW59573   0.572   0.850   3.205
19189SOL    HW159574  22.644   0.915  -7.764
19189SOL    HW259575   0.515   0.883   3.136
19190SOL     OW59576   9.981   8.397  -0.061
19190SOL    HW159577  20.944   8.453  10.986
19190SOL    HW259578  10.033   8.436  -0.131
19191SOL     OW59579   7.300   4.156   0.494
19191SOL    HW159580   7.372   4.109   0.537
19191SOL    HW259581  29.380   4.243   0.535
19192SOL     OW59582   7.499   8.068  12.167
19192SOL    HW159583   7.519  -2.949 -10.003
19192SOL    HW259584   7.404  -2.958  12.175
19193SOL     OW59585   9.211   5.886   4.653
19193SOL    HW159586   9.185   5.962  -6.336
19193SOL    HW259587   9.298  -5.131   4.619
19194SOL     OW59588   3.729   0.466   4.360
19194SOL    HW159589   3.762   0.380   4.388
19194SOL    HW259590   3.707   0.455   4.268
19195SOL     OW59591   5.691   8.897   4.831
19195SOL    HW159592   5.714   8.805   4.843
19195SOL    HW259593  -5.443  -2.142   4.821
19196SOL     OW59594   7.225   1.494  -0.490
19196SOL    HW159595   7.296   1.484  10.485
19196SOL    HW259596 -14.821   1.560  -0.429
19197SOL     OW59597   8.675   7.099   9.445
19197SOL    HW159598   8.588   7.098  20.524
19197SOL    HW259599   8.699   7.006 -12.641
19198SOL     OW59600   1.884   5.962   8.009
19198SOL    HW159601   1.837  17.057 -14.133
19198SOL    HW259602  -9.224   5.919  19.099
19199SOL     OW59603   5.271  -0.393   6.757
19199SOL    HW159604   5.244  -0.484   6.764
19199SOL    HW259605 -16.887  10.697  -4.261
19200SOL     OW59606   5.455   0.302   8.897
19200SOL    HW159607   5.487   0.220   8.860
19200SOL    HW259608 -16.695   0.276   8.956
19201SOL     OW59609   3.840   9.928   8.900
19201SOL    HW159610   3.889   9.982   8.838
19201SOL    HW259611   3.753   9.969  19.943
19202SOL     OW59612   1.632   9.035   4.055
19202SOL    HW159613   1.639  20.046  15.003
19202SOL    HW259614   1.554  20.129   4.057
19203SOL     OW59615   8.426   8.238   6.836
19203SOL    HW159616   8.485  -2.859   6.884
19203SOL    HW259617   8.355   8.256   6.897
19204SOL     OW59618  10.969   1.594   9.843
19204SOL    HW159619  -0.003 -20.418 -12.222
19204SOL    HW259620 -22.171   1.562  -1.109
19205SOL     OW59621   2.101   9.386   1.242
19205SOL    HW159622 -20.042   9.347   1.182
19205SOL    HW259623  -8.939 -12.750   1.318
19206SOL     OW59624   0.683   3.306   4.065
19206SOL    HW159625   0.752  -7.759  -7.036
19206SOL    HW259626  11.647   3.324   4.009
19207SOL     OW59627   3.097   6.540   2.841
19207SOL    HW159628   3.082   6.455   2.800
19207SOL    HW259629  -8.022 -15.489   2.824
19208SOL     OW59630  10.090   3.820  10.012
19208SOL    HW159631  -0.930  -7.270  20.972
19208SOL    HW259632  10.024  -7.270 -12.022
19209SOL     OW59633  11.702  11.723   1.388
19209SOL    HW159634 -10.423 -10.424  -9.602
19209SOL    HW259635  11.632  11.775  12.387
19210SOL     OW59636   4.648  11.557   3.745
19210SOL    HW159637   4.708  11.620   3.707
19210SOL    HW259638   4.567   0.566   3.758
19211SOL     OW59639   5.402   0.945   6.046
19211SOL    HW159640  16.429 -10.115   5.954
19211SOL    HW259641   5.321   0.916   6.088
19212SOL     OW59642   8.324   8.076   3.752
19212SOL    HW159643   8.238  -3.002   3.766
19212SOL    HW259644  30.461  -3.013   3.811
19213SOL     OW59645   6.104   7.950   0.946
19213SOL    HW159646   6.158  -3.129   0.877
19213SOL    HW259647   6.167 -25.128   1.005
19214SOL     OW59648  10.001   0.614   1.879
19214SOL    HW159649  10.088   0.622   1.918
19214SOL    HW259650   9.958  22.624   1.930
19215SOL     OW59651   7.701   0.015   4.211
19215SOL    HW159652   7.732  11.005   4.287
19215SOL    HW259653  -3.261   0.025   4.156
19216SOL     OW59654   5.689   0.490   1.216
19216SOL    HW159655   5.736   0.472  -9.905
19216SOL    HW259656   5.685  11.625  12.262
19217SOL     OW59657   1.956  -1.701   7.641
19217SOL    HW159658   1.876  -1.707   7.589
19217SOL    HW259659   2.020  31.457  18.622
19218SOL     OW59660   9.179   7.981   0.588
19218SOL    HW159661  31.221   8.045  11.689
19218SOL    HW259662  20.245  -3.132   0.643
19219SOL     OW59663   5.212  11.759  -0.503
19219SOL    HW159664   5.305 -10.297  -0.496
19219SOL    HW259665   5.193   0.729  10.443
19220SOL     OW59666   0.967   6.953   7.468
19220SOL    HW159667   1.039   7.017   7.465
19220SOL    HW259668   0.947  -4.104  29.456
19221SOL     OW59669   2.570   2.882   6.894
19221SOL    HW159670  35.641   2.964   6.903
19221SOL    HW259671  13.572   2.824  18.000
19222SOL     OW59672   3.916   6.003   0.189
19222SOL    HW159673   3.975   5.964   0.125
19222SOL    HW259674   3.944   6.095   0.194
19223SOL     OW59675   6.440   7.768   3.739
19223SOL    HW159676   6.484   7.741   3.659
19223SOL    HW259677   6.424   7.687  14.827
19224SOL     OW59678   4.513   8.311   1.261
19224SOL    HW159679  -6.494   8.339   1.346
19224SOL    HW259680   4.518  -2.650   1.207
19225SOL     OW59681   6.885   3.196   3.116
19225SOL    HW159682   6.937   3.273   3.092
19225SOL    HW259683  17.957  -7.913   3.059
19226SOL     OW59684   6.361   7.427   1.536
19226SOL    HW159685   6.280  18.510 -20.566
19226SOL    HW259686   6.415  -3.544   1.576
19227SOL     OW59687   0.996   6.307   8.576
19227SOL    HW159688   0.928  17.375   8.638
19227SOL    HW259689 -10.001   6.234   8.620
19228SOL     OW59690   6.084   1.280   4.289
19228SOL    HW159691   6.089   1.207  -6.688
19228SOL    HW259692   6.092   1.238   4.203
19229SOL     OW59693  10.851   2.540   2.230
19229SOL    HW159694  10.816  24.619   2.141
19229SOL    HW259695  10.789   2.592   2.281
19230SOL     OW59696  10.439   1.802   7.289
19230SOL    HW159697 -11.552   1.779   7.316
19230SOL    HW259698  10.415  12.916   7.345
19231SOL     OW59699   2.827   9.029  11.834
19231SOL    HW159700   2.864  -2.097  11.852
19231SOL    HW259701   2.802  20.102 -10.159
19232SOL     OW59702   0.132   8.283   8.097
19232SOL    HW159703  22.186 -13.798   8.005
19232SOL    HW259704   0.142   8.377   8.117
19233SOL     OW59705   8.675   6.886  10.846
19233SOL    HW159706   8.703   6.883  10.755
19233SOL    HW259707 -13.427  -4.062  10.861
19234SOL     OW59708  10.038  10.001   4.269
19234SOL    HW159709   9.962  10.057   4.253
19234SOL    HW259710  -1.006  -1.060   4.362
19235SOL     OW59711   7.107   7.522   4.400
19235SOL    HW159712   7.065   7.496   4.481
19235SOL    HW259713  -3.999   7.509 -28.786
19236SOL     OW59714   1.109   6.863   1.183
19236SOL    HW159715   1.174  28.877   1.155
19236SOL    HW259716  12.064  17.858  12.212
19237SOL     OW59717   3.669   6.649   0.490
19237SOL    HW159718   3.587   6.635   0.442
19237SOL    HW259719   3.692   6.741   0.472
19238SOL     OW59720   9.919   1.909   9.908
19238SOL    HW159721  -1.123   1.904   9.812
19238SOL    HW259722   9.967   1.831  -1.105
19239SOL     OW59723   6.827   8.518   9.297
19239SOL    HW159724   6.830   8.602   9.251
19239SOL    HW259725  28.995   8.505   9.329
19240SOL     OW59726   2.697   9.419   6.394
19240SOL    HW159727   2.675   9.358   6.323
19240SOL    HW259728   2.624   9.481   6.395
19241SOL     OW59729   7.839  10.941   0.210
19241SOL    HW159730   7.776  10.890   0.260
19241SOL    HW259731   7.889  -0.051   0.276
19242SOL     OW59732   3.828   5.228   1.674
19242SOL    HW159733   3.802  -5.783   1.586
19242SOL    HW259734   3.749  -5.803   1.727
19243SOL     OW59735  10.489   6.805   6.011
19243SOL    HW159736  -0.543  39.870  17.130
19243SOL    HW259737  10.553   6.768   5.951
19244SOL     OW59738   0.185   1.008   0.249
19244SOL    HW159739   0.234   1.022   0.331
19244SOL    HW259740  44.370 -10.118   0.219
19245SOL     OW59741   5.815   7.055   6.142
19245SOL    HW159742   5.798  40.209   6.055
19245SOL    HW259743   5.907  29.155   6.159
19246SOL     OW59744   8.085   6.853   3.928
19246SOL    HW159745   8.169   6.862  15.011
19246SOL    HW259746   8.020   6.873   3.996
19247SOL     OW59747   2.270   8.505   8.875
19247SOL    HW159748   2.279   8.548   8.790
19247SOL    HW259749   2.358  19.512  19.934
19248SOL     OW59750   6.113   9.936  11.175
19248SOL    HW159751   6.078   9.893  11.097
19248SOL    HW259752   6.206  -1.092   0.117
19249SOL     OW59753   0.658   4.348   8.147
19249SOL    HW159754  11.739  -6.718  -2.975
19249SOL    HW259755   0.592  37.401   8.164
19250SOL     OW59756   2.345   1.307   2.517
19250SOL    HW159757   2.351  23.478  13.528
19250SOL    HW259758   2.416  23.376   2.580
19251SOL     OW59759   8.800  12.888  10.800
19251SOL    HW159760   8.868 -20.195  10.857
19251SOL    HW259761  41.907  12.798  10.830
19252SOL     OW59762   9.753   4.821   0.366
19252SOL    HW159763   9.720   4.868  11.482
19252SOL    HW259764   9.686   4.756  11.386
19253SOL     OW59765   0.868   2.022   4.968
19253SOL    HW159766  34.072  -9.029   5.010
19253SOL    HW259767   0.886   2.021   4.874
19254SOL     OW59768   5.814   1.024  10.956
19254SOL    HW159769   5.762   0.951 -22.128
19254SOL    HW259770  16.827   1.099 -22.110
19255SOL     OW59771   6.856   7.517  10.067
19255SOL    HW159772   6.816   7.577  10.005
19255SOL    HW259773   6.893   7.447  10.013
19256SOL     OW59774   3.510   0.505   4.152
19256SOL    HW159775  25.507   0.539  26.267
19256SOL    HW259776   3.485   0.422   4.109
19257SOL     OW59777   3.221  10.876   6.846
19257SOL    HW159778   3.298 -22.283   6.805
19257SOL    HW259779 -29.945  10.917   6.773
19258SOL     OW59780   6.888   5.994   0.931
19258SOL    HW159781   6.841  -5.032  11.888
19258SOL    HW259782  17.864  28.032 -10.051
19259SOL     OW59783   4.740   3.327   0.864
19259SOL    HW159784   4.802 -18.819  11.873
19259SOL    HW259785  -6.245   3.390   0.911
19260SOL     OW59786   7.107  10.627   9.663
19260SOL    HW159787  18.228 -11.480   9.621
19260SOL    HW259788  29.154  10.549   9.708
19261SOL     OW59789   5.539   7.834   0.964
19261SOL    HW159790   5.523  29.861  -9.997
19261SOL    HW259791   5.633   7.853  23.045
19262SOL     OW59792   5.124  10.240   8.755
19262SOL    HW159793  -5.954  21.279   8.842
19262SOL    HW259794 -28.039  10.168  19.749
19263SOL     OW59795   8.144   3.730   5.706
19263SOL    HW159796   8.069  -7.268   5.664
19263SOL    HW259797   8.218  14.827   5.685
19264SOL     OW59798   6.776   3.330  -1.229
19264SOL    HW159799   6.759  -7.737   9.720
19264SOL    HW259800   6.857   3.381   9.805
19265SOL     OW59801   4.763   4.778   2.875
19265SOL    HW159802  15.854  15.815   2.956
19265SOL    HW259803  -6.224 -17.348   2.811
19266SOL     OW59804   4.016   6.033   3.199
19266SOL    HW159805   3.953  17.093   3.130
19266SOL    HW259806   3.964   5.993   3.268
19267SOL     OW59807   7.773  12.189   7.382
19267SOL    HW159808 -14.288  -9.810   7.431
19267SOL    HW259809   7.686  12.203   7.345
19268SOL     OW59810   6.479   2.553   2.668
19268SOL    HW159811   6.500  13.628   2.582
19268SOL    HW259812 -26.559  13.604  -8.321
19269SOL     OW59813   3.390   0.721  10.587
19269SOL    HW159814   3.436   0.638  10.602
19269SOL    HW259815   3.298   0.700  10.601
19270SOL     OW59816   2.618   2.890   8.438
19270SOL    HW159817   2.634   2.892   8.344
19270SOL    HW259818   2.565   2.968   8.455
19271SOL     OW59819   9.515   0.311   8.219
19271SOL    HW159820  -1.549   0.383  41.396
19271SOL    HW259821   9.476  22.313  19.298
19272SOL     OW59822   3.095   1.315  -0.476
19272SOL    HW159823   3.031   1.333  10.495
19272SOL    HW259824   3.170   1.370  -0.498
19273SOL     OW59825   7.143   6.280   1.978
19273SOL    HW159826   7.219   6.337  -9.051
19273SOL    HW259827   7.140   6.229  13.098
19274SOL     OW59828   3.203   1.274   7.637
19274SOL    HW159829   3.233  -9.708   7.567
19274SOL    HW259830  25.362  -9.796  -3.360
19275SOL     OW59831   1.447   8.744   6.965
19275SOL    HW159832   1.386   8.715  17.937
19275SOL    HW259833  -9.572   8.665   7.014
19276SOL     OW59834   5.832  10.615   9.049
19276SOL    HW159835   5.801 -11.427   9.132
19276SOL    HW259836   5.878  10.688 -13.073
19277SOL     OW59837   7.774   2.572   6.119
19277SOL    HW159838   7.739   2.484   6.107
19277SOL    HW259839  -3.341   2.624  28.224
19278SOL     OW59840   7.269   1.327  10.936
19278SOL    HW159841  18.352   1.341  -0.188
19278SOL    HW259842   7.226 -20.837  10.926
19279SOL     OW59843   5.311   9.677   9.283
19279SOL    HW159844   5.311   9.596 -12.846
19279SOL    HW259845   5.219   9.703   9.288
19280SOL     OW59846  -2.074   5.435   1.464
19280SOL    HW159847  41.997   5.458  -9.543
19280SOL    HW259848   8.986  -5.687   1.509
19281SOL     OW59849   3.609   7.166   2.210
19281SOL    HW159850   3.620   7.147  13.343
19281SOL    HW259851   3.697   7.185   2.179
19282SOL     OW59852   8.020   2.450   0.657
19282SOL    HW159853  18.997   2.456  22.809
19282SOL    HW259854   7.989   2.376 -10.434
19283SOL     OW59855   9.555   4.948  10.459
19283SOL    HW159856   9.621   5.017  10.472
19283SOL    HW259857   9.555   4.900  -0.498
19284SOL     OW59858  10.337   5.404   2.806
19284SOL    HW159859  -0.717  -5.677   2.721
19284SOL    HW259860 -22.711   5.466   2.791
19285SOL     OW59861   1.573   6.921   3.939
19285SOL    HW159862  12.521   6.910   3.967
19285SOL    HW259863   1.582  -4.176   3.863
19286SOL     OW59864   6.824   4.315   5.919
19286SOL    HW159865   6.892   4.374   5.887
19286SOL    HW259866  17.903   4.228  -5.127
19287SOL     OW59867   3.770   6.883   6.078
19287SOL    HW159868   3.764  17.904   6.172
19287SOL    HW259869   3.680   6.892   6.049
19288SOL     OW59870   7.861   8.086   5.097
19288SOL    HW159871  18.993   8.111   5.098
19288SOL    HW259872   7.862  30.070   5.088
19289SOL     OW59873   2.019   2.812   3.175
19289SOL    HW159874   2.001  13.758   3.182
19289SOL    HW259875   1.972   2.851   3.249
19290SOL     OW59876   9.438  12.826  10.912
19290SOL    HW159877  -1.564  12.905  10.950
19290SOL    HW259878   9.394 -20.262  10.833
19291SOL     OW59879   6.931   7.986   9.218
19291SOL    HW159880   6.851  19.001  -1.775
19291SOL    HW259881  -4.047   8.010   9.288
19292SOL     OW59882   8.282   6.371  -0.226
19292SOL    HW159883   8.337   6.315  21.909
19292SOL    HW259884  -2.784   6.443  10.871
19293SOL     OW59885   9.199   1.618   2.834
19293SOL    HW159886  20.314  12.632   2.782
19293SOL    HW259887  -1.916  -9.443   2.779
19294SOL     OW59888   1.690   4.742   9.483
19294SOL    HW159889   1.735   4.789   9.553
19294SOL    HW259890   1.653   4.811   9.429
19295SOL     OW59891   7.642  -0.051   2.027
19295SOL    HW159892  18.647  11.062   1.976
19295SOL    HW259893   7.653  -0.016 -19.964
19296SOL     OW59894   2.901   5.052  10.147
19296SOL    HW159895  13.906   4.991  21.253
19296SOL    HW259896   2.825  27.155  10.094
19297SOL     OW59897   9.391   5.706   3.610
19297SOL    HW159898  20.408   5.613  -7.427
19297SOL    HW259899  -1.701   5.745  -7.360
19298SOL     OW59900   4.487  10.845   4.781
19298SOL    HW159901  26.644  -0.188   4.836
19298SOL    HW259902   4.464  -0.287   4.783
19299SOL     OW59903   9.114   8.239   7.074
19299SOL    HW159904 -23.918  19.319  18.121
19299SOL    HW259905   9.053  41.427  18.137
19300SOL     OW59906   1.787   9.778   3.639
19300SOL    HW159907  12.916   9.809  14.691
19300SOL    HW259908   1.791   9.724  25.639
19301SOL     OW59909   2.436   8.751   3.219
19301SOL    HW159910   2.396   8.701   3.147
19301SOL    HW259911   2.520   8.780  25.263
19302SOL     OW59912   8.723   1.527   4.193
19302SOL    HW159913   8.697   1.606   4.145
19302SOL    HW259914  -2.293   1.464   4.126
19303SOL     OW59915   9.957   0.734   7.405
19303SOL    HW159916   9.903   0.664 -14.638
19303SOL    HW259917   9.970   0.709   7.314
19304SOL     OW59918  10.770   9.856   0.242
19304SOL    HW159919  10.746  -1.181   0.335
19304SOL    HW259920  10.861   9.824  22.321
19305SOL     OW59921   8.068  11.253   0.778
19305SOL    HW159922  19.111 -10.896   0.843
19305SOL    HW259923   7.984  11.241   0.734
19306SOL     OW59924   3.937   4.346   9.467
19306SOL    HW159925   3.991 -28.710   9.419
19306SOL    HW259926   3.847   4.379   9.457
19307SOL     OW59927   9.513   5.438   6.856
19307SOL    HW159928   9.527  -5.656   6.779
19307SOL    HW259929   9.426  38.595   6.843
19308SOL     OW59930   4.004   0.277   0.907
19308SOL    HW159931   3.985   0.276  11.853
19308SOL    HW259932   4.097   0.299   0.912
19309SOL     OW59933   6.228   8.372   3.714
19309SOL    HW159934   6.145 -13.754  -7.320
19309SOL    HW259935   6.229   8.428   3.791
19310SOL     OW59936   1.556  10.283   6.158
19310SOL    HW159937   1.485  10.274   6.094
19310SOL    HW259938  23.671  10.195   6.167
19311SOL     OW59939   5.638   6.901   8.654
19311SOL    HW159940   5.635   6.809   8.628
19311SOL    HW259941 -27.551  17.982   8.604
19312SOL     OW59942  12.112   4.084   8.030
19312SOL    HW159943   1.010   4.098   8.101
19312SOL    HW259944   1.030   4.122  30.032
19313SOL     OW59945   3.702   6.795   3.198
19313SOL    HW159946   3.619   6.798   3.247
19313SOL    HW259947   3.714   6.885   3.166
19314SOL     OW59948   0.457   8.660   1.961
19314SOL    HW159949   0.515 -24.390   1.993
19314SOL    HW259950   0.515   8.599   1.916
19315SOL     OW59951   9.770   7.860   4.947
19315SOL    HW159952   9.788  29.996 -17.206
19315SOL    HW259953   9.720  29.993   5.008
19316SOL     OW59954  -0.705   9.112   1.690
19316SOL    HW159955  -0.728  -1.999  -9.291
19316SOL    HW259956  21.391  -1.853   1.748
19317SOL     OW59957   8.593   4.402   6.748
19317SOL    HW159958   8.514   4.367   6.790
19317SOL    HW259959   8.594   4.363   6.661
19318SOL     OW59960   2.165   3.734   7.752
19318SOL    HW159961  13.232   3.643   7.741
19318SOL    HW259962   2.235   3.784   7.709
19319SOL     OW59963   4.639   8.389   3.829
19319SOL    HW159964   4.663   8.479  25.930
19319SOL    HW259965   4.692   8.335   3.888
19320SOL     OW59966   7.322   5.315   3.769
19320SOL    HW159967   7.361   5.402   3.771
19320SOL    HW259968  51.537   5.265   3.711
19321SOL     OW59969   8.152   3.100   1.414
19321SOL    HW159970   8.097   3.034   1.372
19321SOL    HW259971  -2.948  14.211   1.436
19322SOL     OW59972   3.436   1.930   5.471
19322SOL    HW159973  -7.653   1.905 -16.686
19322SOL    HW259974   3.396  -9.159   5.543
19323SOL     OW59975   4.420   6.434   0.970
19323SOL    HW159976  15.459  17.379  11.999
19323SOL    HW259977   4.413   6.447  -9.975
19324SOL     OW59978   0.332   8.550   7.314
19324SOL    HW159979   0.393   8.622   7.330
19324SOL    HW259980   0.246   8.592   7.312
19325SOL     OW59981  10.351   2.080   2.014
19325SOL    HW159982  21.379   2.173  13.036
19325SOL    HW259983  10.443  -8.968   2.039
19326SOL     OW59984   8.714   6.640   3.424
19326SOL    HW159985  19.666   6.652   3.389
19326SOL    HW259986   8.703   6.573   3.493
19327SOL     OW59987   2.362   7.333  14.148
19327SOL    HW159988   2.422   7.307 -19.041
19327SOL    HW259989   2.336 -14.829 -18.930
19328SOL     OW59990  10.152   8.186   9.038
19328SOL    HW159991  -0.980   8.211   9.035
19328SOL    HW259992  21.231   8.229   8.962
19329SOL     OW59993   3.042   3.596   2.085
19329SOL    HW159994  14.095  25.750  -8.897
19329SOL    HW259995   3.082   3.523  24.211
19330SOL     OW59996   9.304   4.120   1.749
19330SOL    HW159997  -1.723   4.197   1.804
19330SOL    HW259998 -23.905   4.092   1.766
19331SOL     OW59999   6.155   4.415   8.345
19331SOL    HW160000   6.093   4.481 -68.964
19331SOL    HW260001   6.145   4.418  -2.599
19332SOL     OW60002   6.073   0.661   6.592
19332SOL    HW160003  -4.924   0.624   6.669
19332SOL    HW260004  17.059   0.732   6.626
19333SOL     OW60005   6.360   1.066   8.090
19333SOL    HW160006   6.295  -9.996   8.157
19333SOL    HW260007   6.395   1.150   8.119
19334SOL     OW60008  10.212   4.128   9.552
19334SOL    HW160009  10.139   4.068  31.645
19334SOL    HW260010  -0.868   4.215   9.546
19335SOL     OW60011  -0.060   6.202   8.487
19335SOL    HW160012  -0.155   6.214   8.483
19335SOL    HW260013  11.004   6.237   8.573
19336SOL     OW60014   3.250   8.990   3.135
19336SOL    HW160015   3.287   8.963   3.219
19336SOL    HW260016   3.185  19.963   3.115
19337SOL     OW60017   8.023  10.798   2.181
19337SOL    HW160018   8.023  10.857  -8.783
19337SOL    HW260019 -13.965  10.793   2.155
19338SOL     OW60020   2.621   7.883   7.538
19338SOL    HW160021  13.611  19.002  18.559
19338SOL    HW260022   2.712   7.905   7.516
19339SOL     OW60023  10.178  10.164  -0.198
19339SOL    HW160024  10.085  10.185  10.844
19339SOL    HW260025  10.182  10.077  -0.239
19340SOL     OW60026   6.937   9.374   5.733
19340SOL    HW160027   6.892   9.294   5.759
19340SOL    HW260028  -4.040   9.391   5.803
19341SOL     OW60029  10.313   5.062   8.986
19341SOL    HW160030  10.311   5.050   9.081
19341SOL    HW260031  10.234   5.018  -2.085
19342SOL     OW60032   2.304   6.705   7.638
19342SOL    HW160033  -8.695  -4.292   7.714
19342SOL    HW260034 -19.829  17.814 -25.520
19343SOL     OW60035   3.911  10.169   2.694
19343SOL    HW160036  -7.148  10.082   2.729
19343SOL    HW260037   3.981  10.202  13.791
19344SOL     OW60038   2.038   3.142   7.515
19344SOL    HW160039   2.046  -7.967   7.449
19344SOL    HW260040  13.079 -18.856   7.465
19345SOL     OW60041   9.788   4.279   5.249
19345SOL    HW160042   9.719   4.302   5.186
19345SOL    HW260043   9.864  26.409   5.221
19346SOL     OW60044   8.751   6.039   9.373
19346SOL    HW160045   8.840   6.054   9.340
19346SOL    HW260046   8.764   5.982   9.449
19347SOL     OW60047   7.222  10.138   3.457
19347SOL    HW160048  29.250  10.217   3.477
19347SOL    HW260049   7.223  10.135   3.361
19348SOL     OW60050  12.861  -0.183   6.537
19348SOL    HW160051  -9.296  -0.165   6.484
19348SOL    HW260052 -20.256  10.927  -4.438
19349SOL     OW60053   3.191   9.640   5.229
19349SOL    HW160054   3.206  -1.493  -5.796
19349SOL    HW260055   3.257   9.665 -16.915
19350SOL     OW60056   2.813   3.523   0.589
19350SOL    HW160057  13.763   3.494   0.604
19350SOL    HW260058   2.867   3.464  33.760
19351SOL     OW60059  -1.163   4.126   4.037
19351SOL    HW160060  20.979  26.158   3.981
19351SOL    HW260061   9.825   4.178  -7.064
19352SOL     OW60062   3.146   9.672   2.010
19352SOL    HW160063   3.148   9.755   1.962
19352SOL    HW260064  -7.888   9.698   2.102
19353SOL     OW60065   5.907   4.466  10.188
19353SOL    HW160066   5.870   4.406  10.251
19353SOL    HW260067   5.927   4.545  10.238
19354SOL     OW60068   9.862   9.068   8.489
19354SOL    HW160069   9.877   9.073   8.395
19354SOL    HW260070 -12.248   8.979   8.504
19355SOL     OW60071   6.417   0.294   3.229
19355SOL    HW160072   6.365   0.218   3.254
19355SOL    HW260073   6.375   0.368  36.392
19356SOL     OW60074   7.648   6.311   0.934
19356SOL    HW160075   7.647   6.391   0.987
19356SOL    HW260076   7.678  -4.797   0.995
19357SOL     OW60077   8.957   8.234   0.461
19357SOL    HW160078  19.967 -36.016   0.456
19357SOL    HW260079  30.988  -2.770  11.575
19358SOL     OW60080   8.374   4.440   3.793
19358SOL    HW160081   8.386   4.346   3.806
19358SOL    HW260082   8.459   4.471   3.759
19359SOL     OW60083  10.366   9.172   6.111
19359SOL    HW160084  10.385   9.167   6.017
19359SOL    HW260085  10.304   9.101   6.127
19360SOL     OW60086  10.602   8.586   6.020
19360SOL    HW160087  10.593  -2.450   6.115
19360SOL    HW260088  10.660   8.658  17.037
19361SOL     OW60089   8.034   2.059   2.641
19361SOL    HW160090  -2.982  13.086   2.732
19361SOL    HW260091   8.069   2.145   2.618
19362SOL     OW60092   7.956   5.516   6.614
19362SOL    HW160093   7.863   5.498   6.602
19362SOL    HW260094   7.961   5.565   6.696
19363SOL     OW60095   5.195   8.630   7.989
19363SOL    HW160096   5.208   8.631  -3.146
19363SOL    HW260097  27.301  -2.322   8.017
19364SOL     OW60098   2.622   8.731   8.485
19364SOL    HW160099   2.552  41.803  19.480
19364SOL    HW260100   2.578   8.801   8.533
19365SOL     OW60101  12.360   2.381   2.828
19365SOL    HW160102   1.278   2.464   2.806
19365SOL    HW260103 -31.708   2.393   2.799
19366SOL     OW60104  10.078  11.351   9.181
19366SOL    HW160105  10.019 -10.654   9.194
19366SOL    HW260106  10.161  11.379   9.219
19367SOL     OW60107   4.872  10.477   4.927
19367SOL    HW160108   4.907  -0.633  -6.058
19367SOL    HW260109   4.882  10.445  -6.202
19368SOL     OW60110   3.183   2.467   4.789
19368SOL    HW160111   3.127  -8.541  26.939
19368SOL    HW260112  25.230   2.511   4.710
19369SOL     OW60113  11.515   4.909   2.279
19369SOL    HW160114  11.596   4.943 -19.763
19369SOL    HW260115   0.497  15.927   2.189
19370SOL     OW60116   6.394  10.808   6.235
19370SOL    HW160117   6.380  10.828   6.142
19370SOL    HW260118   6.482 -11.238   6.253
19371SOL     OW60119   4.482   4.589  10.213
19371SOL    HW160120   4.468   4.675  10.253
19371SOL    HW260121   4.567 -17.482  -0.871
19372SOL     OW60122   2.515   1.362   9.785
19372SOL    HW160123  24.546   1.395 -34.297
19372SOL    HW260124   2.605   1.392   9.797
19373SOL     OW60125   7.735   6.487  10.105
19373SOL    HW160126  -3.335  39.645  21.063
19373SOL    HW260127 -14.418  17.474  10.135
19374SOL     OW60128  -1.517   8.396   8.729
19374SOL    HW160129  20.637   8.341 -13.325
19374SOL    HW260130  31.602   8.468  -2.247
19375SOL     OW60131   1.978  11.634   5.536
19375SOL    HW160132  23.989  11.574   5.564
19375SOL    HW260133  12.976   0.649   5.469
19376SOL     OW60134   5.214   9.521   6.554
19376SOL    HW160135   5.119   9.508  -4.493
19376SOL    HW260136  16.268   9.542   6.646
19377SOL     OW60137   1.407   8.824  11.959
19377SOL    HW160138  12.394   8.823   0.999
19377SOL    HW260139   1.436   8.915   0.911
19378SOL     OW60140   9.220   0.858   0.533
19378SOL    HW160141   9.242   0.774   0.494
19378SOL    HW260142  -1.913 -10.187   0.552
19379SOL     OW60143  12.928   1.886   5.370
19379SOL    HW160144   1.821  -9.087   5.353
19379SOL    HW260145 -31.278  -9.227  27.488
19380SOL     OW60146   2.110  10.100  10.361
19380SOL    HW160147 -31.063  10.063  10.292
19380SOL    HW260148  13.150  -0.845  10.343
19381SOL     OW60149  -0.596   8.177   3.892
19381SOL    HW160150  10.354   8.198   3.918
19381SOL    HW260151  -0.543  -2.795   3.935
19382SOL     OW60152   1.299   0.496   3.196
19382SOL    HW160153   1.384   0.539  14.235
19382SOL    HW260154   1.251   0.539  14.306
19383SOL     OW60155   6.378   5.757   8.868
19383SOL    HW160156   6.285   5.735   8.866
19383SOL    HW260157   6.384  -5.207   8.926
19384SOL     OW60158   4.625   9.487   0.319
19384SOL    HW160159   4.561   9.441   0.266
19384SOL    HW260160   4.673  -1.622   0.364
19385SOL     OW60161   2.409   2.593   9.663
19385SOL    HW160162 -30.659  13.558   9.633
19385SOL    HW260163  13.461   2.595   9.758
19386SOL     OW60164   3.895  11.326  11.194
19386SOL    HW160165   3.924  11.384   0.225
19386SOL    HW260166   3.882   0.345  11.119
19387SOL     OW60167   8.450   8.343  10.056
19387SOL    HW160168   8.488  19.465  10.024
19387SOL    HW260169  30.473   8.314   9.984
19388SOL     OW60170   8.560   2.340   6.780
19388SOL    HW160171 -13.507   2.317   6.688
19388SOL    HW260172   8.553   2.255   6.825
19389SOL     OW60173   0.021   9.804   2.458
19389SOL    HW160174   0.116  -1.246   2.448
19389SOL    HW260175  11.031   9.722   2.496
19390SOL     OW60176   3.183   9.245   3.704
19390SOL    HW160177   3.183   9.289   3.790
19390SOL    HW260178   3.154   9.156   3.723
19391SOL     OW60179   5.233   8.050   6.918
19391SOL    HW160180   5.233   7.981  -4.188
19391SOL    HW260181  16.234   8.008   6.996
19392SOL     OW60182   2.286   2.323   8.977
19392SOL    HW160183  13.363   2.339   9.063
19392SOL    HW260184   2.205  13.315  20.034
19393SOL     OW60185   9.689   0.716   4.647
19393SOL    HW160186   9.738  11.748   4.729
19393SOL    HW260187   9.599   0.692   4.670
19394SOL     OW60188   5.255   7.374   9.446
19394SOL    HW160189   5.229  -3.623   9.365
19394SOL    HW260190   5.277   7.447  -1.535
19395SOL     OW60191   8.452  10.608   6.777
19395SOL    HW160192  19.555  10.676   6.754
19395SOL    HW260193  30.536  10.545   6.706
19396SOL     OW60194   3.043  10.697   2.072
19396SOL    HW160195   3.109 -11.342   2.015
19396SOL    HW260196   3.051  10.603  13.095
19397SOL     OW60197  10.698  -0.395   3.689
19397SOL    HW160198  10.622  10.634   3.633
19397SOL    HW260199  10.765  -0.356   3.632
19398SOL     OW60200   8.240   0.764   8.343
19398SOL    HW160201   8.287 -10.341   8.395
19398SOL    HW260202   8.309   0.808   8.292
19399SOL     OW60203   3.271   0.212   7.319
19399SOL    HW160204   3.226  11.260  40.522
19399SOL    HW260205  -7.799   0.286   7.267
19400SOL     OW60206   5.223   8.939  10.300
19400SOL    HW160207  16.186 -13.105  10.256
19400SOL    HW260208   5.263  -2.160  10.237
19401SOL     OW60209   5.271  10.250  10.783
19401SOL    HW160210 -16.718  10.218  -0.254
19401SOL    HW260211  16.266  10.191  10.722
19402SOL     OW60212   8.143   5.437   6.421
19402SOL    HW160213   8.087   5.487  17.519
19402SOL    HW260214   8.084 -16.707   6.381
19403SOL     OW60215   4.932   4.657   3.515
19403SOL    HW160216  16.034   4.695   3.576
19403SOL    HW260217   4.894 -17.347  14.509
19404SOL     OW60218   7.249   7.143   7.559
19404SOL    HW160219  29.264   7.138 -14.591
19404SOL    HW260220  29.410   7.168   7.517
19405SOL     OW60221   5.614   4.774   5.307
19405SOL    HW160222   5.618   4.705   5.373
19405SOL    HW260223  27.626   4.744  38.364
19406SOL     OW60224   5.985   6.946   3.756
19406SOL    HW160225   5.901   6.992  -7.280
19406SOL    HW260226   5.992   6.902   3.840
19407SOL     OW60227   2.591   9.606   5.694
19407SOL    HW160228   2.615 -12.497   5.605
19407SOL    HW260229   2.621  -1.508   5.748
19408SOL     OW60230   9.425   3.176   8.325
19408SOL    HW160231   9.509   3.174   8.279
19408SOL    HW260232   9.442   3.226  -2.635
19409SOL     OW60233   4.804  11.146   8.843
19409SOL    HW160234   4.887   0.141   8.810
19409SOL    HW260235   4.744  11.154   8.769
19410SOL     OW60236   5.214  10.188   3.678
19410SOL    HW160237   5.185  10.132   3.606
19410SOL    HW260238   5.134  10.227   3.712
19411SOL     OW60239   6.756   0.633   7.775
19411SOL    HW160240   6.753   0.719   7.818
19411SOL    HW260241   6.772   0.571   7.846
19412SOL     OW60242   2.981   9.433   1.992
19412SOL    HW160243 -19.085 -23.681   2.087
19412SOL    HW260244  14.069   9.507   1.957
19413SOL     OW60245   0.611   3.804   4.512
19413SOL    HW160246   0.700   3.774   4.493
19413SOL    HW260247   0.579   3.839   4.429
19414SOL     OW60248   1.052   9.693   2.306
19414SOL    HW160249  12.073 -12.478  13.365
19414SOL    HW260250  -9.938  -1.349   2.224
19415SOL     OW60251   2.130  10.338   4.710
19415SOL    HW160252   2.070  10.351  -6.256
19415SOL    HW260253  -8.937  10.254   4.671
19416SOL     OW60254   2.994   8.972   5.660
19416SOL    HW160255  -8.062 -24.103   5.576
19416SOL    HW260256  -7.951  -2.057   5.673
19417SOL     OW60257   5.578   0.263   3.114
19417SOL    HW160258   5.602   0.355   3.124
19417SOL    HW260259   5.493   0.255   3.157
19418SOL     OW60260  -0.436   9.309   3.565
19418SOL    HW160261  -0.478   9.337   3.647
19418SOL    HW260262  10.657  -1.806  14.630
19419SOL     OW60263   9.590   3.103   1.300
19419SOL    HW160264   9.666   3.152  23.347
19419SOL    HW260265   9.515   3.143   1.256
19420SOL     OW60266   7.699  10.460  10.622
19420SOL    HW160267   7.779  10.512  10.629
19420SOL    HW260268   7.651  10.500  -0.490
19421SOL     OW60269  -2.005  -2.175   7.965
19421SOL    HW160270 -13.037  42.079  -3.069
19421SOL    HW260271  53.276  19.877  30.004
19422SOL     OW60272  11.556   4.334   2.259
19422SOL    HW160273  11.472  -6.733   2.221
19422SOL    HW260274   0.499   4.338   2.353
19423SOL     OW60275   9.672   2.703   0.866
19423SOL    HW160276   9.614   2.627  11.901
19423SOL    HW260277   9.696   2.709   0.959
19424SOL     OW60278   1.125   2.082   3.622
19424SOL    HW160279   1.177   2.016   3.577
19424SOL    HW260280   1.182  -8.880   3.624
19425SOL     OW60281   2.026   0.621   8.836
19425SOL    HW160282  13.059   0.670   8.918
19425SOL    HW260283   2.120   0.601 -13.251
19426SOL     OW60284   6.444  -0.226   6.991
19426SOL    HW160285   6.512  10.861   7.039
19426SOL    HW260286  28.561  -0.243  -4.135
19427SOL     OW60287  11.001   4.177   2.640
19427SOL    HW160288  11.049   4.172   2.723
19427SOL    HW260289  10.998   4.271   2.620
19428SOL     OW60290   4.438   0.908  10.755
19428SOL    HW160291  26.564   0.830  -0.255
19428SOL    HW260292 -28.616   0.959  -0.333
19429SOL     OW60293   5.388  10.890   4.273
19429SOL    HW160294   5.460  10.953   4.272
19429SOL    HW260295  -5.710 -33.240  26.282
19430SOL     OW60296   3.212   3.486   2.699
19430SOL    HW160297   3.302   3.474   2.667
19430SOL    HW260298   3.157   3.463   2.625
19431SOL     OW60299   0.097  -1.715  10.343
19431SOL    HW160300   0.052  20.282  10.364
19431SOL    HW260301  33.308  20.346 -11.718
19432SOL     OW60302   8.376   9.435   7.760
19432SOL    HW160303   8.319  20.528  -3.335
19432SOL    HW260304   8.324   9.420   7.839
19433SOL     OW60305  10.452   9.640  11.415
19433SOL    HW160306  10.543   9.619 -10.686
19433SOL    HW260307  10.448   9.736  11.411
19434SOL     OW60308   3.090   1.698   6.413
19434SOL    HW160309   3.109   1.605   6.422
19434SOL    HW260310  -7.867   1.736  39.501
19435SOL     OW60311   8.637   5.860   3.301
19435SOL    HW160312   8.670   5.869 -18.868
19435SOL    HW260313  30.672   5.943  -7.720
19436SOL     OW60314   6.875   2.911   6.172
19436SOL    HW160315   6.827   2.928   6.091
19436SOL    HW260316  -4.177  24.897  -4.851
19437SOL     OW60317   0.846   2.278   2.762
19437SOL    HW160318   0.785   2.211  24.809
19437SOL    HW260319   0.825   2.356   2.711
19438SOL     OW60320   5.844   9.842   7.587
19438SOL    HW160321   5.859  -1.184   7.681
19438SOL    HW260322   5.892   9.914  -3.495
19439SOL     OW60323   4.082  10.293   5.618
19439SOL    HW160324   4.004  10.304   5.564
19439SOL    HW260325   4.116  10.382   5.630
19440SOL     OW60326  10.980   0.099   1.835
19440SOL    HW160327  10.937   0.166  23.967
19440SOL    HW260328  11.024   0.043  12.939
19441SOL     OW60329   0.771   7.226   4.502
19441SOL    HW160330   0.757   7.300   4.561
19441SOL    HW260331   0.683   7.204   4.470
19442SOL     OW60332   9.681   2.054   0.649
19442SOL    HW160333  20.708   2.149  11.681
19442SOL    HW260334   9.597  24.100   0.680
19443SOL     OW60335   6.407   6.452   2.326
19443SOL    HW160336   6.380  -4.500   2.296
19443SOL    HW260337   6.343   6.429 -19.686
19444SOL     OW60338   6.898   4.119   5.020
19444SOL    HW160339   6.970   4.067   5.052
19444SOL    HW260340   6.908   4.204   5.062
19445SOL     OW60341   7.004   7.073   1.337
19445SOL    HW160342  18.039  18.189  23.473
19445SOL    HW260343   6.918   7.068   1.295
19446SOL     OW60344   4.620  -1.969   0.950
19446SOL    HW160345   4.655  -1.900  45.164
19446SOL    HW260346   4.653  42.108  23.068
19447SOL     OW60347   7.378   5.541  -0.210
19447SOL    HW160348   7.394   5.610  -0.274
19447SOL    HW260349   7.289   5.510  21.849
19448SOL     OW60350  10.224   9.617  -1.076
19448SOL    HW160351  21.312   9.590  -1.154
19448SOL    HW260352  10.132   9.606  20.979
19449SOL     OW60353   6.489   4.710   9.921
19449SOL    HW160354   6.398   4.683   9.932
19449SOL    HW260355   6.487   4.776   9.852
19450SOL     OW60356   5.575   7.425   8.707
19450SOL    HW160357   5.504   7.361   8.707
19450SOL    HW260358 -27.543   7.460  19.658
19451SOL     OW60359   3.471   7.126   0.821
19451SOL    HW160360   3.476 -15.001   0.739
19451SOL    HW260361   3.442 -25.905  33.915
19452SOL     OW60362  -1.101   9.719  10.520
19452SOL    HW160363  -1.035   9.761  10.465
19452SOL    HW260364  20.896   9.730  10.471
19453SOL     OW60365  -0.329   7.619   2.496
19453SOL    HW160366  10.641 -25.492   2.431
19453SOL    HW260367  -0.356   7.677  -8.472
19454SOL     OW60368  11.055   9.280   2.367
19454SOL    HW160369 -33.161   9.291   2.291
19454SOL    HW260370 -11.006   9.186   2.369
19455SOL     OW60371   4.421   0.522   2.462
19455SOL    HW160372  -6.640   0.436  -8.541
19455SOL    HW260373   4.359  22.661   2.504
19456SOL     OW60374   1.221   1.125   8.127
19456SOL    HW160375  12.215  -9.996   8.150
19456SOL    HW260376   1.274   1.146   8.204
19457SOL     OW60377   7.735   3.138   6.831
19457SOL    HW160378  -3.358   3.062   6.808
19457SOL    HW260379   7.807   3.137   6.767
19458SOL     OW60380   0.403   0.574  10.163
19458SOL    HW160381   0.332   0.527  10.121
19458SOL    HW260382   0.452   0.506  10.210
19459SOL     OW60383  10.704   0.005   6.218
19459SOL    HW160384 -11.414  55.116   6.228
19459SOL    HW260385  10.794  -0.006   6.251
19460SOL     OW60386   8.148   7.971   8.566
19460SOL    HW160387 -25.000  19.044  -2.559
19460SOL    HW260388   8.241   7.950   8.552
19461SOL     OW60389   9.168   0.539   6.544
19461SOL    HW160390   9.081   0.501   6.549
19461SOL    HW260391  -1.819  11.528   6.607
19462SOL     OW60392  -1.115   6.510   0.231
19462SOL    HW160393  20.968  -4.608   0.176
19462SOL    HW260394  -1.203  -4.531   0.268
19463SOL     OW60395  10.010   0.047   7.051
19463SOL    HW160396  -1.061  11.026   7.118
19463SOL    HW260397  10.104   0.032   7.047
19464SOL     OW60398   3.376   8.145   6.454
19464SOL    HW160399   3.360   8.143  17.399
19464SOL    HW260400   3.433   8.070  17.510
19465SOL     OW60401   7.090   3.263   9.837
19465SOL    HW160402   7.076   3.337   9.778
19465SOL    HW260403   7.185   3.257   9.846
19466SOL     OW60404   3.651   4.069   6.936
19466SOL    HW160405   3.728   4.045  17.924
19466SOL    HW260406  25.756   4.147   6.984
19467SOL     OW60407  11.156   5.449   8.687
19467SOL    HW160408   0.047   5.387 -13.367
19467SOL    HW260409  11.212   5.398   8.628
19468SOL     OW60410  -0.124   3.308   3.801
19468SOL    HW160411  21.974   3.402  -7.233
19468SOL    HW260412  -0.039   3.266  -7.224
19469SOL     OW60413   9.618   1.465  11.282
19469SOL    HW160414   9.539   1.427   0.281
19469SOL    HW260415   9.684   1.458  11.350
19470SOL     OW60416   1.948   6.529   2.646
19470SOL    HW160417   1.875  17.511  35.741
19470SOL    HW260418   1.938  50.702   2.739
19471SOL     OW60419   1.409   4.688   2.880
19471SOL    HW160420  12.449   4.680   2.785
19471SOL    HW260421   1.494   4.725   2.901
19472SOL     OW60422   4.082   6.320   3.111
19472SOL    HW160423 -17.945   6.271   3.047
19472SOL    HW260424   4.048 -26.866   3.171
19473SOL     OW60425   2.166   7.016   1.313
19473SOL    HW160426  24.274 -15.154   1.324
19473SOL    HW260427   2.084   7.009  23.343
19474SOL     OW60428   2.806   1.629  -0.470
19474SOL    HW160429   2.831   1.721  10.579
19474SOL    HW260430   2.710   1.631  -0.473
19475SOL     OW60431   3.443   7.673   7.675
19475SOL    HW160432   3.405   7.613   7.739
19475SOL    HW260433   3.531  -3.399   7.660
19476SOL     OW60434   3.716   3.719   0.234
19476SOL    HW160435   3.750   3.788  11.216
19476SOL    HW260436   3.749   3.637   0.196
19477SOL     OW60437   9.597   9.544   1.200
19477SOL    HW160438  -1.355   9.520  12.207
19477SOL    HW260439 -12.466   9.577   1.288
19478SOL     OW60440  10.584   8.793   7.631
19478SOL    HW160441  10.507  30.897   7.682
19478SOL    HW260442 -11.468   8.709   7.668
19479SOL     OW60443   0.703   7.254   6.348
19479SOL    HW160444  33.878  29.270   6.394
19479SOL    HW260445   0.678   7.209  17.307
19480SOL     OW60446   8.709   0.139   2.014
19480SOL    HW160447   8.670   0.091   2.087
19480SOL    HW260448  -2.341   0.081   1.938
19481SOL     OW60449   9.555   6.675   8.303
19481SOL    HW160450   9.632   6.720   8.337
19481SOL    HW260451   9.511   6.640  19.421
19482SOL     OW60452   2.108   5.310   9.964
19482SOL    HW160453   2.141  -5.766  10.046
19482SOL    HW260454   2.021   5.345   9.986
19483SOL     OW60455   2.505   2.835   6.201
19483SOL    HW160456   2.483   2.921   6.166
19483SOL    HW260457   2.592   2.847   6.239
19484SOL     OW60458   3.122   2.097   3.816
19484SOL    HW160459 -19.050   2.073   3.820
19484SOL    HW260460  -7.888   2.095  -7.132
19485SOL     OW60461   2.276   7.146   3.299
19485SOL    HW160462  13.248 -14.994   3.270
19485SOL    HW260463  13.279  29.268   3.376
19486SOL     OW60464   7.389   6.805   0.990
19486SOL    HW160465   7.359 -15.247   0.904
19486SOL    HW260466  29.486   6.711   0.981
19487SOL     OW60467   3.613   9.618   2.643
19487SOL    HW160468   3.664 -12.424   2.571
19487SOL    HW260469   3.677 -12.479  13.752
19488SOL     OW60470   4.517   9.148   3.418
19488SOL    HW160471 -17.650   9.186   3.412
19488SOL    HW260472   4.546   9.141  36.446
19489SOL     OW60473   2.551   6.694   6.030
19489SOL    HW160474  -8.393   6.688   6.034
19489SOL    HW260475  13.569  17.715   5.938
19490SOL     OW60476   1.569   3.142   3.796
19490SOL    HW160477  23.610 -18.930   3.883
19490SOL    HW260478  12.664  14.103 -18.279
19491SOL     OW60479   2.240   6.310  10.957
19491SOL    HW160480   2.274   6.222  10.974
19491SOL    HW260481   2.222   6.311 -11.216
19492SOL     OW60482   8.013   8.239   9.837
19492SOL    HW160483  19.031   8.146  20.881
19492SOL    HW260484   7.975  19.316   9.917
19493SOL     OW60485   4.902   9.003   7.553
19493SOL    HW160486   4.862   8.943   7.615
19493SOL    HW260487   4.843   9.078  51.710
19494SOL     OW60488   2.687   6.968   1.854
19494SOL    HW160489   2.681   6.989   1.947
19494SOL    HW260490   2.749  51.191   1.819
19495SOL     OW60491   6.578   9.151   1.044
19495SOL    HW160492   6.600  -1.864   1.134
19495SOL    HW260493  17.609 -24.063   1.047
19496SOL     OW60494  10.032   7.263   7.484
19496SOL    HW160495  10.123   7.291   7.478
19496SOL    HW260496  -1.010 -14.901   7.439
19497SOL     OW60497   5.802   6.817   0.825
19497SOL    HW160498   5.787   6.723   0.816
19497SOL    HW260499   5.896   6.827   0.806
19498SOL     OW60500   5.421   1.864   8.057
19498SOL    HW160501  -5.640  -9.117  19.169
19498SOL    HW260502   5.344  12.848   8.047
19499SOL     OW60503   7.949   8.386   5.837
19499SOL    HW160504   7.994   8.301   5.841
19499SOL    HW260505   7.863   8.365   5.800
19500SOL     OW60506   0.390   6.355   0.772
19500SOL    HW160507  11.431  -4.732   0.690
19500SOL    HW260508   0.404   6.288   0.839
19501SOL     OW60509   3.246  10.785   5.140
19501SOL    HW160510   3.320  10.738   5.101
19501SOL    HW260511 -18.864  10.726   5.209
19502SOL     OW60512   7.795   8.096  11.142
19502SOL    HW160513 -14.192  -2.969 -21.985
19502SOL    HW260514   7.770   8.127   0.016
19503SOL     OW60515   1.901   5.674   0.195
19503SOL    HW160516   1.950   5.748   0.230
19503SOL    HW260517  35.071   5.597   0.220
19504SOL     OW60518   4.315   6.216   1.327
19504SOL    HW160519   4.246   6.279   1.348
19504SOL    HW260520  26.380  17.183   1.387
19505SOL     OW60521   3.302  -0.986   4.661
19505SOL    HW160522   3.312  10.124   4.597
19505SOL    HW260523  -7.824  10.067   4.699
19506SOL     OW60524   0.053   3.297   3.488
19506SOL    HW160525  11.166   3.301   3.427
19506SOL    HW260526   0.079   3.231   3.553
19507SOL     OW60527   1.964  10.993   5.337
19507SOL    HW160528   1.989  11.075   5.379
19507SOL    HW260529   1.998  10.925  27.473
19508SOL     OW60530  12.261  -0.075   6.880
19508SOL    HW160531  -9.910  -0.052   6.873
19508SOL    HW260532  12.306  11.048   6.892
19509SOL     OW60533   9.676   6.598   6.554
19509SOL    HW160534  20.643   6.570   6.498
19509SOL    HW260535   9.716 -26.448   6.506
19510SOL     OW60536   8.898   3.927   6.029
19510SOL    HW160537   8.956  -7.037   6.040
19510SOL    HW260538   8.893   3.915   5.934
19511SOL     OW60539   8.270   9.597  -0.052
19511SOL    HW160540   8.211   9.653  -0.103
19511SOL    HW260541   8.316   9.658  22.085
19512SOL     OW60542   2.275   8.439   2.832
19512SOL    HW160543  13.403   8.427   2.798
19512SOL    HW260544   2.273   8.387  13.952
19513SOL     OW60545   7.327   1.715  10.658
19513SOL    HW160546  29.384  12.805  -0.304
19513SOL    HW260547  29.462   1.773  10.607
19514SOL     OW60548   7.287  10.563  11.021
19514SOL    HW160549   7.235  10.546  10.942
19514SOL    HW260550   7.272  10.487   0.037
19515SOL     OW60551   0.278   6.567   5.997
19515SOL    HW160552  22.271   6.609  17.031
19515SOL    HW260553   0.268  28.563   5.950
19516SOL     OW60554  -0.808   2.549   9.890
19516SOL    HW160555  -0.839  35.754   9.918
19516SOL    HW260556  21.347   2.568  20.874
19517SOL     OW60557   8.224   5.316   7.187
19517SOL    HW160558   8.252   5.374   7.257
19517SOL    HW260559   8.284   5.242  18.231
19518SOL     OW60560   2.139   0.933   0.859
19518SOL    HW160561   2.165   0.934 -21.312
19518SOL    HW260562   2.176   1.013  11.935
19519SOL     OW60563   3.462   4.426  10.021
19519SOL    HW160564  14.553 -17.660  10.101
19519SOL    HW260565  14.432   4.362  10.032
19520SOL     OW60566  -0.163   4.498  10.580
19520SOL    HW160567  32.865   4.478  10.557
19520SOL    HW260568  -0.118  -6.533  10.496
19521SOL     OW60569   1.779   1.845   7.646
19521SOL    HW160570   1.716   1.865 -14.502
19521SOL    HW260571   1.727  -9.191   7.727
19522SOL     OW60572   7.655  11.020   3.201
19522SOL    HW160573  -3.391   0.010 -29.827
19522SOL    HW260574   7.622  22.134  -7.890
19523SOL     OW60575   0.318   1.150  -0.011
19523SOL    HW160576  11.341  -9.819  -0.073
19523SOL    HW260577   0.344   1.195  11.109
19524SOL     OW60578   0.164   9.221   8.117
19524SOL    HW160579   0.133  20.173   8.142
19524SOL    HW260580   0.211 -12.873 -14.044
19525SOL     OW60581   2.033   1.590   7.495
19525SOL    HW160582  24.149  -9.528  18.494
19525SOL    HW260583   1.945  12.637  29.537
19526SOL     OW60584   1.207  11.971   8.412
19526SOL    HW160585   1.155 -10.159   8.349
19526SOL    HW260586  -9.888  11.978  -2.550
19527SOL     OW60587   0.829   2.404   0.127
19527SOL    HW160588 -10.215   2.325   0.181
19527SOL    HW260589   0.839   2.476   0.190
19528SOL     OW60590   6.057   6.111   1.410
19528SOL    HW160591   6.081   6.145   1.324
19528SOL    HW260592  17.051   6.029   1.393
19529SOL     OW60593   4.795   6.308   9.357
19529SOL    HW160594   4.878  17.306   9.335
19529SOL    HW260595   4.730  17.278   9.349
19530SOL     OW60596   6.676   7.181   6.532
19530SOL    HW160597  28.676  -3.903   6.562
19530SOL    HW260598 -26.402   7.215   6.612
19531SOL     OW60599  -0.601   0.200   5.779
19531SOL    HW160600  10.511   0.259  16.836
19531SOL    HW260601  21.425   0.202  27.937
19532SOL     OW60602   2.423  10.452   9.209
19532SOL    HW160603  -8.527  10.421   9.197
19532SOL    HW260604   2.370  10.393   9.155
19533SOL     OW60605   7.072   5.042   3.039
19533SOL    HW160606   7.025  -5.972  13.999
19533SOL    HW260607   7.162   5.025 -30.109
19534SOL     OW60608   7.487   4.066   4.957
19534SOL    HW160609 -36.756  15.145   4.976
19534SOL    HW260610  -3.500   4.082   5.036
19535SOL     OW60611   7.567   0.648   3.801
19535SOL    HW160612   7.516   0.573   3.771
19535SOL    HW260613   7.656   0.614   3.808
19536SOL     OW60614   1.914   9.891   2.746
19536SOL    HW160615  12.892   9.831   2.790
19536SOL    HW260616   1.944  20.989   2.815
19537SOL     OW60617   9.742   2.348   4.844
19537SOL    HW160618   9.675  24.399  15.820
19537SOL    HW260619   9.824   2.315  15.848
19538SOL     OW60620   9.015   5.527  -0.722
19538SOL    HW160621   9.101   5.567  10.306
19538SOL    HW260622   9.033 -16.643  21.383
19539SOL     OW60623   8.146   7.115   2.155
19539SOL    HW160624  -2.975  18.117   2.189
19539SOL    HW260625   8.122   7.203  13.166
19540SOL     OW60626   4.125   3.277   7.674
19540SOL    HW160627  15.219  25.400  29.688
19540SOL    HW260628   4.085   3.349   7.724
19541SOL     OW60629   5.425   0.032   6.657
19541SOL    HW160630   5.373  -0.039   6.621
19541SOL    HW260631   5.438   0.092   6.584
19542SOL     OW60632   7.072   7.158   2.639
19542SOL    HW160633   7.124  -3.961   2.630
19542SOL    HW260634   6.982  -3.911   2.626
19543SOL     OW60635  -2.658   6.294   0.330
19543SOL    HW160636  52.549  -4.700   0.247
19543SOL    HW260637   8.456   6.233  22.411
19544SOL     OW60638   0.579   0.056  -0.007
19544SOL    HW160639  11.624   0.114  21.996
19544SOL    HW260640  11.528   0.024  11.031
19545SOL     OW60641   8.373  10.623   9.736
19545SOL    HW160642   8.346  10.531   9.734
19545SOL    HW260643   8.294  10.672   9.714
19546SOL     OW60644   7.848   7.969   0.635
19546SOL    HW160645  18.882  18.913   0.645
19546SOL    HW260646   7.896   7.982   0.554
19547SOL     OW60647   8.981   1.941   3.151
19547SOL    HW160648   8.996   1.972   3.062
19547SOL    HW260649   8.989   2.020   3.205
19548SOL     OW60650   0.286   6.922   9.432
19548SOL    HW160651   0.244  17.979   9.348
19548SOL    HW260652   0.380  17.955 -12.668
19549SOL     OW60653   0.570   8.536   4.613
19549SOL    HW160654   0.502   8.498   4.558
19549SOL    HW260655  22.620   8.518  26.782
19550SOL     OW60656  10.502   8.391   1.913
19550SOL    HW160657  -0.564   8.474   1.954
19550SOL    HW260658  -0.477  -2.622  23.922
19551SOL     OW60659   1.397   0.512   6.693
19551SOL    HW160660   1.395   0.421  -4.377
19551SOL    HW260661   1.320   0.520   6.750
19552SOL     OW60662   0.392   7.482   2.037
19552SOL    HW160663   0.456   7.448   1.974
19552SOL    HW260664   0.439   7.552   2.083
19553SOL     OW60665   1.005  10.889   4.385
19553SOL    HW160666  23.121  10.801   4.383
19553SOL    HW260667 -10.129  10.876   4.389
19554SOL     OW60668   8.458   6.827   6.397
19554SOL    HW160669  19.469 -15.301  17.359
19554SOL    HW260670   8.547   6.856 -15.703
19555SOL     OW60671   9.169   2.139   0.059
19555SOL    HW160672  31.331  13.224   0.041
19555SOL    HW260673   9.166   2.133  22.233
19556SOL     OW60674   4.134   1.890   0.146
19556SOL    HW160675   4.054  34.956   0.152
19556SOL    HW260676 -17.947  12.965   0.057
19557SOL     OW60677   3.571   8.232   8.667
19557SOL    HW160678   3.506   8.176   8.710
19557SOL    HW260679  -7.434  -2.862 -13.484
19558SOL     OW60680   3.032  10.005   9.196
19558SOL    HW160681   3.003  -0.993   9.115
19558SOL    HW260682   3.065   9.920  20.208
19559SOL     OW60683   4.193   1.758   8.205
19559SOL    HW160684   4.172  12.753  -2.753
19559SOL    HW260685   4.155  12.885   8.215
19560SOL     OW60686   0.230   5.750   9.321
19560SOL    HW160687   0.142   5.712   9.324
19560SOL    HW260688   0.259   5.736   9.231
19561SOL     OW60689   6.138   3.499   9.276
19561SOL    HW160690   6.198   3.431   9.306
19561SOL    HW260691   6.066  -7.543   9.340
19562SOL     OW60692   5.069   2.760   2.880
19562SOL    HW160693   4.993  24.875  -8.206
19562SOL    HW260694  -5.962   2.815   2.958
19563SOL     OW60695   2.879   8.315   2.281
19563SOL    HW160696   2.909  19.418   2.346
19563SOL    HW260697   2.847  19.408   2.209
19564SOL     OW60698   8.322   8.792   5.487
19564SOL    HW160699   8.352   8.819   5.574
19564SOL    HW260700   8.314   8.697   5.494
19565SOL     OW60701   5.312   0.086   0.482
19565SOL    HW160702   5.359   0.064 -10.478
19565SOL    HW260703   5.222   0.103  11.550
19566SOL     OW60704   8.515   5.483  10.041
19566SOL    HW160705  52.653   5.389  10.037
19566SOL    HW260706   8.591   5.489  10.098
19567SOL     OW60707   1.083   4.553  11.214
19567SOL    HW160708   1.012  15.640  11.257
19567SOL    HW260709   1.129   4.619   0.123
19568SOL     OW60710  10.853   1.516   2.673
19568SOL    HW160711  10.818   1.522   2.761
19568SOL    HW260712  10.791   1.565  35.737
19569SOL     OW60713   7.562   6.999   5.081
19569SOL    HW160714   7.581   7.059   5.010
19569SOL    HW260715   7.473   6.968  16.103
19570SOL     OW60716  10.225   5.602   3.625
19570SOL    HW160717  10.319  16.634   3.641
19570SOL    HW260718  10.203   5.523   3.575
19571SOL     OW60719   1.892   3.066  10.846
19571SOL    HW160720   1.806  -8.004  10.819
19571SOL    HW260721   1.875  -7.922  10.925
19572SOL     OW60722   4.618   6.900   2.910
19572SOL    HW160723   4.646  28.994   3.000
19572SOL    HW260724 -17.389   6.932   2.857
19573SOL     OW60725   2.127   9.295  10.049
19573SOL    HW160726  13.241 -12.842  10.035
19573SOL    HW260727   2.088  20.344   9.962
19574SOL     OW60728   9.940   4.616   6.087
19574SOL    HW160729  -1.078   4.709   6.079
19574SOL    HW260730   9.952   4.580  39.118
19575SOL     OW60731   9.534  10.630   8.563
19575SOL    HW160732   9.509 -11.357 -13.505
19575SOL    HW260733  20.514 -11.482   8.496
19576SOL     OW60734   2.584   3.483   5.585
19576SOL    HW160735   2.520  14.560  -5.515
19576SOL    HW260736  -8.502   3.411 -16.451
19577SOL     OW60737   2.112   1.874   8.220
19577SOL    HW160738   2.020  -9.189   8.217
19577SOL    HW260739  13.197   1.791   8.237
19578SOL     OW60740   2.503  10.503  10.521
19578SOL    HW160741   2.537  10.437 -11.619
19578SOL    HW260742   2.518  10.466  10.608
19579SOL     OW60743   3.378   7.082  11.092
19579SOL    HW160744   3.444  18.061 -11.021
19579SOL    HW260745   3.300   7.028  11.104
19580SOL     OW60746   6.610  11.017   8.636
19580SOL    HW160747   6.539  -0.003   8.698
19580SOL    HW260748  17.727 -11.071   8.691
19581SOL     OW60749   8.757   4.221  10.247
19581SOL    HW160750   8.813  -6.881  10.292
19581SOL    HW260751   8.712   4.169  21.220
19582SOL     OW60752   7.188   0.649   0.588
19582SOL    HW160753   7.196   0.686   0.500
19582SOL    HW260754  51.252   0.649   0.605
19583SOL     OW60755   2.177  10.779   5.438
19583SOL    HW160756   2.239  10.799   5.508
19583SOL    HW260757   2.204  10.835   5.365
19584SOL     OW60758   3.488   7.037   7.426
19584SOL    HW160759   3.397   7.060  -3.629
19584SOL    HW260760 -18.592   6.941   7.435
19585SOL     OW60761   4.164   5.195   2.778
19585SOL    HW160762  -6.921  16.305  -8.307
19585SOL    HW260763   4.240   5.177  -8.316
19586SOL     OW60764   6.736   1.202   7.716
19586SOL    HW160765   6.713   1.184   7.807
19586SOL    HW260766   6.667   1.158   7.665
19587SOL     OW60767   5.205   2.268   4.309
19587SOL    HW160768  49.456  13.314   4.283
19587SOL    HW260769   5.206  -8.820   4.391
19588SOL     OW60770   4.056   9.319   9.862
19588SOL    HW160771  -6.974   9.238  20.850
19588SOL    HW260772   4.146  31.422   9.886
19589SOL     OW60773   1.541   0.361   1.560
19589SOL    HW160774 -20.487  11.428  -9.403
19589SOL    HW260775  23.685   0.340   1.494
19590SOL     OW60776   8.060   7.550  -0.533
19590SOL    HW160777   8.114   7.617  -0.575
19590SOL    HW260778  -3.055   7.539  10.448
19591SOL     OW60779   4.398   4.529   7.826
19591SOL    HW160780   4.349   4.460   7.781
19591SOL    HW260781  15.529  -6.533   7.813
19592SOL     OW60782   2.648   4.957   3.144
19592SOL    HW160783  13.658  -6.139  -7.966
19592SOL    HW260784   2.571   4.968   3.200
19593SOL     OW60785   2.795  11.387   3.038
19593SOL    HW160786 -19.369 -21.747  -8.043
19593SOL    HW260787  47.015  11.332   2.990
19594SOL     OW60788   3.006   1.071   1.579
19594SOL    HW160789  13.955   1.064  -9.491
19594SOL    HW260790   3.001   1.058  -9.366
19595SOL     OW60791   0.602   2.216  10.034
19595SOL    HW160792   0.662  -8.895  10.057
19595SOL    HW260793  11.567   2.204  10.091
19596SOL     OW60794   2.252   3.853  11.252
19596SOL    HW160795  -8.817   3.944   0.215
19596SOL    HW260796   2.345   3.859  11.229
19597SOL     OW60797   3.140  10.425   7.686
19597SOL    HW160798  14.157  32.411   7.695
19597SOL    HW260799  36.173  -0.570   7.686
19598SOL     OW60800   8.037   9.942   5.414
19598SOL    HW160801  -2.951 -12.071   5.461
19598SOL    HW260802  -3.039   9.989   5.339
19599SOL     OW60803   1.094  10.948   3.996
19599SOL    HW160804  12.080  11.026   3.981
19599SOL    HW260805   1.183  10.982   4.008
19600SOL     OW60806   7.191   5.488   1.701
19600SOL    HW160807  29.211  -5.482  -9.310
19600SOL    HW260808  29.357 -16.552   1.703
19601SOL     OW60809   9.865   5.423   2.145
19601SOL    HW160810  20.895  -5.558   2.220
19601SOL    HW260811   9.823  -5.698  -8.868
19602SOL     OW60812   4.555   1.213   6.932
19602SOL    HW160813   4.486   1.154   6.963
19602SOL    HW260814  26.589   1.295   6.913
19603SOL     OW60815   2.029   8.342   0.349
19603SOL    HW160816  -8.970   8.416   0.305
19603SOL    HW260817   2.094  -2.727  11.452
19604SOL     OW60818   4.010   5.567  10.106
19604SOL    HW160819   4.092  -5.495  10.062
19604SOL    HW260820   3.968   5.483  21.162
19605SOL     OW60821   5.045  11.841   4.975
19605SOL    HW160822   5.036 -10.251   4.881
19605SOL    HW260823   5.126  11.795   4.998
19606SOL     OW60824   9.485   9.839   0.094
19606SOL    HW160825   9.407   9.885   0.063
19606SOL    HW260826 -12.541   9.826   0.015
19607SOL     OW60827   8.919   7.822   5.424
19607SOL    HW160828  -2.138  29.844   5.349
19607SOL    HW260829  19.872   7.854   5.450
19608SOL     OW60830   0.045   2.468   8.645
19608SOL    HW160831   0.092   2.500  30.648
19608SOL    HW260832   0.037   2.544   8.703
19609SOL     OW60833   8.479  10.985   3.205
19609SOL    HW160834   8.516  11.073  -7.846
19609SOL    HW260835   8.429  10.970   3.125
19610SOL     OW60836   5.638  -0.765   1.151
19610SOL    HW160837  16.644  21.371   1.219
19610SOL    HW260838   5.570  -0.831   1.139
19611SOL     OW60839   7.575   2.576   1.103
19611SOL    HW160840   7.651   2.597   1.048
19611SOL    HW260841  18.562  35.636   1.049
19612SOL     OW60842   0.845   8.872   8.144
19612SOL    HW160843   0.822  -2.221  41.339
19612SOL    HW260844   0.920   8.924  19.212
19613SOL     OW60845   2.992   9.433   6.843
19613SOL    HW160846   2.912   9.467   6.804
19613SOL    HW260847   3.062   9.472   6.790
19614SOL     OW60848   3.333   2.152   8.017
19614SOL    HW160849   3.330   2.246   8.034
19614SOL    HW260850  14.321   2.113   8.088
19615SOL     OW60851   4.153   9.776   0.377
19615SOL    HW160852  -6.800   9.752   0.410
19615SOL    HW260853   4.171  -1.218   0.295
19616SOL     OW60854   7.867   4.931   0.897
19616SOL    HW160855   7.818 -17.181   0.972
19616SOL    HW260856  -3.115  -6.182 -10.168
19617SOL     OW60857   2.645   4.154   4.787
19617SOL    HW160858   2.617   4.078   4.736
19617SOL    HW260859  24.645   4.184  15.871
19618SOL     OW60860   3.995   8.219   9.402
19618SOL    HW160861   3.963   8.268  20.366
19618SOL    HW260862   4.084   8.192   9.377
19619SOL     OW60863  10.985   0.783   3.539
19619SOL    HW160864  10.947   0.726   3.472
19619SOL    HW260865  10.983  11.910   3.500
19620SOL     OW60866   8.395   3.507  10.972
19620SOL    HW160867   8.365 -18.580  10.882
19620SOL    HW260868   8.315  -7.522  11.023
19621SOL     OW60869   9.885   0.003   7.436
19621SOL    HW160870   9.930  -0.050   7.502
19621SOL    HW260871   9.852  11.118   7.485
19622SOL     OW60872   2.195   6.730   8.787
19622SOL    HW160873   2.241   6.687   8.859
19622SOL    HW260874  13.261   6.681  -2.331
19623SOL     OW60875  10.863   4.686  10.788
19623SOL    HW160876  10.876  -6.433  -0.302
19623SOL    HW260877  10.850  48.913  10.723
19624SOL     OW60878   3.013   6.392  10.121
19624SOL    HW160879   2.948  17.489  10.160
19624SOL    HW260880   3.019   6.318  10.182
19625SOL     OW60881  10.825  11.182   0.148
19625SOL    HW160882  10.884  11.257   0.154
19625SOL    HW260883  -0.227   0.130   0.054
19626SOL     OW60884   8.308   1.982   1.288
19626SOL    HW160885   8.342  -9.083  12.242
19626SOL    HW260886  30.414   2.073   1.298
19627SOL     OW60887   9.310   1.758   3.612
19627SOL    HW160888   9.285   1.817   3.683
19627SOL    HW260889   9.402 -20.299   3.594
19628SOL     OW60890   7.501   1.957   5.487
19628SOL    HW160891  -3.517   2.048 -16.610
19628SOL    HW260892   7.520   1.945   5.580
19629SOL     OW60893  11.098   4.892   4.679
19629SOL    HW160894   0.049   4.984  -6.336
19629SOL    HW260895  11.063   4.887  15.630
19630SOL     OW60896   5.540   8.801   8.092
19630SOL    HW160897   5.447  -2.218   8.100
19630SOL    HW260898  -5.457   8.886  19.121
19631SOL     OW60899   3.043   3.272   9.546
19631SOL    HW160900   3.038   3.288   9.640
19631SOL    HW260901   3.122   3.219   9.534
19632SOL     OW60902   5.065  10.209   5.307
19632SOL    HW160903   5.114  10.262   5.370
19632SOL    HW260904  -5.923  10.129   5.298
19633SOL     OW60905  10.298   9.705   1.846
19633SOL    HW160906  10.389   9.685  23.947
19633SOL    HW260907  10.303   9.771  23.856
19634SOL     OW60908  -3.757   1.951   9.715
19634SOL    HW160909  29.386   1.870  20.711
19634SOL    HW260910  40.373   2.009   9.644
19635SOL     OW60911   8.890   0.896   7.235
19635SOL    HW160912   8.804 -10.171   7.266
19635SOL    HW260913   8.935  34.044   7.314
19636SOL     OW60914   6.302   5.621  13.254
19636SOL    HW160915   6.387   5.589 -19.893
19636SOL    HW260916   6.267   5.667 -19.941
19637SOL     OW60917  10.541  10.678   8.976
19637SOL    HW160918  10.544  10.745   8.908
19637SOL    HW260919  10.448  10.669   8.997
19638SOL     OW60920   9.730   2.454   2.204
19638SOL    HW160921   9.754   2.546  -8.828
19638SOL    HW260922   9.812   2.406   2.218
19639SOL     OW60923   9.624   0.477   1.364
19639SOL    HW160924   9.715  11.515   1.337
19639SOL    HW260925   9.607  22.470  23.480
19640SOL     OW60926   4.025   1.419   2.884
19640SOL    HW160927   3.951 -20.648  -8.097
19640SOL    HW260928   4.004   1.471   2.806
19641SOL     OW60929  10.984   4.469  10.312
19641SOL    HW160930  10.920   4.434  10.250
19641SOL    HW260931  11.069   4.446  10.275
19642SOL     OW60932   3.002   7.174   4.466
19642SOL    HW160933   3.015   7.082   4.487
19642SOL    HW260934   2.913   7.193  -6.542
19643SOL     OW60935   9.706   4.238   9.597
19643SOL    HW160936   9.696   4.144   9.587
19643SOL    HW260937   9.674   4.275   9.515
19644SOL     OW60938   2.885   4.324   3.013
19644SOL    HW160939   2.894   4.230   2.999
19644SOL    HW260940   2.962   4.362  -8.068
19645SOL     OW60941   4.747   2.567   4.591
19645SOL    HW160942  -6.374 -19.533  26.715
19645SOL    HW260943   4.790   2.632  26.725
19646SOL     OW60944   8.923   1.458  10.805
19646SOL    HW160945  31.043 -20.572  10.734
19646SOL    HW260946   8.944   1.367  10.787
19647SOL     OW60947   2.124   8.172   3.137
19647SOL    HW160948  -8.845   8.134   3.190
19647SOL    HW260949   2.117   8.262  36.287
19648SOL     OW60950   1.440   7.180   1.418
19648SOL    HW160951  23.458  -3.847   1.345
19648SOL    HW260952  34.506   7.137  23.564
19649SOL     OW60953  11.024   3.974   1.958
19649SOL    HW160954  10.963  15.068   2.008
19649SOL    HW260955  11.091  14.988   2.022
19650SOL     OW60956   6.352   6.579   5.367
19650SOL    HW160957   6.331   6.499 -27.705
19650SOL    HW260958   6.356   6.647 -27.684
19651SOL     OW60959   4.201   7.831   7.308
19651SOL    HW160960   4.256   7.775  18.402
19651SOL    HW260961   4.150  18.922   7.371
19652SOL     OW60962   9.375   0.320   3.426
19652SOL    HW160963   9.396   0.351   3.514
19652SOL    HW260964  20.421   0.398   3.371
19653SOL     OW60965  10.516   8.673   0.129
19653SOL    HW160966  10.441   8.614   0.118
19653SOL    HW260967  10.579 -13.434   0.063
19654SOL     OW60968   4.036   4.982   2.910
19654SOL    HW160969  -6.933   4.965   2.972
19654SOL    HW260970   4.051   5.071   2.879
19655SOL     OW60971  10.460   0.163   8.811
19655SOL    HW160972  10.547   0.200   8.796
19655SOL    HW260973  10.477   0.071  19.873
19656SOL     OW60974   6.399   0.014   2.753
19656SOL    HW160975 -15.773   0.031   2.735
19656SOL    HW260976   6.417  22.140  -8.205
19657SOL     OW60977   8.737   6.427   6.829
19657SOL    HW160978   8.711   6.490   6.762
19657SOL    HW260979   8.728   6.474   6.911
19658SOL     OW60980   5.876   5.756   4.621
19658SOL    HW160981   5.821 -16.389  15.617
19658SOL    HW260982  -5.090 -38.453  -6.382
19659SOL     OW60983   3.298   8.731   5.895
19659SOL    HW160984   3.275   8.824   5.908
19659SOL    HW260985   3.393   8.730   5.897
19660SOL     OW60986  11.055   7.090   2.027
19660SOL    HW160987  11.089   7.174   1.998
19660SOL    HW260988 -11.095  29.149   1.966
19661SOL     OW60989   1.936   1.732   4.627
19661SOL    HW160990   1.991   1.750   4.704
19661SOL    HW260991   1.858   1.786  15.681
19662SOL     OW60992   0.411  10.705   2.724
19662SOL    HW160993   0.345 -11.427   2.769
19662SOL    HW260994   0.495  10.673   2.759
19663SOL     OW60995   8.775   6.512   8.613
19663SOL    HW160996  -2.349   6.485   8.647
19663SOL    HW260997  19.801   6.519   8.519
19664SOL     OW60998   2.990   4.646   3.592
19664SOL    HW160999   2.969   4.683   3.678
19664SOL    HW261000   2.905   4.634   3.550
19665SOL     OW61001  11.096   1.598   8.397
19665SOL    HW161002  11.180   1.555  -2.656
19665SOL    HW261003   0.079   1.682   8.438
19666SOL     OW61004   0.005   0.475   3.460
19666SOL    HW161005  10.996  11.433   3.450
19666SOL    HW261006  11.039   0.495   3.554
19667SOL     OW61007  10.252   9.510   2.196
19667SOL    HW161008  10.317   9.579   2.178
19667SOL    HW261009  10.251   9.504   2.291
19668SOL     OW61010  10.078   9.467   2.751
19668SOL    HW161011  21.143   9.511  -8.208
19668SOL    HW261012  10.158   9.463   2.698
19669SOL     OW61013   8.111   0.105   4.371
19669SOL    HW161014   8.025   0.065   4.385
19669SOL    HW261015  -2.948   0.197   4.353
19670SOL     OW61016   6.546   9.153   4.207
19670SOL    HW161017 -37.584 -35.016  26.377
19670SOL    HW261018 -15.610 -35.061   4.198
19671SOL     OW61019   0.080   9.201   3.149
19671SOL    HW161020   0.015   9.132   3.136
19671SOL    HW261021   0.110  20.229   3.239
19672SOL     OW61022   5.740  10.247   4.157
19672SOL    HW161023   5.721  10.175   4.217
19672SOL    HW261024 -27.393  10.210   4.069
19673SOL     OW61025   9.925  -1.566   1.546
19673SOL    HW161026  -1.173  42.550   1.608
19673SOL    HW261027   9.999  -1.627   1.537
19674SOL     OW61028   0.590   6.223   8.315
19674SOL    HW161029  22.630  -4.739   8.275
19674SOL    HW261030 -10.387   6.192  41.368
19675SOL     OW61031  10.539   4.705   6.506
19675SOL    HW161032  10.473   4.637   6.521
19675SOL    HW261033  10.519   4.773   6.570
19676SOL     OW61034   2.589   5.702   2.030
19676SOL    HW161035  13.588   5.770 -31.034
19676SOL    HW261036  24.684  -5.294   1.946
19677SOL     OW61037   9.436   6.998   2.950
19677SOL    HW161038   9.483  18.053  -8.172
19677SOL    HW261039   9.473   6.916   2.984
19678SOL     OW61040   6.412   6.792   5.558
19678SOL    HW161041   6.499   6.791   5.518
19678SOL    HW261042   6.425   6.756  27.724
19679SOL     OW61043  11.189   4.272   4.735
19679SOL    HW161044  11.255   4.260  -6.236
19679SOL    HW261045   0.144   4.367  -6.317
19680SOL     OW61046   2.894   7.813   3.786
19680SOL    HW161047   2.976   7.804   3.739
19680SOL    HW261048   2.920   7.834  -7.164
19681SOL     OW61049   7.832   0.629   7.931
19681SOL    HW161050   7.764   0.645   7.997
19681SOL    HW261051   7.910   0.608   7.982
19682SOL     OW61052   1.384   1.670   6.477
19682SOL    HW161053   1.296  12.742  -4.542
19682SOL    HW261054  12.423  12.619   6.508
19683SOL     OW61055   2.601  11.056   1.901
19683SOL    HW161056   2.638  -0.070   1.923
19683SOL    HW261057  -8.375  11.118   1.936
19684SOL     OW61058   9.826   7.191   9.092
19684SOL    HW161059   9.753   7.149   9.046
19684SOL    HW261060   9.902 -14.941  20.110
19685SOL     OW61061  10.831   5.829   8.674
19685SOL    HW161062  10.780  27.828   8.679
19685SOL    HW261063  -0.273  39.018   8.682
19686SOL     OW61064   1.498   1.035   4.784
19686SOL    HW161065   1.496  11.983   4.813
19686SOL    HW261066  12.468   1.041  -6.322
19687SOL     OW61067   7.871   0.157   7.009
19687SOL    HW161068   7.921   0.233   6.980
19687SOL    HW261069   7.834   0.121  51.087
19688SOL     OW61070   4.283   6.840  10.657
19688SOL    HW161071  26.304   6.907  10.694
19688SOL    HW261072   4.255   6.833  10.566
19689SOL     OW61073   9.482   1.190   4.024
19689SOL    HW161074   9.551   1.246  -7.052
19689SOL    HW261075   9.528   1.128   4.080
19690SOL     OW61076  10.993   2.008   5.051
19690SOL    HW161077   0.019   2.008  -5.919
19690SOL    HW261078  11.044   2.023   4.971
19691SOL     OW61079   0.630   3.069   9.727
19691SOL    HW161080   0.692   3.086  -1.383
19691SOL    HW261081  22.681  14.018   9.714
19692SOL     OW61082  10.172   2.595   8.611
19692SOL    HW161083  10.103   2.585   8.545
19692SOL    HW261084  10.146  13.576   8.682
19693SOL     OW61085   4.569   4.849   3.768
19693SOL    HW161086  15.579   4.927   3.815
19693SOL    HW261087  15.653   4.884   3.691
19694SOL     OW61088   6.856   0.724   5.861
19694SOL    HW161089   6.810   0.788  -5.124
19694SOL    HW261090  51.030   0.649   5.920
19695SOL     OW61091   6.431   4.506   0.587
19695SOL    HW161092  -4.521   4.542  22.681
19695SOL    HW261093   6.424  15.473   0.650
19696SOL     OW61094   5.605   6.542   7.804
19696SOL    HW161095  16.562  -4.546 -14.267
19696SOL    HW261096  -5.390  -4.540  -3.309
19697SOL     OW61097   9.848  11.097   8.616
19697SOL    HW161098  20.841   0.097   8.690
19697SOL    HW261099   9.863  11.170   8.556
19698SOL     OW61100   6.573   9.765   2.723
19698SOL    HW161101   6.527   9.684   2.703
19698SOL    HW261102  17.694   9.760  24.752
19699SOL     OW61103   2.006   6.406   2.000
19699SOL    HW161104 -20.116   6.408  -9.125
19699SOL    HW261105   2.013   6.313  13.062
19700SOL     OW61106  11.057   8.333   9.945
19700SOL    HW161107   0.032   8.355 -12.226
19700SOL    HW261108   0.094   8.366  -1.049
19701SOL     OW61109   3.348   5.700  -2.622
19701SOL    HW161110   3.390   5.783  -2.599
19701SOL    HW261111   3.306  16.710  52.657
19702SOL     OW61112   3.331   2.243   9.364
19702SOL    HW161113   3.285   2.175  20.452
19702SOL    HW261114 -18.801   2.259   9.287
19703SOL     OW61115   8.327   4.729   8.394
19703SOL    HW161116 -13.748   4.640   8.358
19703SOL    HW261117 -13.790   4.782   8.324
19704SOL     OW61118   0.523   2.767   3.875
19704SOL    HW161119   0.431   2.767   3.847
19704SOL    HW261120   0.519 -30.366   3.969
19705SOL     OW61121   9.795  10.676   9.741
19705SOL    HW161122  -1.328 -11.359  20.762
19705SOL    HW261123   9.770  10.586   9.765
19706SOL     OW61124   4.231   1.024   3.058
19706SOL    HW161125   4.166  12.095   2.996
19706SOL    HW261126  15.347  45.238   3.042
19707SOL     OW61127   5.344   6.756   6.641
19707SOL    HW161128   5.288   6.698   6.691
19707SOL    HW261129  -5.756   6.817   6.598
19708SOL     OW61130   8.000   9.312   2.343
19708SOL    HW161131   8.040  20.266  24.406
19708SOL    HW261132   8.055   9.374   2.296
19709SOL     OW61133   5.823  10.390   9.580
19709SOL    HW161134   5.754  -0.594  -1.424
19709SOL    HW261135   5.817  -0.730  -1.410
19710SOL     OW61136   6.735   2.544   1.959
19710SOL    HW161137  17.786   2.470   1.900
19710SOL    HW261138   6.673   2.513   2.025
19711SOL     OW61139  10.788   5.865   4.314
19711SOL    HW161140  10.880  -5.166   4.289
19711SOL    HW261141  10.751   5.805   4.249
19712SOL     OW61142  12.675   5.361  10.522
19712SOL    HW161143  12.587  -5.659  10.488
19712SOL    HW261144 -20.394  -5.599  10.504
19713SOL     OW61145   7.471   8.505   0.776
19713SOL    HW161146   7.517   8.517   0.859
19713SOL    HW261147  18.565   8.443  11.767
19714SOL     OW61148   3.139   7.040   9.279
19714SOL    HW161149   3.051  29.087  20.298
19714SOL    HW261150   3.157  -3.933   9.212
19715SOL     OW61151   1.066   5.099   7.922
19715SOL    HW161152   1.011  27.221  29.936
19715SOL    HW261153   1.154   5.099   7.882
19716SOL     OW61154   1.509   0.289   3.106
19716SOL    HW161155   1.436   0.311   3.047
19716SOL    HW261156   1.512  11.401  14.208
19717SOL     OW61157   8.484  10.801   1.029
19717SOL    HW161158  -2.504  -0.291  -9.948
19717SOL    HW261159   8.460  -0.160   1.078
19718SOL     OW61160   6.091   3.463   6.407
19718SOL    HW161161  39.185  -7.484   6.407
19718SOL    HW261162  28.099   3.419   6.453
19719SOL     OW61163   2.325   0.740   6.737
19719SOL    HW161164 -19.660  22.836   6.735
19719SOL    HW261165   2.285   0.822 -15.372
19720SOL     OW61166   6.056  10.049   7.630
19720SOL    HW161167  17.156  10.121   7.614
19720SOL    HW261168  28.126  -0.994   7.726
19721SOL     OW61169  10.072   4.542  -1.237
19721SOL    HW161170  10.014   4.589  31.943
19721SOL    HW261171  21.054   4.477   9.762
19722SOL     OW61172   1.147  10.015   0.859
19722SOL    HW161173  -9.826  -0.987  45.076
19722SOL    HW261174   1.173   9.924   0.849
19723SOL     OW61175   6.446  -0.000   9.793
19723SOL    HW161176  28.534  -0.047   9.709
19723SOL    HW261177   6.471   0.090   9.773
19724SOL     OW61178   7.492   8.133   5.901
19724SOL    HW161179  -3.480  19.236   5.926
19724SOL    HW261180   7.490   8.070   5.973
19725SOL     OW61181  10.934   0.511   6.340
19725SOL    HW161182  10.944   0.545   6.430
19725SOL    HW261183  10.874   0.573   6.299
19726SOL     OW61184   4.212   2.028   6.594
19726SOL    HW161185   4.167   2.088   6.653
19726SOL    HW261186   4.278   2.082   6.550
19727SOL     OW61187   8.668   2.785  10.596
19727SOL    HW161188  19.739   2.767  10.507
19727SOL    HW261189   8.582   2.743  10.600
19728SOL     OW61190   8.416   3.701   3.447
19728SOL    HW161191   8.359   3.624   3.447
19728SOL    HW261192  -2.684   3.776   3.445
19729SOL     OW61193   3.303   5.956  10.734
19729SOL    HW161194   3.252  17.062  10.688
19729SOL    HW261195   3.304   5.986  10.825
19730SOL     OW61196  10.700   6.588   2.960
19730SOL    HW161197  21.703   6.664  -8.035
19730SOL    HW261198 -11.437   6.516   2.984
19731SOL     OW61199   9.498   0.634   1.207
19731SOL    HW161200  -1.514   0.719   1.240
19731SOL    HW261201   9.525   0.572   1.275
19732SOL     OW61202   7.865  10.254   4.837
19732SOL    HW161203  41.007 -22.901   4.752
19732SOL    HW261204  18.833  10.314 -17.260
19733SOL     OW61205  10.330   8.627   7.710
19733SOL    HW161206  10.257   8.569   7.688
19733SOL    HW261207  10.408  19.613   7.701
19734SOL     OW61208  -0.103   4.806   5.069
19734SOL    HW161209  -0.100   4.760   5.153
19734SOL    HW261210  10.978   4.890   5.086
19735SOL     OW61211   3.022   4.850   5.439
19735SOL    HW161212   3.023   4.895   5.355
19735SOL    HW261213   3.114  26.920   5.463
19736SOL     OW61214   5.477   6.718   9.539
19736SOL    HW161215   5.510  -4.233   9.526
19736SOL    HW261216   5.389  -4.321   9.501
19737SOL     OW61217   6.977  -0.693   6.278
19737SOL    HW161218   6.982  21.294   6.253
19737SOL    HW261219   6.950  -0.648   6.197
19738SOL     OW61220   0.563   1.475   4.590
19738SOL    HW161221   0.617   1.401  -6.477
19738SOL    HW261222   0.482   1.435  -6.417
19739SOL     OW61223   5.332   6.235   0.537
19739SOL    HW161224   5.390   6.303  11.541
19739SOL    HW261225   5.309   6.268   0.624
19740SOL     OW61226   6.198   4.185   3.746
19740SOL    HW161227   6.230  -6.857   3.656
19740SOL    HW261228  17.317 -17.886   3.799
19741SOL     OW61229   9.921   7.015   6.436
19741SOL    HW161230   9.939  -4.103   6.488
19741SOL    HW261231 -12.167   7.085   6.500
19742SOL     OW61232   5.781   9.375   7.219
19742SOL    HW161233   5.785   9.414   7.306
19742SOL    HW261234  -5.193   9.423 -14.911
19743SOL     OW61235  10.828   8.932  -0.003
19743SOL    HW161236 -22.343  -2.050   0.052
19743SOL    HW261237  -0.141   8.901   0.055
19744SOL     OW61238   2.046   2.584   1.845
19744SOL    HW161239   2.061   2.676   1.867
19744SOL    HW261240   2.083   2.575  -9.283
19745SOL     OW61241  10.246   5.499   7.044
19745SOL    HW161242  10.309   5.550  29.175
19745SOL    HW261243  10.269   5.518   6.953
19746SOL     OW61244  -1.222   9.113   7.362
19746SOL    HW161245  31.890  20.068   7.318
19746SOL    HW261246  -1.128   9.129   7.369
19747SOL     OW61247   5.539   0.131   4.907
19747SOL    HW161248   5.495   0.046  -6.132
19747SOL    HW261249   5.475   0.192  -6.097
19748SOL     OW61250   9.608   5.131   3.208
19748SOL    HW161251   9.586   5.194  14.317
19748SOL    HW261252  -1.412   5.050   3.255
19749SOL     OW61253   6.935   2.314   9.589
19749SOL    HW161254   7.005   2.377   9.606
19749SOL    HW261255   6.894  13.339 -12.405
19750SOL     OW61256   1.283   9.164   6.184
19750SOL    HW161257  12.329   9.246  17.174
19750SOL    HW261258  34.491   9.130   6.187
19751SOL     OW61259   3.683  10.109   6.300
19751SOL    HW161260   3.745  10.137   6.367
19751SOL    HW261261 -18.482  10.127   6.338
19752SOL     OW61262   5.641  -1.233   8.703
19752SOL    HW161263   5.572  -1.272   8.649
19752SOL    HW261264   5.594  20.892  30.851
19753SOL     OW61265   2.419   1.016  10.575
19753SOL    HW161266  13.536   1.011  10.519
19753SOL    HW261267   2.356 -10.082  10.533
19754SOL     OW61268   7.117   4.518   8.502
19754SOL    HW161269  18.074   4.472   8.492
19754SOL    HW261270   7.169   4.461  -2.481
19755SOL     OW61271   0.481   9.925   4.776
19755SOL    HW161272   0.541  21.019   4.726
19755SOL    HW261273   0.435  -1.167   4.710
19756SOL     OW61274   9.221  11.351   0.500
19756SOL    HW161275  -1.897  11.338   0.446
19756SOL    HW261276   9.201   0.267  33.701
19757SOL     OW61277   7.816   6.918   7.536
19757SOL    HW161278   7.880   6.857   7.498
19757SOL    HW261279   7.748   6.926   7.470
19758SOL     OW61280   8.001   2.844   5.594
19758SOL    HW161281  19.089   2.763   5.583
19758SOL    HW261282   7.912   2.823  -5.471
19759SOL     OW61283   5.584   4.958  -0.203
19759SOL    HW161284   5.502  -6.036  10.855
19759SOL    HW261285   5.580   4.878  10.889
19760SOL     OW61286   2.288   9.919   2.106
19760SOL    HW161287   2.208  -1.145   2.152
19760SOL    HW261288   2.258 -12.121  -9.015
19761SOL     OW61289   6.315   1.006   4.126
19761SOL    HW161290   6.374  11.980   4.162
19761SOL    HW261291   6.229   0.964   4.125
19762SOL     OW61292   4.106   3.935  11.149
19762SOL    HW161293  15.192  14.959  11.231
19762SOL    HW261294  26.251   3.921   0.042
19763SOL     OW61295   1.739   5.145   5.256
19763SOL    HW161296   1.688   5.226   5.261
19763SOL    HW261297   1.693   5.085  27.394
19764SOL     OW61298   4.970   2.089  -0.441
19764SOL    HW161299  15.970   2.004  21.656
19764SOL    HW261300  -6.143   2.150  -0.443
19765SOL     OW61301   1.224   8.511   8.392
19765SOL    HW161302   1.167   8.588   8.404
19765SOL    HW261303   1.201   8.454   8.465
19766SOL     OW61304   2.491   4.956   2.394
19766SOL    HW161305  24.521   4.884  24.433
19766SOL    HW261306  13.478  16.020   2.470
19767SOL     OW61307   6.993   9.019  10.817
19767SOL    HW161308   6.973   9.112  10.808
19767SOL    HW261309  18.051   9.007  10.910
19768SOL     OW61310   9.387   3.777   4.299
19768SOL    HW161311   9.361   3.699   4.348
19768SOL    HW261312  20.428  14.886   4.364
19769SOL     OW61313   6.465   9.175   6.525
19769SOL    HW161314   6.494  20.230  -4.604
19769SOL    HW261315   6.395   9.110 -26.602
19770SOL     OW61316   1.706   2.851   5.500
19770SOL    HW161317   1.775   2.811  -5.593
19770SOL    HW261318   1.624  13.856   5.464
19771SOL     OW61319   2.716   8.821   6.585
19771SOL    HW161320   2.694  19.812   6.664
19771SOL    HW261321   2.744   8.754   6.523
19772SOL     OW61322   4.123   7.575   9.088
19772SOL    HW161323   4.167   7.494   9.112
19772SOL    HW261324  15.119  18.595   9.005
19773SOL     OW61325   8.462   1.214  10.391
19773SOL    HW161326   8.493  12.317  10.327
19773SOL    HW261327   8.525  23.299  10.463
19774SOL     OW61328   9.541   8.922   4.274
19774SOL    HW161329  20.655  30.942 -39.898
19774SOL    HW261330   9.470   8.865  -6.736
19775SOL     OW61331  10.067  10.219   2.462
19775SOL    HW161332  10.075  -0.892   2.525
19775SOL    HW261333  10.060 -56.062   2.377
19776SOL     OW61334  -1.181   2.264   0.061
19776SOL    HW161335  20.930   2.277   0.150
19776SOL    HW261336  -1.145   2.180   0.035
19777SOL     OW61337   6.318   7.879   0.136
19777SOL    HW161338  28.319   7.933   0.148
19777SOL    HW261339   6.389   7.942   0.127
19778SOL     OW61340   1.125   6.105   1.424
19778SOL    HW161341   1.039   6.080   1.460
19778SOL    HW261342   1.124   6.200   1.422
19779SOL     OW61343   4.906   8.807   0.969
19779SOL    HW161344  -6.175  19.860   1.055
19779SOL    HW261345  -6.139  19.933   0.927
19780SOL     OW61346   4.516   4.610   2.713
19780SOL    HW161347  15.562   4.527   2.666
19780SOL    HW261348  48.745   4.664 -19.402
19781SOL     OW61349   3.313   8.630  11.208
19781SOL    HW161350   3.277  19.590   0.129
19781SOL    HW261351   3.310  19.653  11.303
19782SOL     OW61352   4.821   3.261   7.408
19782SOL    HW161353   4.875  -7.857   7.404
19782SOL    HW261354  -6.162   3.328   7.445
19783SOL     OW61355   0.958   4.949   5.338
19783SOL    HW161356   0.990  16.066   5.291
19783SOL    HW261357   0.927   4.983   5.422
19784SOL     OW61358   7.061   8.440   6.359
19784SOL    HW161359   7.082   8.380   6.288
19784SOL    HW261360 -37.161  19.540  -4.718
19785SOL     OW61361  12.090   5.009   9.631
19785SOL    HW161362  -9.922   5.023 -12.515
19785SOL    HW261363  -9.949  49.107  31.773
19786SOL     OW61364   5.204   0.615   8.584
19786SOL    HW161365   5.225   0.581 -24.622
19786SOL    HW261366   5.168 -10.337   8.568
19787SOL     OW61367  11.210  10.491  -0.377
19787SOL    HW161368   0.225  10.552  -0.427
19787SOL    HW261369  11.273  10.435  10.709
19788SOL     OW61370   9.601   0.700   8.151
19788SOL    HW161371  -1.480 -10.420   8.183
19788SOL    HW261372   9.684   0.670  30.193
19789SOL     OW61373   2.904   5.955   3.199
19789SOL    HW161374   2.885   5.962 -18.973
19789SOL    HW261375 -19.142   5.866   3.211
19790SOL     OW61376  10.417   4.358   5.437
19790SOL    HW161377  -0.599   4.407   5.515
19790SOL    HW261378  21.372   4.394  16.450
19791SOL     OW61379   2.590   9.294   0.464
19791SOL    HW161380   2.560   9.208   0.494
19791SOL    HW261381  13.586   9.306   0.380
19792SOL     OW61382   2.910   7.056   8.713
19792SOL    HW161383   2.968   7.121   8.675
19792SOL    HW261384   2.952   6.972   8.693
19793SOL     OW61385   3.033  10.781   5.754
19793SOL    HW161386   3.090  10.812   5.683
19793SOL    HW261387   3.029  10.686   5.741
19794SOL     OW61388   7.903   0.572   0.027
19794SOL    HW161389  29.943   0.496   0.070
19794SOL    HW261390   7.984   0.538  -0.012
19795SOL     OW61391   3.458   2.111   4.547
19795SOL    HW161392  25.473 -19.905   4.581
19795SOL    HW261393   3.418  24.155   4.468
19796SOL     OW61394   5.874   0.856   6.230
19796SOL    HW161395   5.799   0.910 -15.874
19796SOL    HW261396   5.944   0.883   6.170
19797SOL     OW61397   9.220   9.787   6.545
19797SOL    HW161398   9.187   9.712  17.535
19797SOL    HW261399   9.227   9.756   6.635
19798SOL     OW61400   3.048   4.022   9.174
19798SOL    HW161401  14.033   3.948   9.148
19798SOL    HW261402   3.138  -7.046 -12.925
19799SOL     OW61403   5.447   1.336   5.083
19799SOL    HW161404   5.502   1.345  16.200
19799SOL    HW261405   5.496   1.276   5.026
19800SOL     OW61406  10.636   3.735   0.421
19800SOL    HW161407  -0.325  -7.276   0.375
19800SOL    HW261408  -0.431   3.656   0.375
19801SOL     OW61409   6.143   5.613   8.930
19801SOL    HW161410  17.103   5.642   8.886
19801SOL    HW261411  17.163   5.621   9.023
19802SOL     OW61412  10.163   6.179  -2.590
19802SOL    HW161413  10.182  -4.824  -2.504
19802SOL    HW261414 -11.922   6.084  52.623
19803SOL     OW61415   7.482   4.417   3.305
19803SOL    HW161416  29.468  15.441   3.323
19803SOL    HW261417  18.567   4.378   3.380
19804SOL     OW61418   2.305   9.208   0.666
19804SOL    HW161419  13.280   9.208  11.634
19804SOL    HW261420  24.409 -12.963   0.676
19805SOL     OW61421   6.089   6.638   5.325
19805SOL    HW161422   6.081  -4.328   5.263
19805SOL    HW261423   6.183   6.620   5.328
19806SOL     OW61424   4.512   3.612   3.909
19806SOL    HW161425   4.587   3.669   3.928
19806SOL    HW261426 -17.644   3.666  -7.115
19807SOL     OW61427   6.748   4.003   0.515
19807SOL    HW161428   6.824   4.056  11.531
19807SOL    HW261429   6.762  15.021  22.686
19808SOL     OW61430   9.724   9.916   6.004
19808SOL    HW161431   9.717   9.894   5.911
19808SOL    HW261432  20.693   9.866  17.086
19809SOL     OW61433   9.707  10.368   9.481
19809SOL    HW161434   9.755  10.449   9.466
19809SOL    HW261435  -1.271  -0.741  20.496
19810SOL     OW61436   2.855  12.180   4.001
19810SOL    HW161437  -8.214   1.050 -18.075
19810SOL    HW261438  35.898   1.190   3.971
19811SOL     OW61439   2.253   4.177   5.236
19811SOL    HW161440   2.200  -6.795   5.194
19811SOL    HW261441  -8.793   4.197   5.329
19812SOL     OW61442   2.591   1.058  -0.211
19812SOL    HW161443   2.586   1.003  -0.289
19812SOL    HW261444   2.560   1.001  10.899
19813SOL     OW61445  10.952   7.237   6.168
19813SOL    HW161446 -11.177   7.272   6.242
19813SOL    HW261447  10.890   7.235   6.096
19814SOL     OW61448   9.649   3.794   2.910
19814SOL    HW161449   9.601  -7.232   2.992
19814SOL    HW261450   9.738   3.771   2.938
19815SOL     OW61451   6.421  10.050   7.096
19815SOL    HW161452  -4.589  10.070 -15.073
19815SOL    HW261453  17.447 -11.943   7.136
19816SOL     OW61454   4.812   0.145   3.654
19816SOL    HW161455   4.788   0.188  14.776
19816SOL    HW261456   4.907   0.156   3.647
19817SOL     OW61457   9.351   5.388   1.569
19817SOL    HW161458  20.363   5.329   1.639
19817SOL    HW261459  20.343  27.436   1.492
19818SOL     OW61460   7.620   1.037   1.929
19818SOL    HW161461  -3.452   1.043   1.839
19818SOL    HW261462  -3.443   0.949   1.958
19819SOL     OW61463   6.828   8.710   9.678
19819SOL    HW161464  28.939  19.794   9.599
19819SOL    HW261465   6.822  -2.260   9.743
19820SOL     OW61466   5.149   6.356   9.108
19820SOL    HW161467  16.179  17.381  -2.026
19820SOL    HW261468  27.160   6.302   9.147
19821SOL     OW61469   4.502   7.803   4.650
19821SOL    HW161470   4.526   7.757   4.570
19821SOL    HW261471   4.541   7.890   4.640
19822SOL     OW61472   8.965   6.047   5.867
19822SOL    HW161473  19.958  17.056   5.790
19822SOL    HW261474   9.047   6.082  16.873
19823SOL     OW61475   0.634   7.136   2.782
19823SOL    HW161476   0.556   7.143  -8.313
19823SOL    HW261477   0.705   7.167   2.726
19824SOL     OW61478   2.996   8.307   2.926
19824SOL    HW161479  14.115   8.265   2.892
19824SOL    HW261480  13.999  30.322   2.987
19825SOL     OW61481   5.262   6.978   3.070
19825SOL    HW161482   5.285   6.888   3.091
19825SOL    HW261483  16.315   7.026   3.152
19826SOL     OW61484  12.045   4.107   0.427
19826SOL    HW161485  -9.990   4.079   0.347
19826SOL    HW261486  12.077  15.087   0.495
19827SOL     OW61487   1.482   2.271   3.708
19827SOL    HW161488   1.550   2.288   3.773
19827SOL    HW261489  12.548  24.268   3.667
19828SOL     OW61490   9.329   8.980   6.299
19828SOL    HW161491   9.234   8.992   6.310
19828SOL    HW261492  -1.686  -2.122   6.368
19829SOL     OW61493   3.017   1.436   7.162
19829SOL    HW161494  -7.965   1.512 -14.904
19829SOL    HW261495   3.076   1.361   7.156
19830SOL     OW61496   5.086   1.867  -0.839
19830SOL    HW161497   5.139  -9.142  32.353
19830SOL    HW261498   5.040   1.790  -0.806
19831SOL     OW61499   8.347   4.321   0.493
19831SOL    HW161500   8.382   4.249   0.440
19831SOL    HW261501   8.344   4.285   0.582
19832SOL     OW61502   0.112   3.050   1.087
19832SOL    HW161503   0.198   3.091  12.115
19832SOL    HW261504   0.125   2.986   1.157
19833SOL     OW61505   3.081   9.566   9.106
19833SOL    HW161506   3.000   9.516  20.153
19833SOL    HW261507   3.103   9.591   9.196
19834SOL     OW61508   7.615  10.593   1.984
19834SOL    HW161509  -3.363  10.654   2.023
19834SOL    HW261510   7.536  10.601   2.037
19835SOL     OW61511   0.991   2.294   2.363
19835SOL    HW161512   0.983   2.368   2.304
19835SOL    HW261513   0.946   2.322  13.483
19836SOL     OW61514   6.838   1.596   4.246
19836SOL    HW161515   6.745   1.602  26.305
19836SOL    HW261516   6.878   1.668   4.196
19837SOL     OW61517   2.989   1.620   5.387
19837SOL    HW161518 -19.014  12.619   5.429
19837SOL    HW261519 -19.123   1.682  -5.587
19838SOL     OW61520   8.832   4.909   7.798
19838SOL    HW161521   8.827  -6.225   7.784
19838SOL    HW261522  -2.277   4.945 -14.336
19839SOL     OW61523   3.690   8.351   7.238
19839SOL    HW161524   3.672   8.260   7.263
19839SOL    HW261525   3.621   8.373 -14.903
19840SOL     OW61526  10.275   2.392   9.478
19840SOL    HW161527  10.276   2.304  20.556
19840SOL    HW261528  -0.828  13.480  20.570
19841SOL     OW61529  11.155   3.844   9.777
19841SOL    HW161530  11.126   3.826   9.866
19841SOL    HW261531   0.117   3.758  20.774
19842SOL     OW61532   8.194   1.740   6.167
19842SOL    HW161533   8.188   1.669   6.231
19842SOL    HW261534   8.285   1.769 -15.908
19843SOL     OW61535   4.656   7.316   8.864
19843SOL    HW161536   4.581   7.318  19.962
19843SOL    HW261537  -6.358   7.407   8.854
19844SOL     OW61538   8.301   0.878   0.976
19844SOL    HW161539   8.267   0.827   0.903
19844SOL    HW261540   8.340   0.814  12.074
19845SOL     OW61541   9.341   5.194   5.215
19845SOL    HW161542   9.298   5.187   5.130
19845SOL    HW261543   9.286  -5.785   5.265
19846SOL     OW61544   6.134   5.584  12.526
19846SOL    HW161545   6.106   5.497   1.513
19846SOL    HW261546   6.057  16.679 -20.578
19847SOL     OW61547   2.997   9.329   2.637
19847SOL    HW161548  25.044   9.418   2.641
19847SOL    HW261549  -7.969 -12.747   2.575
19848SOL     OW61550   1.194   6.526   3.454
19848SOL    HW161551   1.282   6.527   3.417
19848SOL    HW261552   1.151   6.603  14.456
19849SOL     OW61553   0.574   2.911   6.314
19849SOL    HW161554   0.648   2.905   6.253
19849SOL    HW261555   0.585  -8.204  -4.667
19850SOL     OW61556   3.313   6.182   4.244
19850SOL    HW161557   3.374  17.166   4.293
19850SOL    HW261558  36.380   6.121   4.191
19851SOL     OW61559   8.921   9.640   1.311
19851SOL    HW161560  20.041   9.588   1.311
19851SOL    HW261561  30.937   9.587  12.398
19852SOL     OW61562   9.947   3.637   1.100
19852SOL    HW161563  21.055   3.676   1.155
19852SOL    HW261564   9.984   3.639   1.012
19853SOL     OW61565   1.252   9.911   1.151
19853SOL    HW161566   1.316   9.981  -9.879
19853SOL    HW261567   1.168   9.956   1.145
19854SOL     OW61568   7.740   7.515   2.243
19854SOL    HW161569   7.655   7.475   2.263
19854SOL    HW261570   7.719   7.598   2.202
19855SOL     OW61571  11.968   3.030  11.252
19855SOL    HW161572 -10.136  25.173   0.279
19855SOL    HW261573  12.048   3.066  11.214
19856SOL     OW61574   5.554   4.638   2.554
19856SOL    HW161575  -5.554   4.617  24.697
19856SOL    HW261576   5.505  15.699   2.474
19857SOL     OW61577   3.233   2.402   7.381
19857SOL    HW161578   3.281   2.363   7.453
19857SOL    HW261579   3.300  24.514  18.361
19858SOL     OW61580   4.380   6.726   5.964
19858SOL    HW161581   4.390   6.777   6.044
19858SOL    HW261582  -6.573   6.727  -5.115
19859SOL     OW61583   1.858   7.962   8.390
19859SOL    HW161584  -9.237   8.020   8.442
19859SOL    HW261585   1.804   7.935   8.316
19860SOL     OW61586  -0.234  11.981   8.027
19860SOL    HW161587  10.727   0.985   7.992
19860SOL    HW261588  -0.210   0.994   8.103
19861SOL     OW61589  11.458   1.990  12.755
19861SOL    HW161590   0.338   2.027  12.791
19861SOL    HW261591 -21.593   2.018 -20.302
19862SOL     OW61592   1.863   2.663   9.830
19862SOL    HW161593 -20.216   2.720   9.908
19862SOL    HW261594  -9.158   2.576 -12.215
19863SOL     OW61595   9.051  11.008   6.631
19863SOL    HW161596   8.960  10.982  -4.393
19863SOL    HW261597  -1.954  -0.015   6.718
19864SOL     OW61598   1.781   4.747   8.388
19864SOL    HW161599   1.779   4.660   8.427
19864SOL    HW261600   1.691  -6.276  52.520
19865SOL     OW61601   4.882   4.877   7.391
19865SOL    HW161602  38.038   4.863   7.304
19865SOL    HW261603   4.788   4.884   7.376
19866SOL     OW61604   2.653   0.702   8.348
19866SOL    HW161605   2.692   0.732  -2.609
19866SOL    HW261606  24.803   0.654   8.304
19867SOL     OW61607   1.272  12.656   5.110
19867SOL    HW161608   1.307  12.619  27.270
19867SOL    HW261609   1.348 -20.425   5.065
19868SOL     OW61610   3.981   0.332   5.409
19868SOL    HW161611   3.911  11.307   5.417
19868SOL    HW261612   4.060  11.320   5.395
19869SOL     OW61613   0.774   6.158   5.031
19869SOL    HW161614   0.842   6.099   4.999
19869SOL    HW261615   0.708  -4.881   4.962
19870SOL     OW61616   1.255   5.702   2.439
19870SOL    HW161617  12.282  -5.390   2.360
19870SOL    HW261618   1.202   5.780   2.425
19871SOL     OW61619   6.921  10.161   5.931
19871SOL    HW161620 -15.079  10.125   5.890
19871SOL    HW261621   6.849  21.174  27.953
19872SOL     OW61622  10.558   0.918   3.586
19872SOL    HW161623  10.505   0.997  -7.446
19872SOL    HW261624  10.495   0.847  -7.462
19873SOL     OW61625   5.404   7.695   5.078
19873SOL    HW161626   5.436  29.853   5.120
19873SOL    HW261627   5.321   7.676   5.123
19874SOL     OW61628   7.223   7.765   0.376
19874SOL    HW161629   7.253   7.687  11.368
19874SOL    HW261630   7.252   7.750   0.466
19875SOL     OW61631   2.924   0.026   7.601
19875SOL    HW161632   2.986  -0.008  18.705
19875SOL    HW261633   2.971   0.096  18.597
19876SOL     OW61634  10.294   3.794   5.382
19876SOL    HW161635  10.301   3.889   5.377
19876SOL    HW261636  10.260   3.768   5.296
19877SOL     OW61637   0.847   2.896   6.258
19877SOL    HW161638  11.903   2.823   6.318
19877SOL    HW261639  11.939  13.915  -4.859
19878SOL     OW61640  -1.043   2.976   3.661
19878SOL    HW161641  21.118   2.976   3.611
19878SOL    HW261642  10.002   2.898  14.755
19879SOL     OW61643   4.451   2.894   4.195
19879SOL    HW161644   4.515  -8.195   4.144
19879SOL    HW261645   4.500  -8.071  15.269
19880SOL     OW61646   1.507   5.570   2.151
19880SOL    HW161647   1.532   5.660  13.211
19880SOL    HW261648  -9.452   5.529   2.119
19881SOL     OW61649  -0.810   4.946   6.437
19881SOL    HW161650  -0.857  16.054   6.388
19881SOL    HW261651  21.361   4.971   6.432
19882SOL     OW61652   6.998   4.014  10.753
19882SOL    HW161653   7.084   3.975  -0.298
19882SOL    HW261654   6.991   4.031  10.847
19883SOL     OW61655   8.315   1.915   2.038
19883SOL    HW161656   8.365  12.938   1.958
19883SOL    HW261657   8.335  -9.034   2.061
19884SOL     OW61658   8.810   7.322   6.632
19884SOL    HW161659  19.891   7.364   6.707
19884SOL    HW261660  19.861  18.425  28.640
19885SOL     OW61661   0.768   1.695   7.170
19885SOL    HW161662   0.781  -9.403   7.245
19885SOL    HW261663   0.759   1.782  -3.830
19886SOL     OW61664   3.318   8.575  10.328
19886SOL    HW161665   3.324   8.496  10.381
19886SOL    HW261666   3.359   8.643  10.381
19887SOL     OW61667   1.753   2.428   3.415
19887SOL    HW161668   1.669   2.386  -7.607
19887SOL    HW261669  12.854   2.383  14.512
19888SOL     OW61670   4.174   8.006  10.829
19888SOL    HW161671  15.120   8.000  10.809
19888SOL    HW261672   4.217 -14.099  -0.293
19889SOL     OW61673   3.197   6.261   5.773
19889SOL    HW161674   3.104   6.265   5.753
19889SOL    HW261675   3.220  17.388  -5.238
19890SOL     OW61676   3.320   0.835   7.923
19890SOL    HW161677   3.394   0.778  18.941
19890SOL    HW261678  14.399 -10.130   7.968
19891SOL     OW61679   3.231   2.008   4.081
19891SOL    HW161680   3.164   1.950   4.116
19891SOL    HW261681  -7.770  -9.080   4.008
19892SOL     OW61682   8.821   5.653   5.696
19892SOL    HW161683  19.817  16.612   5.667
19892SOL    HW261684 -13.172   5.623   5.727
19893SOL     OW61685  10.274   4.273   4.362
19893SOL    HW161686  10.368   4.261  -6.689
19893SOL    HW261687  10.245   4.316 -17.798
19894SOL     OW61688   3.589   0.589   1.357
19894SOL    HW161689   3.674   0.605  -9.725
19894SOL    HW261690  25.690   0.538   1.435
19895SOL     OW61691   1.060   2.827   2.362
19895SOL    HW161692   1.030 -30.226   2.300
19895SOL    HW261693  12.181  -8.246   2.324
19896SOL     OW61694   8.358   8.057   5.120
19896SOL    HW161695   8.356   8.128  -5.984
19896SOL    HW261696   8.425   7.997   5.088
19897SOL     OW61697   3.396   9.240   3.099
19897SOL    HW161698  25.442   9.314   3.150
19897SOL    HW261699 -18.736   9.166   3.128
19898SOL     OW61700   5.169   4.047   4.291
19898SOL    HW161701   5.163   4.135   4.253
19898SOL    HW261702   5.125   3.991   4.227
19899SOL     OW61703   3.790  -2.515   5.974
19899SOL    HW161704  14.785  52.619  -5.010
19899SOL    HW261705  36.903  19.528  50.044
19900SOL     OW61706  10.715   0.906   3.880
19900SOL    HW161707  10.648   0.919  -7.226
19900SOL    HW261708  10.685  11.870 -29.188
19901SOL     OW61709   8.705   6.336   8.079
19901SOL    HW161710 -24.453   6.417   8.047
19901SOL    HW261711  -2.388   6.267   8.038
19902SOL     OW61712   7.750  11.399   0.479
19902SOL    HW161713  40.784  11.401   0.434
19902SOL    HW261714   7.810   0.403   0.420
19903SOL     OW61715   0.315  11.474   9.621
19903SOL    HW161716   0.408  11.481   9.601
19903SOL    HW261717   0.303   0.490   9.698
19904SOL     OW61718   5.390   8.219  -0.565
19904SOL    HW161719  38.533   8.182  10.560
19904SOL    HW261720   5.298   8.197  21.504
19905SOL     OW61721   8.126   2.339   9.916
19905SOL    HW161722  -2.905   2.329   9.821
19905SOL    HW261723  -2.825   2.363   9.945
19906SOL     OW61724   6.934   9.460   4.609
19906SOL    HW161725   6.892   9.530  -6.480
19906SOL    HW261726  -4.151   9.380   4.580
19907SOL     OW61727   7.916  11.512   5.739
19907SOL    HW161728   7.893   0.381   5.729
19907SOL    HW261729   7.833  11.558   5.749
19908SOL     OW61730   0.191   1.785   2.643
19908SOL    HW161731   0.153   1.697   2.639
19908SOL    HW261732   0.283   1.772   2.621
19909SOL     OW61733   4.039   8.637   0.376
19909SOL    HW161734   3.966   8.676   0.423
19909SOL    HW261735  -6.981   8.700   0.306
19910SOL     OW61736   6.317  -1.236   7.186
19910SOL    HW161737 -15.719   9.887 -14.908
19910SOL    HW261738 -37.926   9.826   7.224
19911SOL     OW61739   5.812   8.328   1.707
19911SOL    HW161740   5.835   8.242   1.741
19911SOL    HW261741  -5.318   8.319  23.755
19912SOL     OW61742   9.485  10.884   2.501
19912SOL    HW161743   9.559  10.869   2.443
19912SOL    HW261744   9.481  -0.235   2.555
19913SOL     OW61745   5.721  11.028   2.133
19913SOL    HW161746   5.724 -10.959  24.185
19913SOL    HW261747   5.691  -0.058   2.055
19914SOL     OW61748   3.571   6.022   6.369
19914SOL    HW161749  14.605   6.048   6.461
19914SOL    HW261750   3.537   6.097   6.320
19915SOL     OW61751   6.460   0.225   2.989
19915SOL    HW161752   6.467   0.236  25.163
19915SOL    HW261753 -15.569   0.299 -30.165
19916SOL     OW61754   1.642   4.501   8.361
19916SOL    HW161755   1.611 -17.528   8.436
19916SOL    HW261756  12.610   4.507  30.376
19917SOL     OW61757   1.982   5.157   3.472
19917SOL    HW161758  -9.106   5.078  14.535
19917SOL    HW261759   1.914   5.220  -7.590
19918SOL     OW61760   9.526   9.398   5.038
19918SOL    HW161761   9.608  31.428  16.072
19918SOL    HW261762   9.500  -1.628  -6.093
19919SOL     OW61763   0.182  10.003   6.934
19919SOL    HW161764  22.226  21.021  17.887
19919SOL    HW261765   0.119  -1.075   6.995
19920SOL     OW61766   8.378   5.867   2.785
19920SOL    HW161767  -2.623   5.781   2.770
19920SOL    HW261768   8.331   5.888   2.705
19921SOL     OW61769  10.565   9.832   1.668
19921SOL    HW161770 -22.586 -23.377   1.666
19921SOL    HW261771  -0.397   9.828   1.724
19922SOL     OW61772   6.781   4.642   9.954
19922SOL    HW161773   6.778  -6.378  10.048
19922SOL    HW261774   6.725   4.708   9.914
19923SOL     OW61775   1.815  10.665   2.161
19923SOL    HW161776   1.900  -0.391   2.202
19923SOL    HW261777   1.826  10.638   2.070
19924SOL     OW61778   5.073  11.114  10.893
19924SOL    HW161779   5.084   0.044  10.982
19924SOL    HW261780   4.992  11.073  10.863
19925SOL     OW61781   0.542   0.125   5.442
19925SOL    HW161782   0.625   0.078  -5.607
19925SOL    HW261783   0.522   0.157   5.354
19926SOL     OW61784   3.625   3.424   9.116
19926SOL    HW161785   3.656  -7.575   9.197
19926SOL    HW261786   3.656 -18.597   9.046
19927SOL     OW61787   3.996   5.878   8.615
19927SOL    HW161788  -6.988  16.848   8.581
19927SOL    HW261789   3.915   5.834   8.640
19928SOL     OW61790   2.250   7.151   8.527
19928SOL    HW161791   2.166   7.198   8.525
19928SOL    HW261792  13.305 -25.993  -2.603
19929SOL     OW61793   1.265   6.290   4.978
19929SOL    HW161794  -9.797   6.335   5.059
19929SOL    HW261795   1.353  17.295   4.993
19930SOL     OW61796   0.026  12.725   1.996
19930SOL    HW161797 -10.995  12.782   1.922
19930SOL    HW261798  11.121 -20.360   2.067
19931SOL     OW61799   3.219   5.176   2.566
19931SOL    HW161800   3.151   5.111   2.584
19931SOL    HW261801 -18.792   5.127   2.519
19932SOL     OW61802   2.626   8.984   3.642
19932SOL    HW161803  24.747  20.018   3.557
19932SOL    HW261804   2.681   9.045   3.692
19933SOL     OW61805   9.045   4.867  -0.304
19933SOL    HW161806   9.068   4.774  -0.317
19933SOL    HW261807   9.129   4.909  10.754
19934SOL     OW61808   6.420   8.407   3.296
19934SOL    HW161809  -4.616  19.379   3.363
19934SOL    HW261810   6.421   8.360   3.213
19935SOL     OW61811   6.030   3.905   5.042
19935SOL    HW161812  -4.954  15.022   5.034
19935SOL    HW261813 -16.123   3.933  27.174
19936SOL     OW61814   1.065   0.710  12.215
19936SOL    HW161815  12.058  33.770  12.276
19936SOL    HW261816  12.041  22.858  -9.883
19937SOL     OW61817   1.233   4.933   9.071
19937SOL    HW161818   1.231  -6.053   8.991
19937SOL    HW261819   1.301   4.868   9.054
19938SOL     OW61820   0.380   4.014   9.471
19938SOL    HW161821   0.291   4.013   9.435
19938SOL    HW261822   0.410   4.103   9.458
19939SOL     OW61823   7.942  -0.364   4.473
19939SOL    HW161824   7.987  10.591  -6.559
19939SOL    HW261825   7.934  -0.333 -17.516
19940SOL     OW61826   9.637   9.116   4.089
19940SOL    HW161827   9.725  20.171   4.121
19940SOL    HW261828  -1.444   9.061   4.157
19941SOL     OW61829  10.303   0.233   1.136
19941SOL    HW161830  10.208   0.221   1.133
19941SOL    HW261831  -0.723   0.324   1.111
19942SOL     OW61832   5.153   3.140   0.935
19942SOL    HW161833   5.090   3.076  12.006
19942SOL    HW261834   5.195   3.098   0.861
19943SOL     OW61835   7.616   8.967   9.336
19943SOL    HW161836  29.643  20.075  31.373
19943SOL    HW261837   7.594   8.974   9.429
19944SOL     OW61838   5.481   8.642  10.194
19944SOL    HW161839   5.572  -2.405  -0.874
19944SOL    HW261840   5.483   8.710  10.261
19945SOL     OW61841   3.613   9.035   4.083
19945SOL    HW161842  -7.480   9.065  15.049
19945SOL    HW261843  25.781   9.030  15.088
19946SOL     OW61844   3.061   1.991   9.264
19946SOL    HW161845  -7.884   2.007  20.298
19946SOL    HW261846 -30.086   1.980  20.213
19947SOL     OW61847   6.281  10.019   8.429
19947SOL    HW161848   6.249   9.949  41.604
19947SOL    HW261849   6.311  10.087   8.490
19948SOL     OW61850   3.749   4.101   5.403
19948SOL    HW161851   3.825   4.099   5.460
19948SOL    HW261852   3.784 -17.962   5.315
19949SOL     OW61853   3.094   7.904   6.588
19949SOL    HW161854   3.135  -3.164  28.748
19949SOL    HW261855   3.112   7.998   6.583
19950SOL     OW61856   2.726  -0.258   5.788
19950SOL    HW161857   2.778 -11.219   5.805
19950SOL    HW261858   2.709  21.785   5.875
19951SOL     OW61859   5.844   6.746   7.506
19951SOL    HW161860   5.878  28.845   7.419
19951SOL    HW261861   5.762 -37.460   7.489
19952SOL     OW61862   8.217   7.215   3.905
19952SOL    HW161863   8.194   7.218  15.038
19952SOL    HW261864   8.297   7.162  14.942
19953SOL     OW61865   1.795   2.102   1.530
19953SOL    HW161866   1.814   2.192   1.554
19953SOL    HW261867   1.711   2.083   1.572
19954SOL     OW61868   8.696   8.382   4.097
19954SOL    HW161869  30.858   8.336   4.085
19954SOL    HW261870  -2.410   8.320   4.066
19955SOL     OW61871   4.224   1.235   8.469
19955SOL    HW161872   4.244   1.173 -13.540
19955SOL    HW261873   4.245  12.228  -2.651
19956SOL     OW61874   1.315   9.343  10.524
19956SOL    HW161875   1.239   9.320  10.471
19956SOL    HW261876  12.340   9.297  10.607
19957SOL     OW61877   7.985   8.279   8.667
19957SOL    HW161878   7.958   8.349   8.608
19957SOL    HW261879 -14.088   8.201   8.612
19958SOL     OW61880   4.703   4.392   2.277
19958SOL    HW161881   4.732  -6.689   2.358
19958SOL    HW261882   4.608 -28.724   2.284
19959SOL     OW61883  10.996  10.817   3.568
19959SOL    HW161884  11.037  32.813   3.594
19959SOL    HW261885  11.070 -22.247   3.540
19960SOL     OW61886   3.162   9.270   6.081
19960SOL    HW161887  36.328 -12.886  -4.927
19960SOL    HW261888  14.259   9.308   6.014
19961SOL     OW61889   6.782   4.068   3.967
19961SOL    HW161890   6.829  -7.024   3.903
19961SOL    HW261891   6.750 -28.975   3.918
19962SOL     OW61892   4.315   3.910   3.254
19962SOL    HW161893   4.234 -18.133  25.297
19962SOL    HW261894  15.403  14.920   3.177
19963SOL     OW61895   4.557   3.001   8.578
19963SOL    HW161896  37.729  13.984   8.635
19963SOL    HW261897   4.615   3.073   8.554
19964SOL     OW61898   8.034   6.995   6.361
19964SOL    HW161899  19.160  -4.004   6.356
19964SOL    HW261900   8.004   7.011   6.450
19965SOL     OW61901   3.423   5.869   9.713
19965SOL    HW161902  -7.616   5.882   9.808
19965SOL    HW261903 -18.663   5.958   9.677
19966SOL     OW61904   2.382   9.263   0.303
19966SOL    HW161905   2.311 -12.760   0.271
19966SOL    HW261906   2.348  42.293   0.294
19967SOL     OW61907   7.815   9.569   0.094
19967SOL    HW161908   7.752  -1.414   0.049
19967SOL    HW261909   7.896   9.619  11.136
19968SOL     OW61910   0.256   3.590   1.663
19968SOL    HW161911  11.209   3.624  -9.401
19968SOL    HW261912  11.350   3.668   1.672
19969SOL     OW61913   9.084  10.824   9.287
19969SOL    HW161914  20.048  -0.164  -1.781
19969SOL    HW261915   9.047 -22.374   9.326
19970SOL     OW61916   3.305   1.200   9.823
19970SOL    HW161917   3.337  12.227   9.913
19970SOL    HW261918   3.231  12.179  20.856
19971SOL     OW61919   1.350   7.894   5.768
19971SOL    HW161920   1.293   7.947   5.824
19971SOL    HW261921  12.426   7.827  16.866
19972SOL     OW61922   8.118  -0.081   1.609
19972SOL    HW161923  19.102  -0.017  12.692
19972SOL    HW261924  41.215  21.915  12.691
19973SOL     OW61925   9.317   8.189   5.511
19973SOL    HW161926   9.246   8.148   5.462
19973SOL    HW261927   9.308  19.322   5.491
19974SOL     OW61928   5.105   8.069   9.953
19974SOL    HW161929   5.129   8.143  10.008
19974SOL    HW261930  16.113  19.148   9.872
19975SOL     OW61931   3.001   3.359   9.022
19975SOL    HW161932   2.997  -7.730  -2.100
19975SOL    HW261933   2.935   3.318   9.077
19976SOL     OW61934   0.782   5.356   0.707
19976SOL    HW161935  11.860   5.380   0.622
19976SOL    HW261936  11.896   5.359   0.767
19977SOL     OW61937   4.143   2.978   5.516
19977SOL    HW161938  48.253  -8.132  16.514
19977SOL    HW261939  37.351  -8.070  16.522
19978SOL     OW61940   6.676   4.521   2.066
19978SOL    HW161941   6.728   4.600   2.082
19978SOL    HW261942   6.733  -6.573  13.052
19979SOL     OW61943   3.492   6.011   4.487
19979SOL    HW161944 -18.553   5.995   4.399
19979SOL    HW261945   3.569 -16.042   4.538
19980SOL     OW61946   3.664  10.203  10.485
19980SOL    HW161947  -7.356  10.110  10.494
19980SOL    HW261948  -7.303 -22.871  10.529
19981SOL     OW61949   4.032   7.137   8.424
19981SOL    HW161950 -17.981   7.187   8.375
19981SOL    HW261951   4.058  18.085 -35.746
19982SOL     OW61952  10.709   3.205   0.995
19982SOL    HW161953  -0.266  -7.834  12.104
19982SOL    HW261954  -0.390   3.133   1.018
19983SOL     OW61955   9.728   3.924  10.862
19983SOL    HW161956   9.785   3.853  10.893
19983SOL    HW261957   9.684   3.955  10.941
19984SOL     OW61958   1.378   0.092   0.858
19984SOL    HW161959  -9.665  11.222  11.865
19984SOL    HW261960   1.469   0.080   0.886
19985SOL     OW61961  10.416  11.037   2.757
19985SOL    HW161962  10.352  11.094   2.801
19985SOL    HW261963  10.378  -0.090  -8.278
19986SOL     OW61964  10.230   5.465   0.324
19986SOL    HW161965  10.249   5.407  11.290
19986SOL    HW261966 -11.935   5.438   0.355
19987SOL     OW61967   6.136   4.484  10.607
19987SOL    HW161968  -4.942   4.572  10.614
19987SOL    HW261969   6.075   4.435  10.552
19988SOL     OW61970   3.845   4.837   1.293
19988SOL    HW161971   3.839   4.817   1.387
19988SOL    HW261972  14.813   4.900   1.278
19989SOL     OW61973   8.625   6.197   2.464
19989SOL    HW161974  -2.505   6.173   2.484
19989SOL    HW261975   8.618  -4.779   2.392
19990SOL     OW61976   6.699   2.882   2.847
19990SOL    HW161977   6.680   2.965   2.804
19990SOL    HW261978  17.653   2.845   2.868
19991SOL     OW61979   9.907   4.281   3.550
19991SOL    HW161980   9.848   4.333   3.605
19991SOL    HW261981  20.930   4.312   3.461
19992SOL     OW61982   0.769   6.934   4.588
19992SOL    HW161983   0.735   7.022   4.573
19992SOL    HW261984   0.770   6.924   4.683
19993SOL     OW61985   2.596   1.820   0.269
19993SOL    HW161986  35.754   1.734  11.325
19993SOL    HW261987   2.629   1.844   0.182
19994SOL     OW61988   3.880   8.309   2.716
19994SOL    HW161989   3.812  30.414   2.654
19994SOL    HW261990  14.895  30.300   2.743
19995SOL     OW61991   5.179   7.142   5.832
19995SOL    HW161992   5.181  -3.805   5.809
19995SOL    HW261993  16.245   7.096   5.753
19996SOL     OW61994   5.910   6.671   9.370
19996SOL    HW161995  27.976   6.756   9.329
19996SOL    HW261996  17.016   6.686   9.437
19997SOL     OW61997   3.599   7.921   2.831
19997SOL    HW161998  -7.460   7.828 -19.260
19997SOL    HW261999   3.695  -3.114  35.945
19998SOL     OW62000  10.273   0.714   7.679
19998SOL    HW162001  10.228   0.717   7.594
19998SOL    HW262002  10.207   0.680   7.740
19999SOL     OW62003   9.372  10.519   1.400
19999SOL    HW162004   9.278  10.519   1.417
19999SOL    HW262005   9.395  10.427 -20.689
20000SOL     OW62006   5.683   7.386   5.148
20000SOL    HW162007  16.686 -14.654   5.227
20000SOL    HW262008   5.693   7.293   5.169
20001SOL     OW62009   7.257   4.054   7.604
20001SOL    HW162010  -3.821  15.141  -3.509
20001SOL    HW262011  18.222  15.057  29.730
20002SOL     OW62012   5.776  11.017  10.967
20002SOL    HW162013   5.817  11.094  10.929
20002SOL    HW262014  16.826  -0.013  11.061
20003SOL     OW62015   5.966   4.691  10.316
20003SOL    HW162016 -27.222  15.776 -22.851
20003SOL    HW262017 -27.151  15.774  10.401
20004SOL     OW62018   6.560   0.736   0.717
20004SOL    HW162019 -15.554   0.739   0.806
20004SOL    HW262020  17.682  11.826   0.723
20005SOL     OW62021   3.798   8.123   6.686
20005SOL    HW162022   3.771  19.081  50.886
20005SOL    HW262023 -18.335   8.190   6.727
20006SOL     OW62024   6.842   5.417   0.420
20006SOL    HW162025   6.893   5.349 -21.703
20006SOL    HW262026   6.798   5.372  22.571
20007SOL     OW62027   5.516   5.367   4.968
20007SOL    HW162028 -16.519  16.331 -28.110
20007SOL    HW262029   5.588   5.421   4.936
20008SOL     OW62030   7.020   2.513   2.077
20008SOL    HW162031  -4.018   2.456   2.000
20008SOL    HW262032   6.937  13.599   2.071
20009SOL     OW62033   2.910   0.662   1.126
20009SOL    HW162034   2.908   0.572   1.091
20009SOL    HW262035  13.956   0.650   1.221
20010SOL     OW62036   9.492   7.805   2.390
20010SOL    HW162037  20.514   7.890   2.432
20010SOL    HW262038   9.479 -14.257   2.296
20011SOL     OW62039  10.652   6.706   5.821
20011SOL    HW162040 -11.343 -15.333  -5.242
20011SOL    HW262041  10.627   6.656   5.743
20012SOL     OW62042   7.332   2.328   8.822
20012SOL    HW162043   7.367  13.319   8.747
20012SOL    HW262044   7.350   2.420   8.802
20013SOL     OW62045   9.854   3.076   3.342
20013SOL    HW162046   9.831   3.109   3.255
20013SOL    HW262047   9.773   3.077   3.392
20014SOL     OW62048  10.973   8.233   1.839
20014SOL    HW162049   0.022  19.256   1.870
20014SOL    HW262050  10.983 -13.830   1.745
20015SOL     OW62051   4.091   9.084   9.003
20015SOL    HW162052  -6.875  -1.980  20.099
20015SOL    HW262053   4.048  20.195  -1.990
20016SOL     OW62054   7.485   1.208   6.583
20016SOL    HW162055   7.508   1.294 -15.460
20016SOL    HW262056   7.399   1.188   6.621
20017SOL     OW62057   1.852   4.958   7.324
20017SOL    HW162058   1.868   4.883   7.381
20017SOL    HW262059  12.853 -17.055   7.380
20018SOL     OW62060   3.045  10.298   8.023
20018SOL    HW162061   3.082  10.273   7.939
20018SOL    HW262062   3.097  21.413   8.051
20019SOL     OW62063   8.476   0.761   5.630
20019SOL    HW162064   8.433   0.846   5.624
20019SOL    HW262065  -2.573   0.735   5.721
20020SOL     OW62066   7.901  10.591   2.826
20020SOL    HW162067   7.870  -0.519  -8.271
20020SOL    HW262068   7.944  10.546   2.898
20021SOL     OW62069   9.217   8.809   7.764
20021SOL    HW162070   9.241  -2.157   7.707
20021SOL    HW262071   9.299  -2.279   7.775
20022SOL     OW62072   1.395   7.557   6.654
20022SOL    HW162073   1.383  40.590  28.773
20022SOL    HW262074  23.512  29.690  -4.316
20023SOL     OW62075  10.827   8.393   0.656
20023SOL    HW162076  10.836   8.342   0.736
20023SOL    HW262077  10.737   8.377   0.627
20024SOL     OW62078   0.326   2.521   5.294
20024SOL    HW162079  11.420   2.499   5.218
20024SOL    HW262080   0.389   2.529   5.367
20025SOL     OW62081   0.072   8.655   9.707
20025SOL    HW162082   0.144   8.685  -1.277
20025SOL    HW262083  -0.004  -2.335   9.738
20026SOL     OW62084   5.108  10.125   9.268
20026SOL    HW162085  38.146  10.083  20.336
20026SOL    HW262086  60.346  10.158   9.349
20027SOL     OW62087   2.300   9.902   6.008
20027SOL    HW162088   2.338  -1.197   5.944
20027SOL    HW262089  -8.670   9.964   6.028
20028SOL     OW62090   7.259   4.896   8.679
20028SOL    HW162091  -3.701  -6.090   8.687
20028SOL    HW262092 -14.791  -6.233 -24.425
20029SOL     OW62093   1.426   4.077   5.964
20029SOL    HW162094   1.515   4.113   5.955
20029SOL    HW262095   1.369  -6.893   5.931
20030SOL     OW62096   5.718   7.641   6.101
20030SOL    HW162097   5.749   7.731   6.110
20030SOL    HW262098  -5.301   7.600   6.185
20031SOL     OW62099  10.316   9.523  10.780
20031SOL    HW162100  10.354   9.587  10.719
20031SOL    HW262101  10.325   9.564  10.866
20032SOL     OW62102   7.864   6.157   7.938
20032SOL    HW162103 -14.271   6.107   7.879
20032SOL    HW262104 -14.139  -4.938   7.952
20033SOL     OW62105   1.268   3.685   4.848
20033SOL    HW162106   1.289   3.591  15.890
20033SOL    HW262107   1.329   3.721  15.823
20034SOL     OW62108   8.135   2.054  -0.452
20034SOL    HW162109   8.139  -8.932  -0.373
20034SOL    HW262110   8.157  13.005  10.616
20035SOL     OW62111   3.357   8.766   5.345
20035SOL    HW162112  14.390  19.778  -5.603
20035SOL    HW262113   3.300   8.705   5.298
20036SOL     OW62114  10.238  -0.250   7.233
20036SOL    HW162115  10.249  -0.335   7.275
20036SOL    HW262116  10.308  10.843   7.269
20037SOL     OW62117   3.643   6.271   0.575
20037SOL    HW162118   3.564  17.335  22.703
20037SOL    HW262119   3.678   6.355  11.583
20038SOL     OW62120   4.114   6.771   5.915
20038SOL    HW162121   4.189   6.718  28.022
20038SOL    HW262122   4.152   6.838  16.897
20039SOL     OW62123   3.321   7.556   4.839
20039SOL    HW162124   3.400 -36.565  -6.240
20039SOL    HW262125  -7.687  -3.557  -6.148
20040SOL     OW62126   4.240   4.881   9.165
20040SOL    HW162127  -6.846  -6.144 -12.997
20040SOL    HW262128   4.247   4.968   9.204
20041SOL     OW62129   5.549   9.191   2.855
20041SOL    HW162130 -16.610   9.229   2.818
20041SOL    HW262131   5.518   9.137   2.928
20042SOL     OW62132   8.695   6.745   5.884
20042SOL    HW162133  19.829   6.762  16.927
20042SOL    HW262134 -13.396  -4.353  16.849
20043SOL     OW62135   8.237  10.085   0.889
20043SOL    HW162136  19.328  -0.919   0.817
20043SOL    HW262137  -2.742  10.028   0.936
20044SOL     OW62138   7.431   1.538   7.944
20044SOL    HW162139   7.400   1.622   7.977
20044SOL    HW262140  29.444   1.475   7.974
20045SOL     OW62141  10.100   5.762   1.308
20045SOL    HW162142  21.044   5.765   1.316
20045SOL    HW262143  10.123   5.840   1.258
20046SOL     OW62144  -0.044   6.768   7.793
20046SOL    HW162145  33.008  17.761   7.844
20046SOL    HW262146  -0.056   6.735   7.704
20047SOL     OW62147   6.264   9.675   5.378
20047SOL    HW162148  -4.729   9.602   5.420
20047SOL    HW262149  -4.827   9.714   5.449
20048SOL     OW62150   2.430   4.707   9.757
20048SOL    HW162151   2.494   4.657   9.707
20048SOL    HW262152   2.355 -17.431   9.765
20049SOL     OW62153   6.587   2.599   3.259
20049SOL    HW162154  17.585   2.589   3.344
20049SOL    HW262155   6.529   2.554   3.198
20050SOL     OW62156   6.978   9.137  10.061
20050SOL    HW162157   7.013   9.048  10.050
20050SOL    HW262158   6.923   9.131  10.139
20051SOL     OW62159   9.095   1.579   3.084
20051SOL    HW162160   9.138  -9.433 -30.116
20051SOL    HW262161 -12.936   1.501   3.111
20052SOL     OW62162   2.849   2.091   3.246
20052SOL    HW162163  24.843  13.125   3.201
20052SOL    HW262164   2.838  13.075   3.323
20053SOL     OW62165   8.805  13.250  10.720
20053SOL    HW162166  -2.313 -19.889  10.669
20053SOL    HW262167  -2.261  -8.847  10.810
20054SOL     OW62168   1.672   9.576   5.646
20054SOL    HW162169  -9.275   9.554  27.728
20054SOL    HW262170   1.670  -1.368  -5.389
20055SOL     OW62171   8.596   7.672   0.681
20055SOL    HW162172   8.549   7.635  11.795
20055SOL    HW262173  -2.356   7.632 -10.355
20056SOL     OW62174   3.812   4.984   2.304
20056SOL    HW162175   3.875   5.056   2.300
20056SOL    HW262176   3.796  16.010   2.397
20057SOL     OW62177   2.813  11.039   3.346
20057SOL    HW162178   2.801  10.945   3.362
20057SOL    HW262179   2.729  11.067   3.310
20058SOL     OW62180   8.516   8.651   6.228
20058SOL    HW162181   8.485  19.635   6.300
20058SOL    HW262182   8.551   8.589   6.164
20059SOL     OW62183  10.659   9.462   2.510
20059SOL    HW162184  10.674   9.496  13.638
20059SOL    HW262185  10.626   9.373   2.525
20060SOL     OW62186   6.293   2.680   4.190
20060SOL    HW162187   6.202   2.651   4.196
20060SOL    HW262188   6.338  -8.408   4.260
20061SOL     OW62189   0.907   2.080   1.054
20061SOL    HW162190   0.825   2.128   1.044
20061SOL    HW262191   0.952   2.126   1.125
20062SOL     OW62192  10.338   8.034  10.701
20062SOL    HW162193  21.439   8.011  10.770
20062SOL    HW262194  10.386   8.020  10.619
20063SOL     OW62195   8.566   3.288   4.704
20063SOL    HW162196  30.574  14.309  15.804
20063SOL    HW262197   8.646  25.351   4.755
20064SOL     OW62198   2.452   8.909   0.168
20064SOL    HW162199   2.414 -35.220   0.251
20064SOL    HW262200   2.538   8.873   0.193
20065SOL     OW62201   6.010   8.324   0.838
20065SOL    HW162202  28.043   8.249   0.875
20065SOL    HW262203   6.077   8.285  11.821
20066SOL     OW62204   1.199   9.472   4.044
20066SOL    HW162205   1.175   9.530  26.051
20066SOL    HW262206   1.167   9.386   4.017
20067SOL     OW62207   3.971   9.966   6.025
20067SOL    HW162208   3.964 -12.195   5.977
20067SOL    HW262209  -7.150  10.012  17.045
20068SOL     OW62210   4.360   8.973   4.474
20068SOL    HW162211   4.391   8.914   4.543
20068SOL    HW262212   4.434   8.981   4.414
20069SOL     OW62213   6.598   2.246   3.831
20069SOL    HW162214   6.612   2.304   3.756
20069SOL    HW262215   6.514   2.274   3.867
20070SOL     OW62216   8.691   2.530   0.458
20070SOL    HW162217   8.676   2.594   0.388
20070SOL    HW262218   8.705   2.583   0.536
20071SOL     OW62219   3.170   4.225   8.026
20071SOL    HW162220   3.099   4.213   8.090
20071SOL    HW262221  -7.897   4.302   7.975
20072SOL     OW62222   3.332   4.412   6.306
20072SOL    HW162223   3.415   4.435   6.346
20072SOL    HW262224  -7.741   4.494  -4.769
20073SOL     OW62225   9.167   3.221   3.746
20073SOL    HW162226   9.167   3.225  14.881
20073SOL    HW262227  20.196  25.391   3.718
20074SOL     OW62228   4.624   0.101   7.588
20074SOL    HW162229   4.594   0.065 -47.693
20074SOL    HW262230   4.559   0.071 -25.467
20075SOL     OW62231   1.738   0.901   2.837
20075SOL    HW162232   1.793  12.018   2.840
20075SOL    HW262233   1.784   0.837 -30.228
20076SOL     OW62234   1.832  10.379  -0.173
20076SOL    HW162235   1.748  10.349  -0.137
20076SOL    HW262236  23.890  10.462  21.864
20077SOL     OW62237   9.240   0.803   6.767
20077SOL    HW162238   9.208   0.885   6.805
20077SOL    HW262239   9.164   0.745   6.766
20078SOL     OW62240   2.806  10.765   2.172
20078SOL    HW162241   2.837  10.813   2.249
20078SOL    HW262242   2.886  10.730   2.132
20079SOL     OW62243   7.753   5.271  10.403
20079SOL    HW162244   7.833   5.298  -0.592
20079SOL    HW262245   7.779   5.194  10.353
20080SOL     OW62246   9.388   4.720   7.476
20080SOL    HW162247   9.437   4.786   7.427
20080SOL    HW262248  31.469   4.642   7.420
20081SOL     OW62249   0.773   3.926   5.819
20081SOL    HW162250   0.822   3.939   5.900
20081SOL    HW262251  11.771   3.840   5.830
20082SOL     OW62252   1.502   4.849   9.919
20082SOL    HW162253   1.503   4.942   9.942
20082SOL    HW262254   1.594  -6.214  -1.128
20083SOL     OW62255   7.599   1.817   4.153
20083SOL    HW162256  18.584   1.893   4.173
20083SOL    HW262257  40.768   1.844   4.075
20084SOL     OW62258   0.908   6.221   6.393
20084SOL    HW162259   0.925   6.208   6.300
20084SOL    HW262260 -10.170 -15.940 -15.656
20085SOL     OW62261   3.279   0.366  13.972
20085SOL    HW162262  25.363   0.455 -30.221
20085SOL    HW262263   3.311   0.373   3.022
20086SOL     OW62264   3.577  11.505   0.979
20086SOL    HW162265  -7.478  11.411   0.966
20086SOL    HW262266   3.669   0.472   1.004
20087SOL     OW62267   4.003   7.559   6.256
20087SOL    HW162268   4.011   7.651   6.280
20087SOL    HW262269   3.986   7.560  -4.878
20088SOL     OW62270   9.490   4.714   9.398
20088SOL    HW162271   9.454   4.792   9.355
20088SOL    HW262272   9.541   4.670   9.330
20089SOL     OW62273   1.391   1.479   5.956
20089SOL    HW162274   1.296   1.469 -27.170
20089SOL    HW262275   1.407 -20.597   6.050
20090SOL     OW62276   4.235   6.315   9.424
20090SOL    HW162277  15.215   6.259 -23.744
20090SOL    HW262278   4.307   6.257   9.449
20091SOL     OW62279   3.852   7.684   1.699
20091SOL    HW162280   3.892   7.634   1.628
20091SOL    HW262281   3.777   7.632   1.727
20092SOL     OW62282   4.575   2.170   5.592
20092SOL    HW162283   4.549   2.208   5.508
20092SOL    HW262284 -28.528  13.117   5.573
20093SOL     OW62285   0.102   5.287  10.991
20093SOL    HW162286   0.112 -27.908  10.935
20093SOL    HW262287   0.008 -16.778  10.995
20094SOL     OW62288   0.766   0.695   7.741
20094SOL    HW162289   0.680 -10.340  -3.342
20094SOL    HW262290  22.907   0.727  -3.364
20095SOL     OW62291  10.403   5.577   8.322
20095SOL    HW162292  -0.721  27.621   8.351
20095SOL    HW262293  -0.572   5.535 -13.701
20096SOL     OW62294   6.084   8.805   0.222
20096SOL    HW162295   6.125   8.875  22.352
20096SOL    HW262296   6.114  -2.220   0.133
20097SOL     OW62297   4.085   5.718   3.176
20097SOL    HW162298   4.126 -27.315   3.166
20097SOL    HW262299   4.114   5.687  -7.777
20098SOL     OW62300   3.272   2.425  -1.376
20098SOL    HW162301   3.291   2.340  20.743
20098SOL    HW262302   3.340   2.483   9.699
20099SOL     OW62303   4.558   7.080   3.968
20099SOL    HW162304   4.584  18.109   4.060
20099SOL    HW262305  -6.490   7.175   3.957
20100SOL     OW62306   6.879   0.175   7.938
20100SOL    HW162307   6.927  11.150  -3.049
20100SOL    HW262308  -4.208   0.123   7.874
20101SOL     OW62309   4.587   4.063   1.269
20101SOL    HW162310   4.518   4.046   1.205
20101SOL    HW262311  -6.497 -17.974   1.342
20102SOL     OW62312  10.321   8.154   8.296
20102SOL    HW162313  10.391   8.130   8.236
20102SOL    HW262314  10.355   8.132   8.383
20103SOL     OW62315   8.235   9.051   4.251
20103SOL    HW162316   8.284   8.998   4.188
20103SOL    HW262317   8.240  -1.900   4.216
20104SOL     OW62318   0.895   5.871   7.361
20104SOL    HW162319   0.818  -5.225   7.360
20104SOL    HW262320   0.960   5.823   7.413
20105SOL     OW62321   7.702  -0.458   0.056
20105SOL    HW162322   7.742  -0.386   0.008
20105SOL    HW262323   7.653  10.533  22.069
20106SOL     OW62324  10.049   2.475   9.657
20106SOL    HW162325  10.068  24.599   9.740
20106SOL    HW262326  21.000  13.543   9.634
20107SOL     OW62327   8.008  11.290   5.031
20107SOL    HW162328   8.032   0.165   5.066
20107SOL    HW262329   8.047  11.293 -17.136
20108SOL     OW62330   7.616  -1.519  12.746
20108SOL    HW162331 -25.472  31.609   1.797
20108SOL    HW262332   7.521  -1.532  -9.324
20109SOL     OW62333   6.513   7.607   1.330
20109SOL    HW162334  28.654 -14.536  12.405
20109SOL    HW262335   6.465  -3.401   1.407
20110SOL     OW62336   9.375   0.602   4.451
20110SOL    HW162337  -1.637  11.681   4.369
20110SOL    HW262338 -34.809  22.592   4.428
20111SOL     OW62339   7.655   2.627   3.104
20111SOL    HW162340   7.618   2.539   3.092
20111SOL    HW262341   7.582   2.686   3.086
20112SOL     OW62342   8.239   8.538   1.179
20112SOL    HW162343  -2.879  -2.529  12.266
20112SOL    HW262344   8.258   8.626   1.212
20113SOL     OW62345   5.496  10.369   1.951
20113SOL    HW162346   5.498 -11.674  -9.178
20113SOL    HW262347   5.479  10.445   2.007
20114SOL     OW62348   4.564  12.218   9.736
20114SOL    HW162349   4.493   1.132   9.779
20114SOL    HW262350   4.561 -20.812  -1.267
20115SOL     OW62351   3.529   5.871   2.496
20115SOL    HW162352   3.441  16.930   2.463
20115SOL    HW262353   3.533  -5.265  24.574
20116SOL     OW62354   7.340   7.410   0.490
20116SOL    HW162355  -3.665  18.529   0.531
20116SOL    HW262356   7.392   7.399   0.410
20117SOL     OW62357   5.763   3.663   8.632
20117SOL    HW162358   5.726   3.749   8.653
20117SOL    HW262359  -5.186   3.668   8.664
20118SOL     OW62360   9.283   0.551   5.567
20118SOL    HW162361  31.454   0.577  16.620
20118SOL    HW262362   9.264   0.492   5.640
20119SOL     OW62363   3.123   6.602   3.133
20119SOL    HW162364   3.105  17.621   3.041
20119SOL    HW262365   3.197  -4.377   3.131
20120SOL     OW62366   9.584   9.576   5.784
20120SOL    HW162367   9.592   9.526  27.782
20120SOL    HW262368   9.603   9.666  27.838
20121SOL     OW62369   7.790   8.156   3.939
20121SOL    HW162370   7.700   8.155   3.906
20121SOL    HW262371   7.819   8.065   3.931
20122SOL     OW62372   1.038   6.429   4.368
20122SOL    HW162373  12.173   6.425   4.356
20122SOL    HW262374   1.018  28.602   4.366
20123SOL     OW62375   9.041   6.111  10.369
20123SOL    HW162376 -24.034  17.071  10.399
20123SOL    HW262377   8.991   6.140  -0.594
20124SOL     OW62378   1.157   4.798   8.760
20124SOL    HW162379  12.133   4.771  -2.346
20124SOL    HW262380  12.162 -28.356   8.842
20125SOL     OW62381   9.389   7.792   8.255
20125SOL    HW162382 -23.638 -14.311   8.254
20125SOL    HW262383   9.383   7.864 -13.761
20126SOL     OW62384  10.650   3.451  11.939
20126SOL    HW162385  10.658 -18.711 -10.094
20126SOL    HW262386  10.615  14.551 -10.075
20127SOL     OW62387   4.126  10.492  10.349
20127SOL    HW162388   4.123  10.412  10.297
20127SOL    HW262389  15.194  10.560  -0.751
20128SOL     OW62390   6.167   1.094   7.571
20128SOL    HW162391   6.129  12.199   7.629
20128SOL    HW262392   6.194  23.223   7.493
20129SOL     OW62393   3.299   1.318   2.595
20129SOL    HW162394   3.258  45.435  35.790
20129SOL    HW262395  -7.760   1.258   2.523
20130SOL     OW62396   8.410   0.710   1.158
20130SOL    HW162397   8.476   0.744  12.258
20130SOL    HW262398  -2.692   0.664   1.214
20131SOL     OW62399  11.434   8.228  11.104
20131SOL    HW162400  11.454   8.152   0.119
20131SOL    HW262401 -10.732  19.296 -10.944
20132SOL     OW62402   1.492   2.864   4.100
20132SOL    HW162403  23.657  -8.153   4.065
20132SOL    HW262404   1.435   2.936  -6.967
20133SOL     OW62405   2.263   1.237   6.122
20133SOL    HW162406   2.213  23.258   6.063
20133SOL    HW262407   2.261   1.322   6.079
20134SOL     OW62408   8.304   4.670   0.919
20134SOL    HW162409   8.387   4.708   0.890
20134SOL    HW262410   8.304  15.621   0.882
20135SOL     OW62411   7.828   0.202   5.397
20135SOL    HW162412  18.921   0.153   5.459
20135SOL    HW262413   7.788   0.134  16.382
20136SOL     OW62414   2.684   2.994   2.761
20136SOL    HW162415  35.802   3.048  13.880
20136SOL    HW262416   2.756  14.068  24.788
20137SOL     OW62417   8.051   4.502  12.597
20137SOL    HW162418   7.978   4.545   1.512
20137SOL    HW262419   8.026   4.504 -20.429
20138SOL     OW62420   9.792   6.505   4.886
20138SOL    HW162421   9.826  -4.565   4.970
20138SOL    HW262422  20.859 -15.483  -6.159
20139SOL     OW62423   7.151   6.632   1.943
20139SOL    HW162424   7.176  17.744   1.885
20139SOL    HW262425   7.126   6.562  35.003
20140SOL     OW62426  10.877  10.793   7.530
20140SOL    HW162427  10.927  10.717  18.542
20140SOL    HW262428 -22.311  10.757 -14.494
20141SOL     OW62429   4.122   1.713   8.472
20141SOL    HW162430   4.188   1.652   8.505
20141SOL    HW262431   4.040   1.663   8.472
20142SOL     OW62432   4.557   5.491   5.598
20142SOL    HW162433   4.625   5.485   5.665
20142SOL    HW262434   4.603  16.515   5.516
20143SOL     OW62435   0.203   2.570   4.888
20143SOL    HW162436   0.216   2.607   4.801
20143SOL    HW262437   0.234   2.638   4.948
20144SOL     OW62438  10.632   5.000   7.497
20144SOL    HW162439  10.662   5.075   7.548
20144SOL    HW262440  10.701   4.986   7.433
20145SOL     OW62441   5.981   9.523  12.314
20145SOL    HW162442   5.938   9.476  12.385
20145SOL    HW262443   6.057   9.469 -42.906
20146SOL     OW62444   7.479   3.646  -0.278
20146SOL    HW162445  18.540  14.738  10.684
20146SOL    HW262446   7.464   3.558  -0.313
20147SOL     OW62447   5.691   2.953  12.345
20147SOL    HW162448   5.696   2.951 -20.678
20147SOL    HW262449   5.647   2.871  -9.757
20148SOL     OW62450   7.144  10.768   0.213
20148SOL    HW162451  -3.816  10.791   0.165
20148SOL    HW262452   7.076  10.821   0.172
20149SOL     OW62453   5.458   8.917   9.941
20149SOL    HW162454  -5.523   8.905  20.906
20149SOL    HW262455   5.486   8.999   9.981
20150SOL     OW62456   2.008   5.180   0.933
20150SOL    HW162457   1.994  -5.927 -10.174
20150SOL    HW262458  13.097   5.134   1.001
20151SOL     OW62459   9.392   8.818   6.525
20151SOL    HW162460   9.324   8.807   6.592
20151SOL    HW262461   9.441   8.736   6.527
20152SOL     OW62462   2.416   4.622   5.780
20152SOL    HW162463   2.441   4.532   5.800
20152SOL    HW262464  13.538  26.746  -5.277
20153SOL     OW62465   9.207   7.209   2.510
20153SOL    HW162466 -12.908  29.326   2.430
20153SOL    HW262467   9.139   7.221   2.575
20154SOL     OW62468   0.421   0.087   6.839
20154SOL    HW162469   0.399  22.225   6.912
20154SOL    HW262470   0.368   0.119  28.845
20155SOL     OW62471   7.116   2.562   6.927
20155SOL    HW162472   7.159   2.619 -26.128
20155SOL    HW262473   7.027   2.551  18.001
20156SOL     OW62474   0.206   6.368   3.078
20156SOL    HW162475  11.270  17.479  14.175
20156SOL    HW262476   0.286  -4.690   3.028
20157SOL     OW62477   0.218   8.575  10.646
20157SOL    HW162478  33.345   8.495  10.698
20157SOL    HW262479   0.126   8.601  10.657
20158SOL     OW62480   2.136   9.214   7.885
20158SOL    HW162481  13.231  20.330   7.900
20158SOL    HW262482   2.082 -12.841  -3.230
20159SOL     OW62483   5.639   9.794   7.412
20159SOL    HW162484   5.681   9.799   7.325
20159SOL    HW262485   5.712   9.800   7.473
20160SOL     OW62486   2.644   9.259   5.793
20160SOL    HW162487 -19.503  20.310   5.859
20160SOL    HW262488   2.700  20.229  16.867
20161SOL     OW62489   1.997   0.284  -0.914
20161SOL    HW162490   2.031   0.227  21.096
20161SOL    HW262491  -9.125   0.318  10.090
20162SOL     OW62492  10.475   4.009   0.304
20162SOL    HW162493  10.528  -7.015  11.422
20162SOL    HW262494  10.454  14.955   0.307
20163SOL     OW62495   2.215   7.487   0.927
20163SOL    HW162496   2.188   7.458   1.014
20163SOL    HW262497   2.133  29.578   0.878
20164SOL     OW62498   9.721   5.718   3.774
20164SOL    HW162499   9.784   5.789 -18.298
20164SOL    HW262500   9.637  -5.282  14.834
20165SOL     OW62501   1.747   5.309  -0.277
20165SOL    HW162502  -9.366   5.317  10.824
20165SOL    HW262503   1.709   5.329  -0.362
20166SOL     OW62504   3.189  11.116   1.494
20166SOL    HW162505   3.214  11.085   1.581
20166SOL    HW262506  25.200   0.141  -9.530
20167SOL     OW62507   2.206   8.645   7.175
20167SOL    HW162508   2.201   8.696   7.257
20167SOL    HW262509   2.126   8.669 -25.991
20168SOL     OW62510   1.339   7.448   5.828
20168SOL    HW162511   1.300   7.534  27.889
20168SOL    HW262512   1.413   7.443  -5.273
20169SOL     OW62513   6.769   3.548   7.563
20169SOL    HW162514   6.675   3.564   7.549
20169SOL    HW262515  -4.229   3.572   7.480
20170SOL     OW62516   3.435   0.489   2.394
20170SOL    HW162517  -7.671   0.444   2.446
20170SOL    HW262518 -40.658   0.517 -19.622
20171SOL     OW62519  -0.701  12.381   7.490
20171SOL    HW162520  -0.631  -9.703   7.556
20171SOL    HW262521  21.422  -9.663   7.412
20172SOL     OW62522   3.666   8.218   7.876
20172SOL    HW162523 -18.478   8.178 -14.145
20172SOL    HW262524   3.740  30.317  -3.105
20173SOL     OW62525   2.705   0.297   4.741
20173SOL    HW162526  13.775   0.326  15.867
20173SOL    HW262527   2.705  22.280   4.747
20174SOL     OW62528  10.957  10.985   3.313
20174SOL    HW162529  11.014  10.909   3.328
20174SOL    HW262530  10.967  -0.036   3.220
20175SOL     OW62531   4.248   2.608   4.143
20175SOL    HW162532   4.328   2.642   4.102
20175SOL    HW262533   4.280   2.546 -17.870
20176SOL     OW62534   1.324   0.875  10.692
20176SOL    HW162535   1.294   0.961  10.664
20176SOL    HW262536   1.245 -10.217  10.700
20177SOL     OW62537   8.312   6.218   4.062
20177SOL    HW162538 -46.857  17.300  -6.897
20177SOL    HW262539  -2.649   6.178   4.026
20178SOL     OW62540   1.869   2.543   0.596
20178SOL    HW162541   1.902   2.625  22.713
20178SOL    HW262542  -9.169   2.558   0.501
20179SOL     OW62543  10.936   9.150   6.329
20179SOL    HW162544  10.940   9.126   6.237
20179SOL    HW262545  10.858   9.106   6.362
20180SOL     OW62546  -0.177   5.906   9.673
20180SOL    HW162547  21.844   5.964  20.761
20180SOL    HW262548  -0.090  -5.093   9.680
20181SOL     OW62549   2.557   2.849   1.869
20181SOL    HW162550   2.512  25.004   1.907
20181SOL    HW262551  -8.424  -8.221   1.938
20182SOL     OW62552   3.017   9.930   4.226
20182SOL    HW162553   2.953   9.963   4.289
20182SOL    HW262554   3.102 -12.135  -6.772
20183SOL     OW62555   7.305   7.989   0.760
20183SOL    HW162556   7.226   7.955  11.840
20183SOL    HW262557   7.276  19.062   0.675
20184SOL     OW62558   2.301   0.727   9.519
20184SOL    HW162559   2.213   0.722   9.556
20184SOL    HW262560   2.288   0.718 -12.655
20185SOL     OW62561   8.886   9.025   7.484
20185SOL    HW162562  19.872   9.027  18.604
20185SOL    HW262563   8.824  -1.997  18.453
20186SOL     OW62564   9.410   5.078  11.255
20186SOL    HW162565   9.353   5.015   0.259
20186SOL    HW262566   9.486   5.026  11.226
20187SOL     OW62567  10.717   0.200   4.896
20187SOL    HW162568  -0.267   0.261  26.926
20187SOL    HW262569  10.661   0.256  27.029
20188SOL     OW62570   1.253   5.274   3.787
20188SOL    HW162571   1.276   5.354   3.834
20188SOL    HW262572   1.253   5.301   3.694
20189SOL     OW62573   8.969   9.424   9.877
20189SOL    HW162574   9.045  -1.674  -1.166
20189SOL    HW262575  -2.126  -1.652   9.945
20190SOL     OW62576  10.736  11.017   3.446
20190SOL    HW162577  10.678  10.969   3.388
20190SOL    HW262578  10.825  10.994   3.418
20191SOL     OW62579   0.036   6.352   5.107
20191SOL    HW162580  10.987   6.386   5.120
20191SOL    HW262581   0.052   6.363   5.013
20192SOL     OW62582   2.976   0.733   7.265
20192SOL    HW162583  25.058   0.726   7.361
20192SOL    HW262584  24.980   0.790   7.248
20193SOL     OW62585   8.291  -0.584  10.908
20193SOL    HW162586  19.350  -0.646  10.838
20193SOL    HW262587  19.322  21.580  10.863
20194SOL     OW62588   3.248   5.321   3.489
20194SOL    HW162589 -18.804   5.405   3.453
20194SOL    HW262590  -7.717   5.293   3.543
20195SOL     OW62591   7.102   9.523   4.810
20195SOL    HW162592  18.216   9.561   4.765
20195SOL    HW262593   7.048  -1.554  37.858
20196SOL     OW62594   6.106   4.531   8.646
20196SOL    HW162595   6.067   4.618   8.653
20196SOL    HW262596  17.240   4.546   8.652
20197SOL     OW62597  11.460   5.973   9.047
20197SOL    HW162598  11.392   6.020  31.174
20197SOL    HW262599   0.488   5.955   9.112
20198SOL     OW62600   1.547   6.133   3.109
20198SOL    HW162601   1.624   6.160   3.159
20198SOL    HW262602   1.473   6.148  14.208
20199SOL     OW62603   1.645  10.055   2.622
20199SOL    HW162604   1.694   9.973   2.638
20199SOL    HW262605   1.629  10.055   2.528
20200SOL     OW62606   3.942   2.262   6.352
20200SOL    HW162607   4.020   2.232   6.306
20200SOL    HW262608  26.043  13.390   6.382
20201SOL     OW62609   3.376  14.103   3.544
20201SOL    HW162610   3.386 -18.942   3.605
20201SOL    HW262611   3.384  -7.937   3.457
20202SOL     OW62612  10.748   1.711   5.308
20202SOL    HW162613  10.729   1.779   5.244
20202SOL    HW262614  10.840  -9.317   5.330
20203SOL     OW62615  11.061   2.602   7.501
20203SOL    HW162616   0.106  13.617   7.540
20203SOL    HW262617   0.043   2.676 -36.714
20204SOL     OW62618   0.896   3.310   9.366
20204SOL    HW162619   0.893  25.346  31.360
20204SOL    HW262620   0.940   3.394   9.348
20205SOL     OW62621   5.613   8.326   9.147
20205SOL    HW162622   5.693  19.323  20.218
20205SOL    HW262623   5.574  19.405   9.225
20206SOL     OW62624   7.390  10.561   5.382
20206SOL    HW162625  18.395  10.588   5.297
20206SOL    HW262626   7.323  10.587   5.445
20207SOL     OW62627   1.604   9.651   0.775
20207SOL    HW162628   1.544  20.675   0.848
20207SOL    HW262629   1.670  -1.458  11.823
20208SOL     OW62630   8.286   4.828   9.717
20208SOL    HW162631  -2.756  27.000 -12.385
20208SOL    HW262632   8.378  37.922  20.745
20209SOL     OW62633   1.940   7.611   1.358
20209SOL    HW162634  -9.051  29.609   1.367
20209SOL    HW262635   1.864  18.628   1.304
20210SOL     OW62636   8.043   9.547  10.247
20210SOL    HW162637   8.086   9.464  10.264
20210SOL    HW262638   8.112  -1.427  10.255
20211SOL     OW62639  -1.050   9.821   3.658
20211SOL    HW162640   9.909   9.792  14.654
20211SOL    HW262641   9.960   9.857  -7.298
20212SOL     OW62642   5.111   9.601   2.541
20212SOL    HW162643   5.162   9.582  13.659
20212SOL    HW262644  16.064 -23.494   2.573
20213SOL     OW62645  10.445   6.661   1.990
20213SOL    HW162646  10.526  17.743   1.963
20213SOL    HW262647  10.433   6.689   2.081
20214SOL     OW62648  10.788   2.456   0.933
20214SOL    HW162649  10.712  13.529   0.981
20214SOL    HW262650  10.774   2.485   0.843
20215SOL     OW62651   4.327   2.163   1.450
20215SOL    HW162652  -6.622   2.149   1.422
20215SOL    HW262653  -6.743   2.236   1.395
20216SOL     OW62654   5.129   2.196   2.607
20216SOL    HW162655   5.067  -8.890  13.703
20216SOL    HW262656  -5.963   2.267   2.569
20217SOL     OW62657   6.784   6.947   4.212
20217SOL    HW162658   6.843   7.005   4.261
20217SOL    HW262659 -15.254   6.939   4.126
20218SOL     OW62660   9.550  11.385   7.181
20218SOL    HW162661   9.565   0.433  29.226
20218SOL    HW262662   9.634  11.360  18.261
20219SOL     OW62663   3.224   3.148   0.207
20219SOL    HW162664   3.243  -7.819   0.266
20219SOL    HW262665   3.301  -7.898   0.151
20220SOL     OW62666   5.148   6.961   8.106
20220SOL    HW162667   5.203   6.891  -2.968
20220SOL    HW262668 -16.923   6.954  19.240
20221SOL     OW62669   2.470   1.298   2.201
20221SOL    HW162670   2.478   1.388  13.271
20221SOL    HW262671   2.377   1.278   2.209
20222SOL     OW62672  10.457   8.160   8.559
20222SOL    HW162673  10.485   8.092   8.621
20222SOL    HW262674 -11.559   8.231  19.611
20223SOL     OW62675   3.802  10.987   6.435
20223SOL    HW162676   3.735  10.943   6.382
20223SOL    HW262677 -18.253 -11.015   6.384
20224SOL     OW62678   0.008   2.503   7.996
20224SOL    HW162679  -0.004   2.554   8.076
20224SOL    HW262680   0.014   2.413   8.025
20225SOL     OW62681   8.875  10.474   9.652
20225SOL    HW162682   8.915  -0.613 -23.394
20225SOL    HW262683   8.787  10.438   9.644
20226SOL     OW62684  10.345   3.905   5.761
20226SOL    HW162685  10.433  25.998 -16.355
20226SOL    HW262686 -11.718  -7.168   5.849
20227SOL     OW62687   1.779   9.141   7.798
20227SOL    HW162688  -9.281 -24.052   7.741
20227SOL    HW262689   1.835   9.198   7.745
20228SOL     OW62690   9.921   9.343   7.165
20228SOL    HW162691  20.940   9.431   7.133
20228SOL    HW262692   9.959   9.298   7.089
20229SOL     OW62693   6.115   9.307   3.333
20229SOL    HW162694   6.075 -12.740   3.252
20229SOL    HW262695   6.100   9.378   3.396
20230SOL     OW62696   0.760   4.647   3.797
20230SOL    HW162697   0.819  37.840   3.789
20230SOL    HW262698   0.790  15.625   3.729
20231SOL     OW62699   3.350  10.193   1.713
20231SOL    HW162700   3.258  10.165   1.710
20231SOL    HW262701   3.400  10.116   1.686
20232SOL     OW62702   9.403   1.388   7.505
20232SOL    HW162703  -1.728   1.367   7.484
20232SOL    HW262704   9.397   1.466   7.559
20233SOL     OW62705  10.759  -0.505   5.232
20233SOL    HW162706  10.723  10.587  38.422
20233SOL    HW262707  10.728  -0.463   5.152
20234SOL     OW62708   8.069   3.709   1.900
20234SOL    HW162709   8.153   3.681   1.936
20234SOL    HW262710 -25.099   3.740   1.976
20235SOL     OW62711   3.105   4.775   7.402
20235SOL    HW162712  -7.975   4.692   7.377
20235SOL    HW262713  14.235   4.768   7.374
20236SOL     OW62714   6.309   6.350   7.538
20236SOL    HW162715  17.283  39.407   7.569
20236SOL    HW262716   6.378  28.374   7.500
20237SOL     OW62717  10.743   8.289  10.350
20237SOL    HW162718  -0.293   8.355  10.281
20237SOL    HW262719 -22.361   8.206  21.345
20238SOL     OW62720  11.622   2.585   9.160
20238SOL    HW162721   0.517   2.589   9.091
20238SOL    HW262722  11.642 -19.588  31.248
20239SOL     OW62723   4.172   5.612   2.846
20239SOL    HW162724   4.237   5.600  -8.124
20239SOL    HW262725   4.088  -5.431  24.970
20240SOL     OW62726   4.676  11.012  -1.167
20240SOL    HW162727   4.646   0.051  -1.212
20240SOL    HW262728   4.619  11.005  20.989
20241SOL     OW62729   7.242   9.957   1.069
20241SOL    HW162730  18.340 -12.181   1.116
20241SOL    HW262731   7.300  10.026   1.035
20242SOL     OW62732  -0.389   7.255   9.095
20242SOL    HW162733  10.609  -3.829  20.061
20242SOL    HW262734  -0.440   7.229   9.172
20243SOL     OW62735  10.209   9.062   9.649
20243SOL    HW162736  10.294   9.107   9.652
20243SOL    HW262737  10.212   9.000   9.722
20244SOL     OW62738   8.048  10.964   6.855
20244SOL    HW162739   8.005  10.905   6.917
20244SOL    HW262740   8.139  10.935  -4.186
20245SOL     OW62741   6.035   5.955   8.896
20245SOL    HW162742 -15.985   5.945   8.970
20245SOL    HW262743   5.947  -5.097   8.934
20246SOL     OW62744  10.830   7.728   9.485
20246SOL    HW162745  10.883  29.880 -12.562
20246SOL    HW262746  10.893  29.740 -34.698
20247SOL     OW62747   0.964  10.806   6.208
20247SOL    HW162748   0.970  10.773   6.118
20247SOL    HW262749  11.927  10.864   6.208
20248SOL     OW62750   0.234   4.682   0.095
20248SOL    HW162751  33.427   4.733  22.207
20248SOL    HW262752  33.276  15.772   0.122
20249SOL     OW62753   6.878   2.858   8.017
20249SOL    HW162754   6.863  13.840  -2.947
20249SOL    HW262755   6.967  -8.148 -25.089
20250SOL     OW62756   9.089   6.057   3.758
20250SOL    HW162757   9.058  -4.923  14.729
20250SOL    HW262758   9.032   5.981  25.830
20251SOL     OW62759  10.983   1.043   3.462
20251SOL    HW162760  10.949  34.220  -7.510
20251SOL    HW262761  10.991 -20.981   3.384
20252SOL     OW62762  10.530   2.219   6.789
20252SOL    HW162763  10.552  13.227   6.877
20252SOL    HW262764  10.491  13.344   6.803
20253SOL     OW62765   2.838   7.425  10.034
20253SOL    HW162766   2.894   7.381 -11.982
20253SOL    HW262767   2.756   7.375  10.036
20254SOL     OW62768   1.407   8.424   0.659
20254SOL    HW162769   1.431  -2.557   0.587
20254SOL    HW262770   1.377   8.482 -10.311
20255SOL     OW62771  11.029   6.196   5.756
20255SOL    HW162772  -0.042   6.118  16.841
20255SOL    HW262773  10.961  17.254  49.850
20256SOL     OW62774   1.427   3.743   2.994
20256SOL    HW162775  -9.613  14.738   3.079
20256SOL    HW262776  34.588  36.946   3.011
20257SOL     OW62777   3.016   0.557  10.386
20257SOL    HW162778   3.048   0.609  10.312
20257SOL    HW262779  13.965   0.535  10.363
20258SOL     OW62780   3.611   1.682   1.006
20258SOL    HW162781  -7.343   1.724   1.003
20258SOL    HW262782 -18.528   1.752   1.034
20259SOL     OW62783   3.534   5.434   3.084
20259SOL    HW162784   3.563   5.525   3.091
20259SOL    HW262785  36.558   5.438  -7.943
20260SOL     OW62786   9.488   9.543   2.300
20260SOL    HW162787  31.643   9.574   2.251
20260SOL    HW262788   9.525   9.500  -8.663
20261SOL     OW62789   1.013   6.918   1.762
20261SOL    HW162790   0.928   6.951   1.791
20261SOL    HW262791   1.059   6.995   1.729
20262SOL     OW62792   5.389   7.325   8.352
20262SOL    HW162793   5.328   7.272   8.403
20262SOL    HW262794  16.454 -14.683   8.410
20263SOL     OW62795   5.862   9.941   4.857
20263SOL    HW162796   5.940  20.989   4.802
20263SOL    HW262797  -5.251   9.956  48.955
20264SOL     OW62798   6.649   5.512   3.709
20264SOL    HW162799  17.613   5.456  -7.314
20264SOL    HW262800   6.721   5.469   3.754
20265SOL     OW62801   3.767   0.915   7.252
20265SOL    HW162802   3.757   1.008   7.234
20265SOL    HW262803  14.888   0.891   7.209
20266SOL     OW62804   1.142   3.376   2.990
20266SOL    HW162805   1.226   3.332   2.978
20266SOL    HW262806   1.157   3.465  13.998
20267SOL     OW62807   4.882  10.564   3.762
20267SOL    HW162808   4.876 -22.626   3.698
20267SOL    HW262809   4.965  -0.432  -7.298
20268SOL     OW62810   8.283   0.207   9.285
20268SOL    HW162811   8.360   0.172   9.242
20268SOL    HW262812  -2.722   0.257   9.359
20269SOL     OW62813   0.319  11.046   2.603
20269SOL    HW162814   0.300  10.963   2.558
20269SOL    HW262815   0.320   0.072 -19.547
20270SOL     OW62816   8.086   4.635   9.469
20270SOL    HW162817 -13.953   4.712   9.429
20270SOL    HW262818 -36.048   4.563  -1.628
20271SOL     OW62819   4.164   1.291   1.627
20271SOL    HW162820   4.162   1.267  -9.505
20271SOL    HW262821 -29.041   1.263   1.660
20272SOL     OW62822   2.765   8.531   1.751
20272SOL    HW162823  -8.233   8.445   1.754
20272SOL    HW262824 -30.447   8.513   1.764
20273SOL     OW62825   1.051   4.561  10.341
20273SOL    HW162826   1.127   4.572  -0.756
20273SOL    HW262827   1.071  -6.424  10.417
20274SOL     OW62828   8.317   5.918  10.581
20274SOL    HW162829   8.317   5.958  10.495
20274SOL    HW262830   8.258   5.973  10.633
20275SOL     OW62831  10.419   8.681   5.486
20275SOL    HW162832  10.338   8.676   5.537
20275SOL    HW262833  10.474   8.612  -5.516
20276SOL     OW62834   0.293   6.179   5.527
20276SOL    HW162835  11.299   6.262  16.535
20276SOL    HW262836   0.388   6.185   5.514
20277SOL     OW62837   1.654   3.783   4.234
20277SOL    HW162838  -9.307   3.815   4.188
20277SOL    HW262839  12.686  25.770  -6.833
20278SOL     OW62840   8.041   8.422   9.605
20278SOL    HW162841   8.073  -2.676   9.675
20278SOL    HW262842 -14.106 -13.708   9.561
20279SOL     OW62843   1.504   8.049   8.900
20279SOL    HW162844   1.543   8.108   8.836
20279SOL    HW262845   1.556   7.968   8.893
20280SOL     OW62846  10.210   1.537   3.411
20280SOL    HW162847  10.140   1.513   3.473
20280SOL    HW262848  10.169   1.600   3.352
20281SOL     OW62849   0.932  10.692   5.195
20281SOL    HW162850   0.922  10.657   5.284
20281SOL    HW262851   1.020  -0.311   5.194
20282SOL     OW62852  -2.454   9.722   3.755
20282SOL    HW162853  30.613  20.717  14.727
20282SOL    HW262854  52.769   9.805   3.714
20283SOL     OW62855   3.264   8.388  10.019
20283SOL    HW162856   3.215   8.457  10.064
20283SOL    HW262857   3.321   8.351 -11.993
20284SOL     OW62858   3.122  11.579   0.667
20284SOL    HW162859  14.204  11.521   0.730
20284SOL    HW262860   3.126 -10.414   0.708
20285SOL     OW62861   7.604   3.713   1.763
20285SOL    HW162862 -25.430   3.670 -20.305
20285SOL    HW262863   7.584   3.704   1.670
20286SOL     OW62864  10.736   1.557   2.920
20286SOL    HW162865 -11.420   1.503   2.938
20286SOL    HW262866  21.764   1.634   2.976
20287SOL     OW62867   0.302   6.235   3.846
20287SOL    HW162868  22.411  -4.742 -18.166
20287SOL    HW262869  11.279 -37.874   3.794
20288SOL     OW62870   2.537   0.565   8.603
20288SOL    HW162871   2.590   0.605   8.534
20288SOL    HW262872   2.601  11.565   8.662
20289SOL     OW62873   3.158  10.130  11.610
20289SOL    HW162874  14.261  10.156  11.544
20289SOL    HW262875  25.281  10.060 -32.499
20290SOL     OW62876  12.274  10.013   1.695
20290SOL    HW162877  12.278  10.108   1.687
20290SOL    HW262878 -20.759   9.989  34.849
20291SOL     OW62879   7.641   4.357   6.332
20291SOL    HW162880   7.572   4.382   6.394
20291SOL    HW262881   7.687   4.438   6.314
20292SOL     OW62882   2.819   0.146   8.010
20292SOL    HW162883   2.793   0.238   8.013
20292SOL    HW262884   2.755   0.105   7.951
20293SOL     OW62885   3.606   8.559   1.739
20293SOL    HW162886   3.628   8.640   1.785
20293SOL    HW262887   3.640   8.490  12.836
20294SOL     OW62888   2.087   3.853   7.976
20294SOL    HW162889   2.056   3.943   7.968
20294SOL    HW262890   2.080  14.856   7.888
20295SOL     OW62891   1.887   6.244   7.817
20295SOL    HW162892   1.935   6.280  18.931
20295SOL    HW262893   1.796  17.309  18.871
20296SOL     OW62894  11.186   7.731   5.388
20296SOL    HW162895 -21.996   7.660 -16.707
20296SOL    HW262896  11.241   7.698 -16.621
20297SOL     OW62897   1.155   2.610   2.782
20297SOL    HW162898   1.152 -19.375   2.799
20297SOL    HW262899   1.069   2.578   2.809
20298SOL     OW62900   5.945   3.067   6.212
20298SOL    HW162901   5.901   3.067   6.127
20298SOL    HW262902   6.015   3.131   6.204
20299SOL     OW62903   9.013   9.481   2.058
20299SOL    HW162904  31.141   9.563   2.067
20299SOL    HW262905  19.983   9.487   2.124
20300SOL     OW62906   8.351   3.947   6.291
20300SOL    HW162907 -24.835   4.008  -4.781
20300SOL    HW262908   8.306   3.863  17.338
20301SOL     OW62909   9.711  10.628   6.729
20301SOL    HW162910   9.667  -0.493   6.702
20301SOL    HW262911   9.746 -22.511  -4.224
20302SOL     OW62912   4.874  12.890  -1.031
20302SOL    HW162913   4.956 -53.344  21.098
20302SOL    HW262914 -17.190  -9.130  -1.105
20303SOL     OW62915   1.466   5.014   2.835
20303SOL    HW162916  -9.542  27.111   2.747
20303SOL    HW262917  12.411   5.003   2.825
20304SOL     OW62918   6.744  10.577   8.691
20304SOL    HW162919  -4.291  10.653   8.634
20304SOL    HW262920  -4.254  10.605   8.772
20305SOL     OW62921  11.441   5.934   4.765
20305SOL    HW162922  11.399   6.018 -17.296
20305SOL    HW262923   0.330 -16.201   4.736
20306SOL     OW62924  10.126   3.673   2.537
20306SOL    HW162925  10.046   3.669   2.486
20306SOL    HW262926  10.194   3.694  -8.566
20307SOL     OW62927   2.514   3.014   7.800
20307SOL    HW162928   2.559   2.935   7.830
20307SOL    HW262929  13.473  -8.023   7.851
20308SOL     OW62930  -1.606   3.714   4.841
20308SOL    HW162931   9.441   3.625   4.807
20308SOL    HW262932  31.435   3.750   4.797
20309SOL     OW62933   8.263   7.604   1.859
20309SOL    HW162934   8.245  18.694   1.779
20309SOL    HW262935   8.196   7.633  12.960
20310SOL     OW62936  10.916   4.273   7.475
20310SOL    HW162937  10.908  -6.846   7.422
20310SOL    HW262938  10.844   4.269  -3.503
20311SOL     OW62939   9.436   8.403   9.436
20311SOL    HW162940   9.390   8.472   9.484
20311SOL    HW262941   9.367 -13.735  -1.634
20312SOL     OW62942   6.826   4.306  -0.560
20312SOL    HW162943 -26.346 -28.781  -0.632
20312SOL    HW262944   6.913   4.292  10.441
20313SOL     OW62945   2.533   1.937   4.544
20313SOL    HW162946   2.610   1.908  15.633
20313SOL    HW262947   2.459   1.893   4.586
20314SOL     OW62948   4.668  10.246   2.386
20314SOL    HW162949   4.699  10.321  -8.602
20314SOL    HW262950 -17.499  10.271  13.398
20315SOL     OW62951   8.875   2.774   5.348
20315SOL    HW162952  19.995  -8.306  16.420
20315SOL    HW262953  -2.230   2.704   5.350
20316SOL     OW62954   7.254   2.386   9.227
20316SOL    HW162955 -14.836  -8.737  20.220
20316SOL    HW262956  -3.875   2.421  -1.806
20317SOL     OW62957   7.809   9.666   3.243
20317SOL    HW162958   7.782   9.754   3.268
20317SOL    HW262959  -3.156   9.647   3.300
20318SOL     OW62960   3.336   1.313   7.403
20318SOL    HW162961   3.330   1.405   7.375
20318SOL    HW262962   3.430   1.295   7.407
20319SOL     OW62963   3.426   0.270   2.718
20319SOL    HW162964   3.380  22.377 -19.441
20319SOL    HW262965   3.381  22.396   2.789
20320SOL     OW62966   2.232   2.329   0.134
20320SOL    HW162967 -19.833   2.384   0.058
20320SOL    HW262968  -8.845  24.467   0.200
20321SOL     OW62969   1.630   9.356   6.590
20321SOL    HW162970   1.725 -23.768   6.576
20321SOL    HW262971 -20.487   9.298  28.603
20322SOL     OW62972   7.961   8.753   7.010
20322SOL    HW162973   7.919   8.804   7.079
20322SOL    HW262974   7.950   8.662   7.037
20323SOL     OW62975  11.894   9.580   8.330
20323SOL    HW162976   0.914  31.594   8.293
20323SOL    HW262977   0.893   9.664   8.304
20324SOL     OW62978   9.269   1.397   4.698
20324SOL    HW162979  -1.732   1.469   4.747
20324SOL    HW262980   9.304   1.407   4.609
20325SOL     OW62981   2.556   1.925   7.666
20325SOL    HW162982 -30.656  24.020  -3.391
20325SOL    HW262983   2.601  13.037   7.624
20326SOL     OW62984   8.164   8.284   7.547
20326SOL    HW162985   8.072   8.311 -14.542
20326SOL    HW262986   8.194   8.328  18.666
20327SOL     OW62987   3.679   3.488   4.195
20327SOL    HW162988   3.653   3.403   4.161
20327SOL    HW262989   3.597   3.529   4.225
20328SOL     OW62990  10.579   8.651  10.721
20328SOL    HW162991  10.666   8.612  21.753
20328SOL    HW262992  10.552   8.665  -0.410
20329SOL     OW62993   7.806   4.580   4.409
20329SOL    HW162994   7.726   4.605  15.402
20329SOL    HW262995   7.773   4.538   4.489
20330SOL     OW62996   3.918   1.079   5.394
20330SOL    HW162997 -18.081  12.111 -16.737
20330SOL    HW262998  14.899   1.013  -5.683
20331SOL     OW62999   7.330   3.346   9.716
20331SOL    HW163000   7.401 -18.699   9.771
20331SOL    HW263001  29.421   3.391  31.711
20332SOL     OW63002   0.015   6.157   9.943
20332SOL    HW163003   0.070   6.182  -1.023
20332SOL    HW263004  -0.075   6.175   9.972
20333SOL     OW63005   9.998   1.668   1.803
20333SOL    HW163006  10.092   1.652   1.792
20333SOL    HW263007  -1.076   1.670   1.713
20334SOL     OW63008   0.048   1.167   7.314
20334SOL    HW163009  -0.014  -9.802   7.328
20334SOL    HW263010   0.088   1.186   7.228
20335SOL     OW63011   0.553   5.989   1.254
20335SOL    HW163012  22.585   5.906  12.302
20335SOL    HW263013  11.548  28.128   1.314
20336SOL     OW63014   4.316   5.264  -0.597
20336SOL    HW163015   4.281  16.297  32.611
20336SOL    HW263016  15.290   5.314  -0.645
20337SOL     OW63017   8.003   6.263   5.869
20337SOL    HW163018   8.039   6.349  27.970
20337SOL    HW263019   7.913   6.266   5.903
20338SOL     OW63020   0.905   9.362   7.348
20338SOL    HW163021  22.997   9.279   7.393
20338SOL    HW263022  11.977   9.346   7.259
20339SOL     OW63023   2.547   0.567   7.659
20339SOL    HW163024   2.631  11.616   7.705
20339SOL    HW263025   2.542   0.644   7.603
20340SOL     OW63026   1.993   9.942   0.213
20340SOL    HW163027  -8.994 -12.131  11.173
20340SOL    HW263028   1.906   9.969   0.186
20341SOL     OW63029   8.951   1.723   5.310
20341SOL    HW163030   8.883   1.668   5.351
20341SOL    HW263031   8.945   1.703   5.217
20342SOL     OW63032   5.499  11.285   3.876
20342SOL    HW163033   5.526 -10.844   3.953
20342SOL    HW263034  -5.546  11.375   3.907
20343SOL     OW63035   5.811   8.236  10.866
20343SOL    HW163036   5.820   8.309  10.805
20343SOL    HW263037   5.717   8.231  10.884
20344SOL     OW63038  11.460   7.861   8.644
20344SOL    HW163039  11.427  18.959   8.575
20344SOL    HW263040   0.486   7.806 -24.519
20345SOL     OW63041   2.537   5.551   9.846
20345SOL    HW163042   2.446   5.576   9.858
20345SOL    HW263043   2.562  -5.531  20.967
20346SOL     OW63044   5.189   3.307   9.068
20346SOL    HW163045   5.241   3.385  20.127
20346SOL    HW263046   5.103 -18.754   9.106
20347SOL     OW63047   1.178   4.277   3.031
20347SOL    HW163048   1.231   4.341   3.078
20347SOL    HW263049   1.175   4.201   3.088
20348SOL     OW63050   4.776   4.137   3.025
20348SOL    HW163051   4.786   4.232  -8.000
20348SOL    HW263052 -17.354  -6.909   2.944
20349SOL     OW63053   4.894   9.220   4.990
20349SOL    HW163054   4.810   9.187 -39.137
20349SOL    HW263055  15.917   9.249   4.901
20350SOL     OW63056   5.229   5.540   2.312
20350SOL    HW163057   5.202   5.478   2.380
20350SOL    HW263058  16.187   5.566   2.269
20351SOL     OW63059   0.375   8.426   9.224
20351SOL    HW163060   0.358  30.582 -12.802
20351SOL    HW263061   0.380   8.354   9.287
20352SOL     OW63062   9.722  11.514   3.299
20352SOL    HW163063   9.651  11.464   3.258
20352SOL    HW263064  20.822   0.493   3.228
20353SOL     OW63065   8.793   2.579   1.978
20353SOL    HW163066   8.819   2.493   2.010
20353SOL    HW263067   8.698   2.583   1.993
20354SOL     OW63068  10.025   9.267   1.192
20354SOL    HW163069  10.102   9.312  12.198
20354SOL    HW263070  10.036   9.176  23.244
20355SOL     OW63071   8.045   5.912   5.713
20355SOL    HW163072   8.090   5.834   5.682
20355SOL    HW263073  19.004  16.919   5.752
20356SOL     OW63074   7.431  10.284   2.069
20356SOL    HW163075   7.515  -0.779  -9.009
20356SOL    HW263076   7.373  10.212   2.045
20357SOL     OW63077   8.796   3.953   5.757
20357SOL    HW163078   8.744   3.873   5.758
20357SOL    HW263079  -2.305   4.022   5.780
20358SOL     OW63080   7.246  -0.149   7.542
20358SOL    HW163081   7.188  -0.074   7.530
20358SOL    HW263082  18.359  21.965   7.593
20359SOL     OW63083   1.880   8.469   5.865
20359SOL    HW163084   1.787  -2.579  -5.152
20359SOL    HW263085  24.001   8.493  -5.093
20360SOL     OW63086   6.419   1.725   5.721
20360SOL    HW163087  -4.585   1.740  49.792
20360SOL    HW263088  28.494  -9.227  16.800
20361SOL     OW63089   9.335   5.791   8.176
20361SOL    HW163090   9.269   5.806   8.108
20361SOL    HW263091  20.398   5.699   8.167
20362SOL     OW63092  10.318   7.169   5.402
20362SOL    HW163093  10.238   7.216   5.376
20362SOL    HW263094  10.343   7.210   5.485
20363SOL     OW63095   0.210   1.639   4.614
20363SOL    HW163096   0.220   1.704  26.763
20363SOL    HW263097   0.176   1.688  15.579
20364SOL     OW63098   7.621   7.273   4.886
20364SOL    HW163099  -3.388   7.200   4.832
20364SOL    HW263100   7.529   7.252   4.904
20365SOL     OW63101  -1.205  10.640   7.522
20365SOL    HW163102  20.883  -0.342   7.597
20365SOL    HW263103  -1.153  21.602  18.583
20366SOL     OW63104   2.729  -0.309   2.777
20366SOL    HW163105   2.796  -0.248   2.747
20366SOL    HW263106  -8.288  10.647   2.736
20367SOL     OW63107   9.901   7.734   4.117
20367SOL    HW163108   9.921  -3.370  15.089
20367SOL    HW263109   9.806   7.727  -6.910
20368SOL     OW63110   3.808  12.145   1.396
20368SOL    HW163111   3.836 -21.064   1.404
20368SOL    HW263112 -18.267  12.163 -20.777
20369SOL     OW63113  11.600   6.143   3.296
20369SOL    HW163114 -10.400  28.208   3.348
20369SOL    HW263115  11.529   6.145  25.440
20370SOL     OW63116   6.342   2.344   5.870
20370SOL    HW163117   6.405   2.292   5.921
20370SOL    HW263118  -4.689  -8.607   5.905
20371SOL     OW63119   1.657   5.374  11.386
20371SOL    HW163120   1.566   5.346   0.353
20371SOL    HW263121  12.701   5.455  11.437
20372SOL     OW63122   3.550   4.087   4.809
20372SOL    HW163123   3.571   4.157  26.826
20372SOL    HW263124  25.678   4.011   4.776
20373SOL     OW63125   7.470   5.023  -0.812
20373SOL    HW163126   7.402   5.036  -0.747
20373SOL    HW263127   7.460   4.932  21.239
20374SOL     OW63128   3.309   6.470   8.921
20374SOL    HW163129   3.365  17.519 -13.236
20374SOL    HW263130  -7.703   6.387   8.960
20375SOL     OW63131   9.698   9.565  10.942
20375SOL    HW163132   9.669   9.655  10.926
20375SOL    HW263133   9.787   9.562  10.905
20376SOL     OW63134   6.765  12.107   1.135
20376SOL    HW163135   6.685  12.121  12.124
20376SOL    HW263136 -15.326  -9.918  23.292
20377SOL     OW63137   7.561   4.220   8.731
20377SOL    HW163138  -3.505   4.239  19.860
20377SOL    HW263139   7.520   4.289  -2.361
20378SOL     OW63140   9.393   5.815   0.064
20378SOL    HW163141   9.390  -5.222   0.159
20378SOL    HW263142   9.347  27.813   0.041
20379SOL     OW63143   2.512   4.618   3.114
20379SOL    HW163144 -19.525   4.539   3.081
20379SOL    HW263145 -19.572   4.605   3.208
20380SOL     OW63146  10.735   9.017   7.702
20380SOL    HW163147  10.695   8.941   7.658
20380SOL    HW263148 -11.399   9.031   7.779
20381SOL     OW63149   1.442   2.489  10.381
20381SOL    HW163150   1.407 -19.531  10.447
20381SOL    HW263151  -9.673  13.507  10.325
20382SOL     OW63152   0.038   5.999   6.405
20382SOL    HW163153  22.081   5.994  -4.546
20382SOL    HW263154  -0.032  28.117   6.352
20383SOL     OW63155   1.205   5.363   9.232
20383SOL    HW163156   1.268  16.331   9.240
20383SOL    HW263157  23.266   5.388   9.323
20384SOL     OW63158   6.242   5.129   8.771
20384SOL    HW163159 -15.812   5.221   8.769
20384SOL    HW263160 -15.767  16.124  19.762
20385SOL     OW63161   9.703   7.676   4.440
20385SOL    HW163162  20.680   7.607   4.463
20385SOL    HW263163  20.828   7.634   4.448
20386SOL     OW63164   2.083   6.581  10.740
20386SOL    HW163165  35.250  -4.539  10.718
20386SOL    HW263166  46.224   6.622  10.656
20387SOL     OW63167   0.767   0.696   6.946
20387SOL    HW163168   0.779   0.782   6.908
20387SOL    HW263169   0.691   0.705   7.004
20388SOL     OW63170   1.990   9.017   9.500
20388SOL    HW163171   2.031   9.098  20.509
20388SOL    HW263172   1.915  20.044   9.442
20389SOL     OW63173   5.908   2.878   8.093
20389SOL    HW163174  27.950  13.900  -3.034
20389SOL    HW263175  27.967  14.009   8.110
20390SOL     OW63176   4.998   8.110  10.870
20390SOL    HW163177   5.090   8.096  10.851
20390SOL    HW263178   4.954  -2.945  10.786
20391SOL     OW63179   8.894   5.486   1.187
20391SOL    HW163180 -13.275   5.456  12.213
20391SOL    HW263181  19.954   5.462   1.278
20392SOL     OW63182   8.224   0.423   9.717
20392SOL    HW163183  19.304   0.398   9.801
20392SOL    HW263184  30.371   0.403   9.652
20393SOL     OW63185   3.094   8.624   8.427
20393SOL    HW163186   3.014  19.711   8.401
20393SOL    HW263187   3.150  -2.348  -2.575
20394SOL     OW63188   4.303   4.851   7.831
20394SOL    HW163189  26.459   4.847   7.774
20394SOL    HW263190  -6.805   4.892   7.777
20395SOL     OW63191   1.117   8.060   5.357
20395SOL    HW163192   1.137 -13.986   5.444
20395SOL    HW263193   1.094   8.138   5.306
20396SOL     OW63194  10.274   4.415   4.970
20396SOL    HW163195  10.294   4.504   4.941
20396SOL    HW263196  21.265   4.427   5.052
20397SOL     OW63197   7.214   8.270   4.552
20397SOL    HW163198   7.301   8.293  26.663
20397SOL    HW263199   7.162   8.350  -6.473
20398SOL     OW63200   6.305   7.845   5.735
20398SOL    HW163201   6.323 -14.328   5.737
20398SOL    HW263202   6.232   7.857   5.796
20399SOL     OW63203   9.209   3.838   4.719
20399SOL    HW163204  20.163  -7.221  15.719
20399SOL    HW263205   9.217  -7.106 -17.367
20400SOL     OW63206  -0.436  10.449   6.078
20400SOL    HW163207  10.664  10.423   6.148
20400SOL    HW263208  -0.522  10.444   6.119
20401SOL     OW63209  -0.242   1.930   4.917
20401SOL    HW163210  32.901   1.911  15.866
20401SOL    HW263211  -0.162  -9.075   4.956
20402SOL     OW63212   0.154   7.130   8.820
20402SOL    HW163213  11.238   7.049   8.797
20402SOL    HW263214   0.064   7.118   8.789
20403SOL     OW63215  10.186   7.476   7.994
20403SOL    HW163216  -0.813   7.546   8.045
20403SOL    HW263217  10.126  29.600  18.974
20404SOL     OW63218   0.561   2.046  10.632
20404SOL    HW163219   0.469  13.076  10.609
20404SOL    HW263220   0.588  13.167  10.588
20405SOL     OW63221   9.300   8.060   3.727
20405SOL    HW163222   9.359   8.131  14.742
20405SOL    HW263223   9.338  19.021  25.767
20406SOL     OW63224   2.349   5.322   1.433
20406SOL    HW163225   2.301   5.243   1.458
20406SOL    HW263226   2.294   5.362   1.365
20407SOL     OW63227   2.013   6.594   4.535
20407SOL    HW163228   2.077   6.530   4.506
20407SOL    HW263229  57.229  28.751   4.483
20408SOL     OW63230   2.950   3.401   6.844
20408SOL    HW163231   2.904  14.390   6.911
20408SOL    HW263232   3.031   3.353   6.827
20409SOL     OW63233   0.733   5.729   7.866
20409SOL    HW163234   0.807  -5.310  18.966
20409SOL    HW263235   0.763   5.676  40.911
20410SOL     OW63236   0.896   4.243   6.447
20410SOL    HW163237   0.956   4.195  28.470
20410SOL    HW263238 -10.208 -17.799   6.388
20411SOL     OW63239   0.498   7.285   9.576
20411SOL    HW163240   0.469   7.292   9.484
20411SOL    HW263241   0.434   7.338   9.625
20412SOL     OW63242   6.025  13.092  10.607
20412SOL    HW163243   5.992  13.166  10.659
20412SOL    HW263244  -4.924 -31.078  10.637
20413SOL     OW63245   8.866  11.435   8.009
20413SOL    HW163246   8.820  11.396   7.935
20413SOL    HW263247 -35.209 -10.613   7.972
20414SOL     OW63248   1.140   0.039   8.051
20414SOL    HW163249   1.227  11.101   8.082
20414SOL    HW263250  -9.885  -0.032   7.988
20415SOL     OW63251   4.574   2.645   8.412
20415SOL    HW163252   4.534   2.714   8.466
20415SOL    HW263253  -6.529   2.629  30.421
20416SOL     OW63254   2.413  10.167   2.740
20416SOL    HW163255   2.496  21.179  13.818
20416SOL    HW263256  -8.639  10.256  13.812
20417SOL     OW63257   5.156   2.520   1.561
20417SOL    HW163258  16.229  -8.604   1.532
20417SOL    HW263259  38.338   2.550   1.627
20418SOL     OW63260   9.402   3.109   3.640
20418SOL    HW163261   9.321   3.151   3.668
20418SOL    HW263262   9.469   3.143   3.699
20419SOL     OW63263  11.644   3.570   3.457
20419SOL    HW163264   0.682   3.625   3.465
20419SOL    HW263265  11.609   3.590   3.370
20420SOL     OW63266   8.686  12.094   6.358
20420SOL    HW163267   8.685 -20.929   6.352
20420SOL    HW263268   8.730  12.066   6.277
20421SOL     OW63269   5.660   1.359   6.053
20421SOL    HW163270   5.750  -9.710  17.080
20421SOL    HW263271   5.608  23.359   6.040
20422SOL     OW63272   0.267   8.822   3.368
20422SOL    HW163273   0.274   8.750 -18.649
20422SOL    HW263274   0.355   8.859  -7.675
20423SOL     OW63275   7.898   4.685   8.189
20423SOL    HW163276   7.841   4.703  -2.925
20423SOL    HW263277   7.878  -6.286   8.252
20424SOL     OW63278  10.075   8.532   7.097
20424SOL    HW163279 -11.993   8.437  18.124
20424SOL    HW263280 -11.914  19.605   7.101
20425SOL     OW63281   9.340   6.917  10.272
20425SOL    HW163282   9.284   6.891  10.345
20425SOL    HW263283  20.417  -4.039  10.300
20426SOL     OW63284   0.705   0.039   3.233
20426SOL    HW163285   0.654   0.042   3.152
20426SOL    HW263286   0.787  -0.004   3.208
20427SOL     OW63287   5.044   9.094   3.324
20427SOL    HW163288 -27.991 -12.948  25.431
20427SOL    HW263289   4.996   9.078  36.525
20428SOL     OW63290   6.016   8.417   1.527
20428SOL    HW163291   6.010  19.521  12.637
20428SOL    HW263292   5.969  19.379   1.561
20429SOL     OW63293  12.216   5.608   2.947
20429SOL    HW163294  12.216   5.531   3.004
20429SOL    HW263295 -20.991   5.644   2.956
20430SOL     OW63296   1.275   4.790   9.393
20430SOL    HW163297  -9.749   4.877   9.356
20430SOL    HW263298  -9.799   4.738   9.320
20431SOL     OW63299   2.750   5.123   4.602
20431SOL    HW163300   2.811  16.088  26.673
20431SOL    HW263301   2.678   5.089   4.655
20432SOL     OW63302   0.709   7.186   1.889
20432SOL    HW163303   0.793   7.216   1.854
20432SOL    HW263304  11.732  -3.936 -20.236
20433SOL     OW63305   1.706   7.197   3.928
20433SOL    HW163306   1.729  18.145  25.993
20433SOL    HW263307   1.779   7.232   3.979
20434SOL     OW63308  12.624   0.098   1.185
20434SOL    HW163309 -20.536   0.183  12.211
20434SOL    HW263310  12.717   0.118   1.199
20435SOL     OW63311   6.869   8.563   2.221
20435SOL    HW163312   6.954 -35.567   2.256
20435SOL    HW263313   6.807  19.669   2.251
20436SOL     OW63314   1.077   0.724   2.792
20436SOL    HW163315   1.130   0.663  -8.195
20436SOL    HW263316   1.009   0.669  -8.286
20437SOL     OW63317   9.085   5.086   3.828
20437SOL    HW163318  20.032   5.073 -18.268
20437SOL    HW263319   9.087   5.142 -18.174
20438SOL     OW63320  10.133   7.687   8.435
20438SOL    HW163321  10.220  29.728  30.523
20438SOL    HW263322  10.140   7.746   8.361
20439SOL     OW63323  10.593   7.403   1.655
20439SOL    HW163324  10.526   7.386   1.721
20439SOL    HW263325  10.642   7.321 -20.429
20440SOL     OW63326   5.281   9.716  10.133
20440SOL    HW163327   5.244   9.771  10.064
20440SOL    HW263328 -16.768   9.638  -0.952
20441SOL     OW63329   7.947   4.860   1.431
20441SOL    HW163330   7.910   4.775   1.404
20441SOL    HW263331  18.998   4.851   1.525
20442SOL     OW63332   8.574   6.865   0.891
20442SOL    HW163333  30.612  17.851   0.823
20442SOL    HW263334   8.531   6.838   0.972
20443SOL     OW63335   7.283   3.266   4.733
20443SOL    HW163336   7.204  25.312 -28.428
20443SOL    HW263337   7.257   3.286   4.823
20444SOL     OW63338   7.295   5.643   9.745
20444SOL    HW163339   7.203   5.622   9.760
20444SOL    HW263340  18.333   5.725   9.695
20445SOL     OW63341   4.513   0.279   3.087
20445SOL    HW163342  -6.579 -10.836 -30.058
20445SOL    HW263343   4.469  11.393   3.046
20446SOL     OW63344   8.840   3.526   5.566
20446SOL    HW163345   8.874  47.618   5.505
20446SOL    HW263346   8.870  25.688   5.531
20447SOL     OW63347   8.505   4.984   5.396
20447SOL    HW163348  19.595  38.024   5.376
20447SOL    HW263349   8.545  -6.021   5.477
20448SOL     OW63350   9.771   1.348   8.319
20448SOL    HW163351   9.700  -9.719  19.417
20448SOL    HW263352  20.862   1.409   8.372
20449SOL     OW63353  11.447   4.240   6.081
20449SOL    HW163354  11.538   4.211   6.085
20449SOL    HW263355   0.359   4.172   6.127
20450SOL     OW63356   2.215   4.586   1.166
20450SOL    HW163357   2.270 -39.523   1.105
20450SOL    HW263358   2.126  -6.433   1.140
20451SOL     OW63359  13.926   8.977   1.857
20451SOL    HW163360   2.863  19.943   1.800
20451SOL    HW263361 -41.189   8.950   1.897
20452SOL     OW63362   6.744   3.911  10.344
20452SOL    HW163363  17.779 -18.114  10.422
20452SOL    HW263364  28.861   3.828  21.415
20453SOL     OW63365   5.032   2.750   0.788
20453SOL    HW163366  -6.014   2.796   0.872
20453SOL    HW263367  -5.968  -8.374   0.810
20454SOL     OW63368   5.537   3.843   1.591
20454SOL    HW163369   5.473   3.890  34.764
20454SOL    HW263370   5.598  47.963  12.693
20455SOL     OW63371   8.224   1.248   2.359
20455SOL    HW163372  -2.807   1.287  13.486
20455SOL    HW263373  -2.894   1.289  13.362
20456SOL     OW63374   9.377   7.686   1.959
20456SOL    HW163375   9.342   7.636   1.885
20456SOL    HW263376  20.357   7.759   1.969
20457SOL     OW63377   5.634  10.522   7.668
20457SOL    HW163378   5.555  10.487   7.627
20457SOL    HW263379   5.602  10.588  -3.310
20458SOL     OW63380   9.164   5.627   7.953
20458SOL    HW163381   9.086   5.605   8.003
20458SOL    HW263382   9.163   5.723   7.949
20459SOL     OW63383   4.260   3.890   8.336
20459SOL    HW163384   4.299  14.915   8.422
20459SOL    HW263385  -6.874   3.887  30.431
20460SOL     OW63386   5.560  11.089   0.765
20460SOL    HW163387   5.481   0.103   0.764
20460SOL    HW263388  -5.450 -10.992   0.673
20461SOL     OW63389  10.405   6.805  -1.643
20461SOL    HW163390  10.376  17.936  20.443
20461SOL    HW263391  10.354  17.798  20.502
20462SOL     OW63392   6.960   7.127  -0.235
20462SOL    HW163393   6.913   7.160  10.881
20462SOL    HW263394   6.927   7.037  -0.246
20463SOL     OW63395   2.126   5.588   9.397
20463SOL    HW163396   2.148   5.587   9.304
20463SOL    HW263397  -8.910   5.681   9.421
20464SOL     OW63398  10.355   6.666  10.282
20464SOL    HW163399  10.397   6.581  10.294
20464SOL    HW263400  -0.756   6.667  10.347
20465SOL     OW63401   9.670   4.445   4.565
20465SOL    HW163402   9.687   4.499   4.488
20465SOL    HW263403   9.659  26.436 -17.548
20466SOL     OW63404   7.727  11.348   8.453
20466SOL    HW163405   7.658 -21.754   8.517
20466SOL    HW263406  18.724 -10.722   8.368
20467SOL     OW63407   1.398   0.977   8.626
20467SOL    HW163408  12.438   0.977  -2.510
20467SOL    HW263409   1.307   0.998   8.649
20468SOL     OW63410   5.191   9.596   2.288
20468SOL    HW163411   5.236   9.680  24.367
20468SOL    HW263412   5.147   9.592  13.413
20469SOL     OW63413   4.784   3.737   7.826
20469SOL    HW163414   4.691   3.714  18.862
20469SOL    HW263415   4.792   3.811   7.766
20470SOL     OW63416  10.009   0.124   1.218
20470SOL    HW163417  10.039  11.232   1.279
20470SOL    HW263418   9.944   0.075   1.269
20471SOL     OW63419   7.220  10.387  12.071
20471SOL    HW163420   7.213  10.339  12.153
20471SOL    HW263421   7.287  10.341 -10.058
20472SOL     OW63422   8.561   3.320   5.517
20472SOL    HW163423 -13.546   3.409  16.537
20472SOL    HW263424   8.573   3.319   5.612
20473SOL     OW63425   0.985   4.461   0.978
20473SOL    HW163426   1.020   4.448   0.890
20473SOL    HW263427   1.060   4.490 -10.010
20474SOL     OW63428   4.734   3.904   8.800
20474SOL    HW163429   4.685   3.972   8.754
20474SOL    HW263430   4.826   3.928   8.788
20475SOL     OW63431   0.680   5.545   6.684
20475SOL    HW163432   0.600  16.566   6.734
20475SOL    HW263433   0.751  27.598 -15.336
20476SOL     OW63434   9.882   9.959   0.689
20476SOL    HW163435   9.831   9.984   0.612
20476SOL    HW263436   9.948   9.899   0.656
20477SOL     OW63437   2.234   4.464   6.369
20477SOL    HW163438  -8.753   4.400  -4.624
20477SOL    HW263439   2.231   4.432   6.279
20478SOL     OW63440   7.848   8.666  10.092
20478SOL    HW163441 -14.195   8.618  10.166
20478SOL    HW263442  -3.116 -13.392  10.038
20479SOL     OW63443   4.884   4.219  10.890
20479SOL    HW163444  15.882   4.293 -11.145
20479SOL    HW263445  26.910  15.183  10.914
20480SOL     OW63446   5.296  11.176   0.775
20480SOL    HW163447  -5.829  11.150   0.741
20480SOL    HW263448   5.286   0.228 -10.239
20481SOL     OW63449   2.397   4.966   6.230
20481SOL    HW163450   2.308  -6.100 -15.826
20481SOL    HW263451   2.410 -28.070   6.277
20482SOL     OW63452   1.650   7.532   1.005
20482SOL    HW163453  -9.357   7.620   1.026
20482SOL    HW263454   1.598   7.544  23.005
20483SOL     OW63455   0.940   8.728   4.105
20483SOL    HW163456  11.913  19.787  -7.000
20483SOL    HW263457 -10.123  19.681   4.138
20484SOL     OW63458   6.271  12.596   1.494
20484SOL    HW163459   6.181   1.578  12.506
20484SOL    HW263460  17.366  -9.446   1.426
20485SOL     OW63461   3.837   3.192   2.962
20485SOL    HW163462   3.878   3.275   2.988
20485SOL    HW263463   3.900  36.244   2.987
20486SOL     OW63464   5.269   7.534  10.512
20486SOL    HW163465   5.329 -14.619  10.526
20486SOL    HW263466   5.183  -3.547 -11.576
20487SOL     OW63467  10.410   3.582   0.299
20487SOL    HW163468  10.445 -18.458  22.298
20487SOL    HW263469  21.375 -18.442   0.322
20488SOL     OW63470   3.914   7.698   0.779
20488SOL    HW163471 -18.123   7.784  11.821
20488SOL    HW263472   3.978   7.641   0.736
20489SOL     OW63473   9.240   3.400   3.957
20489SOL    HW163474   9.276   3.411   4.045
20489SOL    HW263475  20.357   3.395  48.059
20490SOL     OW63476  12.760   6.237   3.308
20490SOL    HW163477 -42.430   6.315  36.482
20490SOL    HW263478  12.851  -4.824  14.326
20491SOL     OW63479   7.673   6.286   4.701
20491SOL    HW163480   7.727   6.262   4.626
20491SOL    HW263481   7.705  -4.810   4.772
20492SOL     OW63482   7.283   3.565   3.454
20492SOL    HW163483   7.260   3.518   3.534
20492SOL    HW263484   7.257   3.506   3.383
20493SOL     OW63485   4.808   2.915   6.085
20493SOL    HW163486   4.792   2.825  39.230
20493SOL    HW263487   4.877  13.985  17.183
20494SOL     OW63488   6.485   6.533   6.434
20494SOL    HW163489  -4.555  -4.499  17.378
20494SOL    HW263490   6.431   6.606  17.504
20495SOL     OW63491   3.044   8.406   6.603
20495SOL    HW163492  -8.083   8.437   6.624
20495SOL    HW263493  36.220  -2.558   6.618
20496SOL     OW63494   8.162   6.486   5.318
20496SOL    HW163495   8.117  -4.586   5.396
20496SOL    HW263496   8.092  -4.528   5.259
20497SOL     OW63497   8.681   2.944   8.627
20497SOL    HW163498   8.599   2.935 -13.502
20497SOL    HW263499   8.685   3.037   8.649
20498SOL     OW63500   7.501  10.153   4.897
20498SOL    HW163501   7.424  32.282   4.925
20498SOL    HW263502   7.566  -0.821   4.875
20499SOL     OW63503   9.285   4.543  10.408
20499SOL    HW163504  20.260   4.471  10.405
20499SOL    HW263505   9.309   4.548  -0.539
20500SOL     OW63506   2.389   4.475   4.690
20500SOL    HW163507  13.344  15.484  -6.382
20500SOL    HW263508   2.401   4.560   4.648
20501SOL     OW63509   1.589   6.786   5.393
20501SOL    HW163510  -9.414   6.764   5.307
20501SOL    HW263511  -9.520   6.849  16.414
20502SOL     OW63512   9.946   6.247   3.462
20502SOL    HW163513   9.930   6.181   3.395
20502SOL    HW263514   9.897  28.403   3.432
20503SOL     OW63515   5.092   9.149   5.365
20503SOL    HW163516   5.070   9.088  -5.745
20503SOL    HW263517   5.090   9.096   5.445
20504SOL     OW63518   9.694   4.048   4.962
20504SOL    HW163519  31.866   4.033   4.983
20504SOL    HW263520   9.680  15.181   4.979
20505SOL     OW63521   6.912   8.315   9.572
20505SOL    HW163522   6.892   8.226   9.541
20505SOL    HW263523   6.829   8.362   9.565
20506SOL     OW63524   2.092   3.021   7.256
20506SOL    HW163525   2.030   3.034  29.264
20506SOL    HW263526  13.214  25.079   7.213
20507SOL     OW63527   6.884   2.513   7.060
20507SOL    HW163528  17.913   2.455   7.135
20507SOL    HW263529   6.814   2.578  29.150
20508SOL     OW63530   1.583   6.130   3.980
20508SOL    HW163531   1.618   6.044   3.956
20508SOL    HW263532   1.654   6.191   3.961
20509SOL     OW63533   4.988   2.186   8.554
20509SOL    HW163534   4.895   2.206   8.538
20509SOL    HW263535   5.028   2.271   8.573
20510SOL     OW63536   2.741   9.379   1.252
20510SOL    HW163537   2.706   9.380   1.162
20510SOL    HW263538 -30.421   9.453   1.295
20511SOL     OW63539   0.942   6.867   9.264
20511SOL    HW163540   0.893  -4.130   9.194
20511SOL    HW263541  12.066   6.844  20.263
20512SOL     OW63542   3.030   9.145  10.149
20512SOL    HW163543   3.064  -1.977  10.183
20512SOL    HW263544  36.165   9.141  10.055
20513SOL     OW63545  -0.198   7.299   3.543
20513SOL    HW163546  10.756  29.406  -7.464
20513SOL    HW263547  10.875   7.375   3.497
20514SOL     OW63548   1.299   1.109   4.978
20514SOL    HW163549   1.356   1.097  -6.138
20514SOL    HW263550  -9.812   1.047   4.964
20515SOL     OW63551   1.701   2.977  10.331
20515SOL    HW163552   1.612   2.984  10.297
20515SOL    HW263553  -9.306   3.067  10.332
20516SOL     OW63554  -1.019   7.072   1.695
20516SOL    HW163555  21.120   7.144   1.711
20516SOL    HW263556  -0.965   7.003   1.657
20517SOL     OW63557   4.133  11.292  10.726
20517SOL    HW163558  -6.922   0.198  -0.391
20517SOL    HW263559   4.045  11.317  10.756
20518SOL     OW63560   9.490   5.311   9.115
20518SOL    HW163561   9.536  -5.812   9.106
20518SOL    HW263562   9.436   5.317   9.036
20519SOL     OW63563   7.095  12.785   9.138
20519SOL    HW163564  -3.924  12.785 -12.848
20519SOL    HW263565  18.177 -31.453   9.104
20520SOL     OW63566   1.678   9.930   6.479
20520SOL    HW163567   1.635   9.920   6.564
20520SOL    HW263568   1.771   9.934   6.499
20521SOL     OW63569   8.774  11.037   7.952
20521SOL    HW163570   8.748   0.076   7.903
20521SOL    HW263571   8.722  11.041   8.032
20522SOL     OW63572  -1.126   9.026   5.145
20522SOL    HW163573  -1.191  -1.958   5.188
20522SOL    HW263574  20.908 -13.087  16.107
20523SOL     OW63575   5.952   7.724   2.731
20523SOL    HW163576   5.864   7.735  13.734
20523SOL    HW263577   5.938   7.683   2.816
20524SOL     OW63578   1.458  -0.365   7.367
20524SOL    HW163579   1.542  10.639   7.398
20524SOL    HW263580   1.479  -0.323   7.284
20525SOL     OW63581   3.010   4.817   1.856
20525SOL    HW163582   2.996   4.850  24.024
20525SOL    HW263583   2.982   4.887   1.799
20526SOL     OW63584   8.432   8.671   4.796
20526SOL    HW163585  -2.627   8.764   4.781
20526SOL    HW263586   8.347   8.628   4.787
20527SOL     OW63587   9.013   0.640   6.771
20527SOL    HW163588  19.988   0.638   6.842
20527SOL    HW263589   8.979   0.704   6.709
20528SOL     OW63590   3.485  11.182   4.583
20528SOL    HW163591  -7.566   0.138  26.567
20528SOL    HW263592  -7.543  11.090 -17.470
20529SOL     OW63593   0.081   1.998   2.527
20529SOL    HW163594   0.153   2.018   2.467
20529SOL    HW263595   0.108  23.997  24.650
20530SOL     OW63596   3.418   8.259   8.114
20530SOL    HW163597   3.488   8.213  30.238
20530SOL    HW263598  25.418   8.210   8.135
20531SOL     OW63599   2.851   9.322   8.347
20531SOL    HW163600   2.932   9.271   8.358
20531SOL    HW263601   2.781   9.258   8.362
20532SOL     OW63602   9.216   3.231   8.001
20532SOL    HW163603   9.122   3.215 -25.129
20532SOL    HW263604   9.258   3.167  -3.095
20533SOL     OW63605   0.533   2.808   8.156
20533SOL    HW163606   0.592   2.861   8.103
20533SOL    HW263607   0.554  13.871 -35.911
20534SOL     OW63608   2.787   4.631   6.845
20534SOL    HW163609   2.696  -6.430   6.822
20534SOL    HW263610   2.786   4.643  29.019
20535SOL     OW63611   4.448   5.375   0.769
20535SOL    HW163612   4.493  16.499 -10.273
20535SOL    HW263613   4.431   5.355   0.677
20536SOL     OW63614   1.155   9.077   4.908
20536SOL    HW163615  12.131   9.017  37.989
20536SOL    HW263616   1.214   9.021   4.958
20537SOL     OW63617   5.609   7.821   1.663
20537SOL    HW163618   5.618   7.915  -9.397
20537SOL    HW263619   5.542   7.819  -9.308
20538SOL     OW63620   6.614   1.907   9.512
20538SOL    HW163621  -4.352   1.955  -1.491
20538SOL    HW263622   6.606   1.940  -1.618
20539SOL     OW63623   5.215   4.329   7.010
20539SOL    HW163624   5.249   4.318   6.922
20539SOL    HW263625  -5.920  15.363   7.000
20540SOL     OW63626   5.654   6.889  10.213
20540SOL    HW163627   5.623   6.803  10.240
20540SOL    HW263628   5.747  -4.150  10.237
20541SOL     OW63629   5.110  10.375   6.677
20541SOL    HW163630  -5.963  10.436   6.612
20541SOL    HW263631   5.148  10.304   6.625
20542SOL     OW63632   4.462   4.047   8.984
20542SOL    HW163633  15.482   4.023   9.075
20542SOL    HW263634   4.487   4.139   8.989
20543SOL     OW63635   3.316   1.795   1.075
20543SOL    HW163636   3.261 -20.220   1.031
20543SOL    HW263637   3.348   1.840   1.153
20544SOL     OW63638   2.798   9.448   3.157
20544SOL    HW163639   2.716   9.482   3.120
20544SOL    HW263640  -8.257  20.394   3.168
20545SOL     OW63641   9.062   3.239  11.549
20545SOL    HW163642  20.051   3.231  11.629
20545SOL    HW263643   8.999  14.265   0.439
20546SOL     OW63644   9.890   8.883   0.794
20546SOL    HW163645   9.903   8.968   0.835
20546SOL    HW263646  -1.094   8.823   0.844
20547SOL     OW63647   3.819   7.236   5.047
20547SOL    HW163648 -18.336   7.238   5.105
20547SOL    HW263649   3.868 -14.765   5.069
20548SOL     OW63650  -0.572   5.195  10.039
20548SOL    HW163651  -0.544   5.286  10.035
20548SOL    HW263652  10.517   5.157  21.151
20549SOL     OW63653   2.550   1.348   0.108
20549SOL    HW163654  -8.507   1.360   0.202
20549SOL    HW263655   2.639   1.383   0.096
20550SOL     OW63656   0.160   6.659   9.976
20550SOL    HW163657  11.152   6.581   9.947
20550SOL    HW263658  11.132  -4.324  10.013
20551SOL     OW63659   9.553   4.495   8.961
20551SOL    HW163660  -1.527   4.489   8.875
20551SOL    HW263661  31.559   4.515   9.020
20552SOL     OW63662   5.438   2.797   5.352
20552SOL    HW163663   5.447   2.889  16.367
20552SOL    HW263664   5.516  24.858  38.524
20553SOL     OW63665   7.310   1.306   5.830
20553SOL    HW163666   7.312   1.311   5.926
20553SOL    HW263667   7.217  34.432   5.808
20554SOL     OW63668   5.214   4.827   2.580
20554SOL    HW163669  16.327  -6.153   2.565
20554SOL    HW263670 -16.940  15.924   2.590
20555SOL     OW63671   2.633   5.090   4.343
20555SOL    HW163672   2.622   5.137   4.425
20555SOL    HW263673   2.719 -28.001   4.311
20556SOL     OW63674   0.288   8.771   8.037
20556SOL    HW163675   0.354   8.831   8.071
20556SOL    HW263676   0.292   8.782   7.942
20557SOL     OW63677   6.658  10.843   6.247
20557SOL    HW163678   6.633  10.802   6.165
20557SOL    HW263679  -4.302  10.893   6.226
20558SOL     OW63680   7.290   7.579   3.095
20558SOL    HW163681   7.327 -36.504   3.050
20558SOL    HW263682 -14.738   7.572   3.176
20559SOL     OW63683   5.212   0.577   3.254
20559SOL    HW163684   5.122  11.643   3.236
20559SOL    HW263685   5.245   0.642   3.315
20560SOL     OW63686   2.966  10.525   6.354
20560SOL    HW163687   2.968  10.620   6.353
20560SOL    HW263688   2.894  10.501   6.296
20561SOL     OW63689   6.848   3.308   2.473
20561SOL    HW163690  28.927  14.275   2.410
20561SOL    HW263691   6.794 -18.703   2.431
20562SOL     OW63692  11.037   3.725  13.939
20562SOL    HW163693  10.964   3.687 -30.270
20562SOL    HW263694  11.050   3.663  -8.068
20563SOL     OW63695   8.652  11.615   2.868
20563SOL    HW163696 -13.460   0.638   2.933
20563SOL    HW263697   8.702   0.629   2.807
20564SOL     OW63698   7.622  10.124   9.359
20564SOL    HW163699   7.632  10.106 -12.814
20564SOL    HW263700   7.702  10.090   9.399
20565SOL     OW63701   3.778   2.628   6.128
20565SOL    HW163702   3.838   2.609   6.055
20565SOL    HW263703   3.832   2.675   6.192
20566SOL     OW63704  10.829   7.455   9.183
20566SOL    HW163705  10.773   7.405   9.124
20566SOL    HW263706  10.818   7.413   9.269
20567SOL     OW63707   3.641  10.110   8.373
20567SOL    HW163708  -7.433  10.173   8.310
20567SOL    HW263709   3.605  21.066  -2.694
20568SOL     OW63710   6.786   7.297   6.801
20568SOL    HW163711   6.708   7.287  17.895
20568SOL    HW263712   6.855  -3.716   6.862
20569SOL     OW63713   5.705   1.802   4.457
20569SOL    HW163714   5.732   1.783   4.367
20569SOL    HW263715   5.611   1.787   4.458
20570SOL     OW63716   8.625   1.979   9.555
20570SOL    HW163717   8.550   2.039   9.547
20570SOL    HW263718   8.619   1.947   9.645
20571SOL     OW63719   8.142   3.050  11.212
20571SOL    HW163720   8.145   3.127  11.269
20571SOL    HW263721   8.134  14.125 -10.956
20572SOL     OW63722   7.154   2.764   2.786
20572SOL    HW163723   7.068  24.822 -19.330
20572SOL    HW263724  29.231   2.859   2.799
20573SOL     OW63725   3.296   8.235   4.590
20573SOL    HW163726  14.402   8.239   4.659
20573SOL    HW263727  -7.816   8.287   4.624
20574SOL     OW63728  11.491   3.541   5.571
20574SOL    HW163729  11.476  36.591   5.507
20574SOL    HW263730   0.437 -18.457  -5.516
20575SOL     OW63731   3.710   2.950   8.834
20575SOL    HW163732   3.803  -8.079  -2.224
20575SOL    HW263733   3.706 -19.203   8.894
20576SOL     OW63734   1.545   2.856   8.559
20576SOL    HW163735  -9.402  -8.175  -2.459
20576SOL    HW263736   1.544  -8.228 -13.605
20577SOL     OW63737   1.003   0.377   4.272
20577SOL    HW163738 -10.017   0.288   4.242
20577SOL    HW263739   1.058  22.513   4.217
20578SOL     OW63740   8.331  -1.771   8.608
20578SOL    HW163741   8.387  42.310   8.608
20578SOL    HW263742   8.312  -1.755   8.515
20579SOL     OW63743   5.895   1.310   9.444
20579SOL    HW163744  -5.117   1.275   9.529
20579SOL    HW263745   5.815   1.358   9.463
20580SOL     OW63746   6.132   2.224   2.857
20580SOL    HW163747   6.078  -8.742   2.885
20580SOL    HW263748   6.179   2.256   2.780
20581SOL     OW63749  11.517   7.633   7.973
20581SOL    HW163750 -10.482   7.611  30.005
20581SOL    HW263751 -10.608  18.734   7.915
20582SOL     OW63752   1.900   0.242   0.428
20582SOL    HW163753  23.955   0.193  44.507
20582SOL    HW263754  34.999   0.181  22.579
20583SOL     OW63755  10.765   9.547   7.161
20583SOL    HW163756  10.671   9.526   7.165
20583SOL    HW263757  10.785  31.624   7.067
20584SOL     OW63758   3.942   0.069   2.684
20584SOL    HW163759   3.942   0.075   2.779
20584SOL    HW263760   3.852   0.089   2.658
20585SOL     OW63761  -0.173   2.980   1.299
20585SOL    HW163762  10.838   3.064  12.375
20585SOL    HW263763  -0.078  14.025  23.377
20586SOL     OW63764  -1.368   5.721   4.913
20586SOL    HW163765  20.769   5.736   4.989
20586SOL    HW263766   9.699   5.637 -17.200
20587SOL     OW63767   4.336   4.506   1.986
20587SOL    HW163768   4.286 -28.576  -8.981
20587SOL    HW263769   4.388  26.659   1.953
20588SOL     OW63770   0.071   2.567   4.064
20588SOL    HW163771   0.152   2.564   4.013
20588SOL    HW263772   0.037   2.655   4.050
20589SOL     OW63773   6.317   8.745   8.328
20589SOL    HW163774   6.350   8.822   8.375
20589SOL    HW263775   6.275   8.692  19.435
20590SOL     OW63776   7.044  11.521   4.953
20590SOL    HW163777   7.138  11.507   4.949
20590SOL    HW263778   7.022 -21.557   4.869
20591SOL     OW63779   5.216  10.835   1.413
20591SOL    HW163780   5.174  10.906  -9.674
20591SOL    HW263781 -16.858  10.763   1.350
20592SOL     OW63782  10.422   2.659   0.886
20592SOL    HW163783  -0.617  13.609 -10.121
20592SOL    HW263784  10.329   2.679   0.871
20593SOL     OW63785   3.036   9.197   2.152
20593SOL    HW163786   3.047   9.283  13.230
20593SOL    HW263787   3.117   9.183   2.102
20594SOL     OW63788   5.081   7.223   4.764
20594SOL    HW163789   5.140   7.181   4.701
20594SOL    HW263790   5.039   7.293   4.715
20595SOL     OW63791   5.190   5.700   7.079
20595SOL    HW163792  -5.928   5.755   7.074
20595SOL    HW263793   5.238  16.773   7.154
20596SOL     OW63794   4.038   2.365   8.821
20596SOL    HW163795   3.979  -8.740  -2.182
20596SOL    HW263796  26.065   2.445   8.816
20597SOL     OW63797   0.231   3.334   8.344
20597SOL    HW163798   0.232   3.250   8.300
20597SOL    HW263799   0.305  25.461   8.307
20598SOL     OW63800   5.631   2.063   9.692
20598SOL    HW163801  27.649   2.002   9.650
20598SOL    HW263802   5.588  24.167   9.773
20599SOL     OW63803   1.900   6.169   7.541
20599SOL    HW163804   1.818   6.182  29.572
20599SOL    HW263805  12.919   6.194   7.631
20600SOL     OW63806   0.225   4.186   5.412
20600SOL    HW163807   0.172  -6.827 -16.592
20600SOL    HW263808   0.309   4.229   5.426
20601SOL     OW63809   8.687   8.719   8.137
20601SOL    HW163810   8.752   8.649   8.147
20601SOL    HW263811   8.605   8.673  30.199
20602SOL     OW63812   4.825   6.606  11.357
20602SOL    HW163813  26.936  28.772 -10.746
20602SOL    HW263814  15.820  17.614  11.278
20603SOL     OW63815   4.394   9.776   0.863
20603SOL    HW163816   4.488  31.840   0.861
20603SOL    HW263817   4.382   9.857 -10.226
20604SOL     OW63818   2.139   9.629   6.470
20604SOL    HW163819  -8.906   9.651   6.377
20604SOL    HW263820 -19.889  -1.491  17.511
20605SOL     OW63821   8.025   6.575   3.340
20605SOL    HW163822   8.072   6.507   3.291
20605SOL    HW263823   7.946   6.591  25.368
20606SOL     OW63824   4.245   4.902   6.383
20606SOL    HW163825 -28.865  -6.176   6.470
20606SOL    HW263826  -6.820   4.993   6.399
20607SOL     OW63827   6.472   3.034   7.389
20607SOL    HW163828  -4.622  -7.957   7.327
20607SOL    HW263829   6.410   3.003   7.456
20608SOL     OW63830   9.693   7.524   2.624
20608SOL    HW163831   9.712  -3.451   2.555
20608SOL    HW263832   9.604  18.534   2.606
20609SOL     OW63833   1.552   3.736   7.523
20609SOL    HW163834   1.555  25.734   7.573
20609SOL    HW263835   1.644   3.759   7.508
20610SOL     OW63836   7.497   4.129   3.666
20610SOL    HW163837   7.435   4.058  14.723
20610SOL    HW263838   7.571   4.110   3.724
20611SOL     OW63839   8.221   2.702  10.816
20611SOL    HW163840  19.180  13.700  10.786
20611SOL    HW263841   8.267  13.673  10.864
20612SOL     OW63842  10.977   0.455   8.599
20612SOL    HW163843  10.912   0.404   8.550
20612SOL    HW263844  11.016   0.393   8.660
20613SOL     OW63845  10.094   3.435   7.876
20613SOL    HW163846  10.061   3.355   7.916
20613SOL    HW263847  21.221   3.413   7.845
20614SOL     OW63848  12.155   0.892   2.102
20614SOL    HW163849  -9.936   0.883  13.236
20614SOL    HW263850  12.250   0.897  13.130
20615SOL     OW63851   0.999   3.658  12.703
20615SOL    HW163852   1.090   3.687  12.696
20615SOL    HW263853  11.988   3.728 -20.457
20616SOL     OW63854   0.193   8.412   8.469
20616SOL    HW163855   0.140   8.440   8.543
20616SOL    HW263856   0.155   8.329   8.442
20617SOL     OW63857   3.549   6.769   0.247
20617SOL    HW163858 -18.593   6.772   0.174
20617SOL    HW263859  -7.483   6.860   0.276
20618SOL     OW63860   1.458  12.152   0.090
20618SOL    HW163861   1.463   1.176   0.161
20618SOL    HW263862   1.530  -9.987  11.146
20619SOL     OW63863  -0.808   3.169   5.518
20619SOL    HW163864  21.314   3.091  16.522
20619SOL    HW263865  -0.876   3.135   5.575
20620SOL     OW63866   2.257   8.241  11.536
20620SOL    HW163867   2.289   8.328 -10.520
20620SOL    HW263868  -8.801   8.199  11.620
20621SOL     OW63869   5.181  10.691   0.883
20621SOL    HW163870   5.140  10.607   0.861
20621SOL    HW263871   5.237  -0.329   0.808
20622SOL     OW63872   8.000   0.270   1.932
20622SOL    HW163873   8.046  22.266  12.977
20622SOL    HW263874  18.967   0.262  13.033
20623SOL     OW63875   8.035  10.236   8.712
20623SOL    HW163876  -2.933  21.339   8.702
20623SOL    HW263877   8.045  10.201   8.800
20624SOL     OW63878   3.230   2.792   3.552
20624SOL    HW163879  14.312   2.830   3.628
20624SOL    HW263880  14.317  35.947   3.477
20625SOL     OW63881   7.883   6.567   3.741
20625SOL    HW163882   7.822  28.655  14.853
20625SOL    HW263883   7.833   6.592  25.743
20626SOL     OW63884   6.122   0.637   4.535
20626SOL    HW163885   6.027   0.626   4.547
20626SOL    HW263886  17.178   0.728   4.561
20627SOL     OW63887   1.077   9.715   0.657
20627SOL    HW163888   1.021   9.706   0.580
20627SOL    HW263889  12.105   9.632   0.705
20628SOL     OW63890   1.726   1.983   9.400
20628SOL    HW163891  -9.220  13.042   9.413
20628SOL    HW263892   1.687  35.187   9.382
20629SOL     OW63893   1.333   7.743   3.838
20629SOL    HW163894  -9.723   7.711  -7.113
20629SOL    HW263895   1.246   7.757  25.880
20630SOL     OW63896   3.049   6.802   8.183
20630SOL    HW163897   3.014  -4.152 -13.920
20630SOL    HW263898   3.026  -4.248   8.276
20631SOL     OW63899   6.067   6.419   4.708
20631SOL    HW163900   6.138   6.392  -6.390
20631SOL    HW263901  -4.938   6.495 -17.324
20632SOL     OW63902   3.034   2.394   3.161
20632SOL    HW163903  -7.925   2.404  -7.931
20632SOL    HW263904  -8.039 -19.771   3.137
20633SOL     OW63905   8.735   5.451  10.187
20633SOL    HW163906   8.710   5.373 -11.842
20633SOL    HW263907   8.794   5.419  10.119
20634SOL     OW63908   2.668   3.194   1.941
20634SOL    HW163909   2.722  -7.920   1.914
20634SOL    HW263910   2.583  -7.884  -9.076
20635SOL     OW63911  10.177   8.977   0.196
20635SOL    HW163912  10.148   8.887   0.185
20635SOL    HW263913  21.310   8.976   0.175
20636SOL     OW63914   3.494   5.863   1.305
20636SOL    HW163915  -7.564   5.785   1.357
20636SOL    HW263916   3.586   5.882   1.323
20637SOL     OW63917   6.413   1.053   3.137
20637SOL    HW163918  17.430   1.127  -7.846
20637SOL    HW263919   6.486   1.010  -7.858
20638SOL     OW63920   3.337   3.269   9.931
20638SOL    HW163921   3.406   3.321   9.891
20638SOL    HW263922   3.346   3.285  10.025
20639SOL     OW63923   0.464  -0.766   6.145
20639SOL    HW163924  11.527  21.291  17.095
20639SOL    HW263925  11.522  -0.845  -4.844
20640SOL     OW63926   6.763   8.918   9.855
20640SOL    HW163927  17.743  -2.058   9.814
20640SOL    HW263928  17.760  30.974   9.937
20641SOL     OW63929  10.229   3.963   4.974
20641SOL    HW163930 -11.793   4.024   5.022
20641SOL    HW263931  -0.770   3.955   4.888
20642SOL     OW63932   3.438   3.649   4.296
20642SOL    HW163933  14.516   3.632   4.383
20642SOL    HW263934   3.426  14.783  15.333
20643SOL     OW63935   4.955   3.870  10.895
20643SOL    HW163936   4.970   3.783  10.933
20643SOL    HW263937   5.012 -18.206  10.818
20644SOL     OW63938   4.179   4.512  10.626
20644SOL    HW163939   4.111  26.547  21.614
20644SOL    HW263940   4.142  -6.521  -0.326
20645SOL     OW63941   1.487   9.765   2.921
20645SOL    HW163942 -20.667   9.797   2.869
20645SOL    HW263943   1.475   9.804   3.007
20646SOL     OW63944   8.622   9.138   4.160
20646SOL    HW163945   8.608   9.087   4.240
20646SOL    HW263946  -2.323   9.133   4.145
20647SOL     OW63947   5.667   0.809   9.354
20647SOL    HW163948   5.641  11.934 -12.760
20647SOL    HW263949   5.596   0.750 -23.790
20648SOL     OW63950   1.540   2.100   6.765
20648SOL    HW163951   1.630   2.105   6.733
20648SOL    HW263952   1.519  13.046  -4.276
20649SOL     OW63953   5.940   4.144   3.594
20649SOL    HW163954  17.027  -6.814   3.581
20649SOL    HW263955  -5.124 -17.963   3.506
20650SOL     OW63956   9.221   4.768  10.116
20650SOL    HW163957   9.159  -6.326  10.165
20650SOL    HW263958 -12.786   4.782  10.177
20651SOL     OW63959   8.556   3.864   3.758
20651SOL    HW163960  19.514   3.818   3.738
20651SOL    HW263961   8.590   3.821   3.836
20652SOL     OW63962   8.092   0.937   7.737
20652SOL    HW163963   8.008   0.898  -3.282
20652SOL    HW263964   8.151  56.103   7.806
20653SOL     OW63965   7.728  -0.558   0.588
20653SOL    HW163966 -25.300  32.553   0.616
20653SOL    HW263967   7.731  -0.503   0.509
20654SOL     OW63968   6.989   3.022  11.280
20654SOL    HW163969  -4.078   3.114  11.272
20654SOL    HW263970   6.915   2.973   0.207
20655SOL     OW63971   4.507   8.020  -0.152
20655SOL    HW163972   4.413   8.007  -0.138
20655SOL    HW263973  15.588   7.943  21.966
20656SOL     OW63974   1.879   9.993   7.958
20656SOL    HW163975 -20.151   9.913  -3.101
20656SOL    HW263976   1.806   9.992   7.896
20657SOL     OW63977   3.312   8.123   4.982
20657SOL    HW163978  -7.750  -2.980   5.049
20657SOL    HW263979  14.345   8.074  15.939
20658SOL     OW63980  10.087   2.503   7.328
20658SOL    HW163981  10.059  -8.480   7.256
20658SOL    HW263982 -22.950   2.464  -3.743
20659SOL     OW63983   5.245   8.263   0.979
20659SOL    HW163984   5.232  -2.814  22.971
20659SOL    HW263985   5.317   8.325   0.967
20660SOL     OW63986   6.374   2.503   3.817
20660SOL    HW163987  39.559   2.525   3.752
20660SOL    HW263988   6.409  -8.501   3.899
20661SOL     OW63989   1.119  10.998  11.946
20661SOL    HW163990  -9.839  11.046   0.891
20661SOL    HW263991   1.125  10.922   0.849
20662SOL     OW63992  10.862   6.997   1.846
20662SOL    HW163993  10.789  17.989   1.887
20662SOL    HW263994  10.923  17.969   1.819
20663SOL     OW63995   0.692   2.658   3.676
20663SOL    HW163996   0.655  24.674   3.615
20663SOL    HW263997 -10.425   2.698   3.717
20664SOL     OW63998   7.889   3.991   3.027
20664SOL    HW163999  -3.116   3.918  25.158
20664SOL    HW264000  18.858  -7.088  14.014
20665SOL     OW64001   1.219   3.916   5.865
20665SOL    HW164002   1.247   3.827   5.843
20665SOL    HW264003   1.294   3.953   5.912
20666SOL     OW64004   3.629   9.985   9.927
20666SOL    HW164005   3.645   9.906   9.980
20666SOL    HW264006   3.534   9.985   9.914
20667SOL     OW64007   8.945   9.847   7.097
20667SOL    HW164008   8.968  -1.121   7.038
20667SOL    HW264009   8.850  20.884  18.137
20668SOL     OW64010   0.569   1.797  10.274
20668SOL    HW164011   0.571   1.743  -0.844
20668SOL    HW264012   0.496   1.857  21.299
20669SOL     OW64013   8.210   3.138   4.467
20669SOL    HW164014   8.241  -7.828   4.520
20669SOL    HW264015   8.239   3.159   4.378
20670SOL     OW64016   8.734   7.319   0.612
20670SOL    HW164017   8.779   7.369   0.681
20670SOL    HW264018   8.651   7.294   0.651
20671SOL     OW64019  -1.180  10.648   1.973
20671SOL    HW164020  32.008  10.713   1.966
20671SOL    HW264021  54.046 -11.491   2.042
20672SOL     OW64022   9.085   7.077   6.107
20672SOL    HW164023   9.093   7.044   6.197
20672SOL    HW264024   9.095   6.999  -4.988
20673SOL     OW64025   1.322   8.342  11.069
20673SOL    HW164026   1.295  30.421  10.977
20673SOL    HW264027   1.414  19.355   0.026
20674SOL     OW64028   6.977   2.473  -1.803
20674SOL    HW164029   6.939  24.635  -1.774
20674SOL    HW264030   6.903   2.412  31.315
20675SOL     OW64031   8.979   8.699   6.919
20675SOL    HW164032  -2.018   8.637   6.977
20675SOL    HW264033   8.894  19.755   6.960
20676SOL     OW64034  10.902   5.546  10.983
20676SOL    HW164035  10.928   5.580  -0.142
20676SOL    HW264036  10.862   5.621  11.027
20677SOL     OW64037  10.872  10.872   0.746
20677SOL    HW164038  -0.085 -11.252 -32.389
20677SOL    HW264039  10.889 -11.116  22.800
20678SOL     OW64040   9.715   3.161   8.304
20678SOL    HW164041  -1.341   3.224 -24.884
20678SOL    HW264042   9.725   3.077  19.299
20679SOL     OW64043   1.334   0.251   6.608
20679SOL    HW164044  23.478   0.311 -15.508
20679SOL    HW264045  12.412   0.164 -15.483
20680SOL     OW64046   4.845   0.568   1.698
20680SOL    HW164047   4.771   0.513  12.715
20680SOL    HW264048   4.893  11.559  12.805
20681SOL     OW64049   5.610   8.540   4.208
20681SOL    HW164050   5.517 -13.551 -17.888
20681SOL    HW264051   5.626   8.633  -6.851
20682SOL     OW64052   7.826   8.683  -0.644
20682SOL    HW164053  18.788   8.629  10.410
20682SOL    HW264054   7.809   8.763  10.446
20683SOL     OW64055   6.264   6.513   7.327
20683SOL    HW164056   6.265   6.443  18.432
20683SOL    HW264057   6.336   6.571   7.354
20684SOL     OW64058   8.799   3.119   5.866
20684SOL    HW164059  -2.214   3.204   5.902
20684SOL    HW264060   8.876  -7.976   5.876
20685SOL     OW64061   6.129   9.440   2.316
20685SOL    HW164062   6.118   9.427   2.410
20685SOL    HW264063   6.053   9.492  -8.750
20686SOL     OW64064   6.160   4.100   0.815
20686SOL    HW164065  17.148   4.153   0.875
20686SOL    HW264066  28.178   4.079   0.744
20687SOL     OW64067  -0.728   9.694   2.450
20687SOL    HW164068  -0.671   9.768   2.429
20687SOL    HW264069  32.409   9.674   2.541
20688SOL     OW64070   9.194   8.607   5.694
20688SOL    HW164071  -1.916   8.558   5.651
20688SOL    HW264072  -1.877  30.776   5.696
20689SOL     OW64073   0.581   1.765   6.937
20689SOL    HW164074   0.508   1.798  -4.155
20689SOL    HW264075   0.657   1.815   6.907
20690SOL     OW64076   7.631   4.688   7.361
20690SOL    HW164077   7.670   4.725   7.440
20690SOL    HW264078 -14.417 -28.375   7.290
20691SOL     OW64079   9.747  -1.637  10.622
20691SOL    HW164080  -1.366  -1.641  10.683
20691SOL    HW264081   9.798  31.558  10.650
20692SOL     OW64082   2.168   2.517   7.182
20692SOL    HW164083   2.108   2.511   7.255
20692SOL    HW264084  13.287   2.557   7.219
20693SOL     OW64085   0.098   4.455   7.417
20693SOL    HW164086  11.213   4.396   7.419
20693SOL    HW264087   0.024   4.399   7.394
20694SOL     OW64088   5.249   2.551   3.991
20694SOL    HW164089   5.222   2.637   4.022
20694SOL    HW264090   5.227   2.552   3.898
20695SOL     OW64091   8.412   7.251   8.562
20695SOL    HW164092  30.461   7.180  19.546
20695SOL    HW264093   8.365   7.328  -2.509
20696SOL     OW64094  10.959   3.146   5.092
20696SOL    HW164095  10.955  -7.932   5.180
20696SOL    HW264096  10.973   3.240   5.108
20697SOL     OW64097  -0.579   3.886   7.529
20697SOL    HW164098  -0.652   3.826  18.550
20697SOL    HW264099  10.431 -18.145   7.606
20698SOL     OW64100   6.381   2.966   2.217
20698SOL    HW164101 -37.731  -8.068   2.133
20698SOL    HW264102 -15.642   3.012   2.279
20699SOL     OW64103   2.632   2.547   2.485
20699SOL    HW164104   2.684   2.469  13.546
20699SOL    HW264105   2.641   2.603   2.561
20700SOL     OW64106   8.518   8.156   8.776
20700SOL    HW164107   8.550   8.243   8.799
20700SOL    HW264108   8.595 -25.009   8.742
20701SOL     OW64109   5.563  10.347  -0.527
20701SOL    HW164110   5.636  21.448  21.554
20701SOL    HW264111   5.604  10.262  10.496
20702SOL     OW64112   7.009   2.274  10.893
20702SOL    HW164113 -15.040   2.307  10.809
20702SOL    HW264114   7.089   2.258  10.943
20703SOL     OW64115   2.581   8.820   5.658
20703SOL    HW164116   2.518   8.845   5.726
20703SOL    HW264117   2.579   8.892  16.636
20704SOL     OW64118  11.519  10.500   7.356
20704SOL    HW164119 -32.575  10.429   7.361
20704SOL    HW264120 -10.642  10.456   7.334
20705SOL     OW64121   4.440  10.026   2.860
20705SOL    HW164122   4.395  10.072   2.789
20705SOL    HW264123  26.601  21.112  24.950
20706SOL     OW64124   1.037   4.098   9.574
20706SOL    HW164125   0.992   4.182   9.589
20706SOL    HW264126   1.019   4.047   9.654
20707SOL     OW64127   9.346   4.043   3.350
20707SOL    HW164128  -1.736  -7.077   3.381
20707SOL    HW264129   9.300  15.152  25.476
20708SOL     OW64130   3.484   4.187   6.117
20708SOL    HW164131   3.473   4.114   6.177
20708SOL    HW264132   3.465  15.304  -4.869
20709SOL     OW64133   4.241   0.362   6.814
20709SOL    HW164134   4.322   0.412   6.826
20709SOL    HW264135  -6.858   0.423  -4.270
20710SOL     OW64136   2.790  10.314   9.638
20710SOL    HW164137   2.754 -22.723   9.673
20710SOL    HW264138 -19.197 -22.784  20.660
20711SOL     OW64139  10.335   4.361   2.894
20711SOL    HW164140  21.299  15.432   2.944
20711SOL    HW264141  10.301   4.287  -8.197
20712SOL     OW64142   9.573   3.706   0.465
20712SOL    HW164143   9.652  14.758   0.412
20712SOL    HW264144   9.535   3.625   0.431
20713SOL     OW64145   2.683   8.264   6.505
20713SOL    HW164146   2.684   8.178  -4.493
20713SOL    HW264147   2.705  41.444   6.575
20714SOL     OW64148   8.633   5.295  14.250
20714SOL    HW164149   8.659   5.310  -7.920
20714SOL    HW264150   8.539 -16.801 -40.952
20715SOL     OW64151   1.787   4.611   4.433
20715SOL    HW164152   1.809   4.624  -6.514
20715SOL    HW264153 -20.321  -6.520   4.428
20716SOL     OW64154   6.932  11.799   1.380
20716SOL    HW164155 -15.080  11.787  12.487
20716SOL    HW264156 -26.264 -10.252   1.428
20717SOL     OW64157   6.925   1.397   7.757
20717SOL    HW164158   6.862   1.328 -14.343
20717SOL    HW264159   6.934 -20.686 -14.227
20718SOL     OW64160   1.596   8.052   5.501
20718SOL    HW164161  12.591   8.127   5.461
20718SOL    HW264162   1.533  -3.023   5.563
20719SOL     OW64163  10.411   9.224   1.050
20719SOL    HW164164  10.387   9.290  -9.925
20719SOL    HW264165  10.386   9.262   0.966
20720SOL     OW64166   2.740   5.438   1.212
20720SOL    HW164167   2.783   5.379  12.314
20720SOL    HW264168  -8.341   5.505   1.266
20721SOL     OW64169   7.990   9.093   3.222
20721SOL    HW164170   7.963   9.001   3.231
20721SOL    HW264171   8.031   9.098   3.136
20722SOL     OW64172   8.783   5.699  10.726
20722SOL    HW164173   8.798   5.622  10.671
20722SOL    HW264174   8.716   5.748  -0.360
20723SOL     OW64175  10.387   3.293   3.246
20723SOL    HW164176  10.472   3.336   3.235
20723SOL    HW264177  21.434 -18.832   3.330
20724SOL     OW64178   2.181  11.517   1.910
20724SOL    HW164179   2.159   0.443   1.996
20724SOL    HW264180   2.277  11.520   1.909
20725SOL     OW64181   2.255   4.748  10.474
20725SOL    HW164182   2.161   4.762  10.476
20725SOL    HW264183   2.268   4.659  10.506
20726SOL     OW64184   6.243   9.899   4.929
20726SOL    HW164185   6.338   9.914   4.925
20726SOL    HW264186   6.235   9.819  -6.059
20727SOL     OW64187   2.053   2.624   2.577
20727SOL    HW164188   2.134  -8.365   2.580
20727SOL    HW264189   1.990   2.676  13.667
20728SOL     OW64190   7.781   7.202   7.285
20728SOL    HW164191   7.685   7.200  18.319
20728SOL    HW264192   7.810  -3.906   7.224
20729SOL     OW64193   3.354  10.897   1.224
20729SOL    HW164194   3.433  10.854   1.191
20729SOL    HW264195   3.367  10.989   1.203
20730SOL     OW64196   1.200   4.971   4.840
20730SOL    HW164197  23.291   4.940   4.750
20730SOL    HW264198  67.422   4.891   4.891
20731SOL     OW64199   4.278   4.582   8.627
20731SOL    HW164200 -17.896   4.580   8.618
20731SOL    HW264201 -39.855  -6.370   8.601
20732SOL     OW64202   5.739  10.197   8.217
20732SOL    HW164203   5.805  10.176   8.152
20732SOL    HW264204   5.690  21.310  -2.860
20733SOL     OW64205   6.411   4.294   0.763
20733SOL    HW164206   6.448   4.221  11.753
20733SOL    HW264207   6.319   4.273   0.772
20734SOL     OW64208   1.231   1.430  11.492
20734SOL    HW164209   1.256  34.639  11.474
20734SOL    HW264210   1.221   1.426 -10.492
20735SOL     OW64211   2.903   7.344   0.050
20735SOL    HW164212 -30.162   7.266   0.054
20735SOL    HW264213   2.966   7.417   0.055
20736SOL     OW64214   4.371   7.564   0.310
20736SOL    HW164215  -6.725  -3.398   0.313
20736SOL    HW264216   4.418   7.571   0.227
20737SOL     OW64217   2.452  -0.219   1.602
20737SOL    HW164218   2.384  43.930   1.669
20737SOL    HW264219   2.446  -0.127   1.575
20738SOL     OW64220   2.707   5.206   9.762
20738SOL    HW164221   2.691   5.147  31.767
20738SOL    HW264222   2.620   5.230   9.793
20739SOL     OW64223   4.124   4.797   2.748
20739SOL    HW164224   4.102   4.856  13.861
20739SOL    HW264225   4.077  15.873   2.673
20740SOL     OW64226   9.186   8.535   7.401
20740SOL    HW164227   9.221  19.650  18.489
20740SOL    HW264228   9.164   8.471   7.469
20741SOL     OW64229   4.686  10.131   2.975
20741SOL    HW164230  -6.364  10.212   3.025
20741SOL    HW264231  -6.269  -0.898   2.931
20742SOL     OW64232   7.837   0.083   1.697
20742SOL    HW164233  -3.288   0.040   1.694
20742SOL    HW264234  -3.205   0.135   1.778
20743SOL     OW64235   9.434   3.910   7.851
20743SOL    HW164236   9.408  -7.070   7.781
20743SOL    HW264237   9.475   3.966   7.917
20744SOL     OW64238  11.497   3.134   8.094
20744SOL    HW164239  11.556 -19.010  19.093
20744SOL    HW264240   0.514  -7.830   8.112
20745SOL     OW64241   3.435   0.038   2.533
20745SOL    HW164242   3.454   0.057  13.664
20745SOL    HW264243  -7.555  -0.042   2.514
20746SOL     OW64244   7.296   3.491   4.508
20746SOL    HW164245   7.228 -18.647   4.541
20746SOL    HW264246   7.378   3.450   4.537
20747SOL     OW64247   6.380   3.698   4.173
20747SOL    HW164248   6.321  14.795   4.222
20747SOL    HW264249   6.366   3.722   4.082
20748SOL     OW64250  10.090   3.042   4.009
20748SOL    HW164251  21.212   2.995   4.025
20748SOL    HW264252  10.022   2.980   4.036
20749SOL     OW64253   6.414   4.477  10.558
20749SOL    HW164254   6.327   4.515  10.568
20749SOL    HW264255   6.446   4.465 -11.432
20750SOL     OW64256   5.111   6.605   9.370
20750SOL    HW164257   5.173   6.537   9.397
20750SOL    HW264258   5.031   6.585   9.419
20751SOL     OW64259  10.603  11.464   4.423
20751SOL    HW164260  10.631   0.343   4.466
20751SOL    HW264261  10.589  11.525   4.495
20752SOL     OW64262  -0.406   2.242   4.935
20752SOL    HW164263  -0.324  -8.764   4.971
20752SOL    HW264264  32.719   2.147 -17.134
20753SOL     OW64265   4.597  11.658   6.212
20753SOL    HW164266 -17.493  11.673  17.346
20753SOL    HW264267 -28.530 -10.516  17.242
20754SOL     OW64268   2.623   7.769   4.251
20754SOL    HW164269  -8.415   7.786  15.196
20754SOL    HW264270   2.584  29.761   4.259
20755SOL     OW64271   4.072   9.101   9.703
20755SOL    HW164272   3.982   9.100  31.749
20755SOL    HW264273  26.169   9.010  -1.314
20756SOL     OW64274   8.441   6.056   4.376
20756SOL    HW164275   8.460 -15.999   4.467
20756SOL    HW264276  19.448 -26.982   4.336
20757SOL     OW64277   3.190   9.210   3.339
20757SOL    HW164278   3.285   9.200   3.346
20757SOL    HW264279   3.169  -1.758   3.399
20758SOL     OW64280   4.531   9.870   6.283
20758SOL    HW164281  -6.545   9.784   6.263
20758SOL    HW264282   4.456  20.969   6.279
20759SOL     OW64283   9.423   2.545   7.935
20759SOL    HW164284   9.354   2.567   7.872
20759SOL    HW264285   9.460  13.670   7.960
20760SOL     OW64286   4.588   3.486   9.856
20760SOL    HW164287 -17.495   3.516 -23.354
20760SOL    HW264288   4.636   3.555   9.902
20761SOL     OW64289   6.916  -0.211   1.364
20761SOL    HW164290   6.910  -0.306   1.352
20761SOL    HW264291   7.010  21.887  12.400
20762SOL     OW64292   0.939   8.486   2.654
20762SOL    HW164293  11.925  -2.632   2.667
20762SOL    HW264294   1.026  -2.578  24.766
20763SOL     OW64295   2.500   0.310   5.278
20763SOL    HW164296   2.585   0.291  16.277
20763SOL    HW264297   2.521   0.366   5.353
20764SOL     OW64298   9.128  10.289   6.587
20764SOL    HW164299  -1.836  -0.777  61.838
20764SOL    HW264300  -1.971 -11.865  17.631
20765SOL     OW64301   4.217   1.333   6.204
20765SOL    HW164302   4.288   1.361   6.262
20765SOL    HW264303  -6.897   1.387  17.272
20766SOL     OW64304   2.885   3.787   5.996
20766SOL    HW164305 -19.280   3.747   6.014
20766SOL    HW264306  13.978   3.764 -16.007
20767SOL     OW64307   7.389  10.181   9.052
20767SOL    HW164308  18.389  10.246   9.109
20767SOL    HW264309   7.319  10.117   9.037
20768SOL     OW64310   8.426   0.433   1.415
20768SOL    HW164311  30.548   0.419  12.370
20768SOL    HW264312   8.362   0.502  34.518
20769SOL     OW64313   2.482   9.868   3.523
20769SOL    HW164314  13.533  -1.077   3.519
20769SOL    HW264315   2.389   9.854   3.503
20770SOL     OW64316   6.602  11.443   0.735
20770SOL    HW164317   6.509  11.456   0.719
20770SOL    HW264318   6.636   0.491   0.755
20771SOL     OW64319   2.867   5.242   2.398
20771SOL    HW164320   2.896  16.234   2.476
20771SOL    HW264321  24.894   5.178   2.349
20772SOL     OW64322   3.211   8.646  -0.962
20772SOL    HW164323   3.245   8.624  -0.875
20772SOL    HW264324  14.171   8.696  21.134
20773SOL     OW64325   3.780   4.335   9.895
20773SOL    HW164326   3.841   4.317   9.966
20773SOL    HW264327   3.732  -6.786 -12.196
20774SOL     OW64328   0.601   1.992   2.943
20774SOL    HW164329 -10.503   1.988  -8.167
20774SOL    HW264330  22.700  13.125   2.952
20775SOL     OW64331  10.177   3.857   3.596
20775SOL    HW164332  10.192   3.848  -7.538
20775SOL    HW264333  21.198 -18.129   3.608
20776SOL     OW64334   0.028   7.976   3.046
20776SOL    HW164335   0.039   7.907   3.111
20776SOL    HW264336   0.105  -3.070   2.990
20777SOL     OW64337   2.715   6.278   2.967
20777SOL    HW164338   2.691   6.198  14.053
20777SOL    HW264339   2.677   6.268   2.880
20778SOL     OW64340   8.978   7.792   6.012
20778SOL    HW164341   8.924   7.758   6.084
20778SOL    HW264342  -1.983  -3.302   6.013
20779SOL     OW64343   9.553   8.446   4.557
20779SOL    HW164344 -23.616 -13.636  15.515
20779SOL    HW264345   9.554   8.538   4.581
20780SOL     OW64346   3.611   7.167   3.207
20780SOL    HW164347   3.517   7.178  -7.845
20780SOL    HW264348  25.700   7.139   3.298
20781SOL     OW64349   3.091   7.623   8.149
20781SOL    HW164350   3.053   7.700   8.108
20781SOL    HW264351  -7.875   7.599   8.093
20782SOL     OW64352   2.473   6.060   9.047
20782SOL    HW164353   2.436 -27.109   9.120
20782SOL    HW264354   2.464  17.041  -2.068
20783SOL     OW64355   3.468   0.072   4.294
20783SOL    HW164356  14.565  11.173   4.248
20783SOL    HW264357  -7.660   0.102   4.273
20784SOL     OW64358   5.708   0.744   8.326
20784SOL    HW164359  16.708 -10.315   8.411
20784SOL    HW264360  16.777   0.835 -13.746
20785SOL     OW64361   1.561   2.977  -1.272
20785SOL    HW164362 -20.514   2.903  31.786
20785SOL    HW264363   1.643  -8.016  -1.286
20786SOL     OW64364   6.410   3.664   2.629
20786SOL    HW164365   6.411  14.692   2.724
20786SOL    HW264366  39.594   3.732   2.612
20787SOL     OW64367   3.383   4.266   0.191
20787SOL    HW164368   3.380   4.170  22.266
20787SOL    HW264369 -18.730  15.327   0.278
20788SOL     OW64370   8.081   3.207   5.376
20788SOL    HW164371   8.098  -7.827  38.401
20788SOL    HW264372   8.163   3.176  27.493
20789SOL     OW64373   2.779  10.477   2.647
20789SOL    HW164374   2.842  10.467  -8.464
20789SOL    HW264375   2.705  10.423   2.621
20790SOL     OW64376   9.301   8.732   8.070
20790SOL    HW164377   9.303 -24.408 -13.916
20790SOL    HW264378   9.309  -2.213   8.067
20791SOL     OW64379   2.481   6.669   0.089
20791SOL    HW164380   2.411  -4.435   0.091
20791SOL    HW264381  13.530   6.692  -0.004
20792SOL     OW64382   2.184   6.589   8.235
20792SOL    HW164383   2.190   6.501  -2.841
20792SOL    HW264384   2.091   6.599   8.258
20793SOL     OW64385   1.914  10.058  10.150
20793SOL    HW164386  23.929  21.047  10.200
20793SOL    HW264387  12.911  10.143  10.135
20794SOL     OW64388   7.720   8.558  10.814
20794SOL    HW164389   7.770 -13.453  10.768
20794SOL    HW264390   7.682   8.603  -0.150
20795SOL     OW64391   4.386   8.351   5.919
20795SOL    HW164392  15.506   8.401   5.931
20795SOL    HW264393   4.328   8.409   5.870
20796SOL     OW64394   4.278   6.049  -0.481
20796SOL    HW164395  -6.713   6.123  -0.445
20796SOL    HW264396   4.335   6.015  32.568
20797SOL     OW64397   6.148  -0.317   3.235
20797SOL    HW164398  17.119  -0.328  -7.871
20797SOL    HW264399   6.197  10.640  -7.808
20798SOL     OW64400  10.914  12.221   7.841
20798SOL    HW164401  10.841  12.271   7.878
20798SOL    HW264402  10.893 -20.989   7.862
20799SOL     OW64403   6.351  10.616  10.908
20799SOL    HW164404  -4.649  10.694 -11.132
20799SOL    HW264405  17.397 -11.448  -0.226
20800SOL     OW64406  10.418   6.019   6.304
20800SOL    HW164407  10.511  28.085   6.287
20800SOL    HW264408  10.405   5.989   6.394
20801SOL     OW64409   4.677   9.581   9.926
20801SOL    HW164410   4.638  20.606  10.012
20801SOL    HW264411 -28.351   9.554  -1.104
20802SOL     OW64412  12.467  -0.124   8.676
20802SOL    HW164413 -31.654  -0.071   8.746
20802SOL    HW264414   1.377  10.977  19.662
20803SOL     OW64415   6.941   4.491   8.742
20803SOL    HW164416  18.061   4.499   8.794
20803SOL    HW264417   6.916   4.399   8.750
20804SOL     OW64418   2.606   2.250   6.499
20804SOL    HW164419   2.608 -19.738 -26.590
20804SOL    HW264420   2.680   2.208   6.544
20805SOL     OW64421   9.479   1.914   2.199
20805SOL    HW164422   9.526   1.904   2.282
20805SOL    HW264423  20.570   1.979   2.151
20806SOL     OW64424   4.477  -0.914   1.185
20806SOL    HW164425   4.432  21.087  12.192
20806SOL    HW264426 -17.509  -0.931   1.169
20807SOL     OW64427   4.473   9.760   2.854
20807SOL    HW164428   4.438   9.845  24.961
20807SOL    HW264429   4.557   9.752   2.901
20808SOL     OW64430   6.764   3.694   7.816
20808SOL    HW164431   6.853   3.677  -3.195
20808SOL    HW264432   6.755  -7.396   7.735
20809SOL     OW64433   1.985   6.097   9.049
20809SOL    HW164434   1.988   6.134  -1.902
20809SOL    HW264435   1.923   6.152   9.002
20810SOL     OW64436   1.628   7.839   0.501
20810SOL    HW164437  12.639  29.965   0.579
20810SOL    HW264438   1.718   7.869   0.487
20811SOL     OW64439   2.135   8.335   8.336
20811SOL    HW164440   2.059  19.331  19.335
20811SOL    HW264441   2.172   8.270   8.395
20812SOL     OW64442   2.121   6.124   2.381
20812SOL    HW164443   2.041   6.076   2.402
20812SOL    HW264444   2.180   6.106  13.493
20813SOL     OW64445   8.762   4.325   4.479
20813SOL    HW164446  30.811  -6.626  -6.581
20813SOL    HW264447   8.767  -6.717   4.574
20814SOL     OW64448   9.116   0.206   8.183
20814SOL    HW164449  -2.006   0.161   8.205
20814SOL    HW264450   9.088   0.295   8.159
20815SOL     OW64451   5.580  10.087   2.218
20815SOL    HW164452   5.484  10.086   2.221
20815SOL    HW264453  16.645  21.186  13.327
20816SOL     OW64454   8.978   4.777   0.513
20816SOL    HW164455   8.923 -39.392   0.590
20816SOL    HW264456  20.071   4.853   0.532
20817SOL     OW64457   4.712   1.275  -0.492
20817SOL    HW164458   4.679   1.325  10.472
20817SOL    HW264459   4.795  12.278  -0.522
20818SOL     OW64460   6.704   9.594   8.122
20818SOL    HW164461  17.750   9.658   8.193
20818SOL    HW264462  17.737   9.647  30.122
20819SOL     OW64463   4.615   1.743   9.640
20819SOL    HW164464   4.702  12.766   9.603
20819SOL    HW264465   4.631   1.800   9.716
20820SOL     OW64466   5.043   9.118   2.242
20820SOL    HW164467   5.068  -2.014   2.243
20820SOL    HW264468  27.028   9.118   2.258
20821SOL     OW64469   4.714   2.671  10.664
20821SOL    HW164470   4.694   2.721  10.584
20821SOL    HW264471   4.629   2.639  10.693
20822SOL     OW64472   9.844   3.276   9.604
20822SOL    HW164473   9.780  -7.718   9.549
20822SOL    HW264474   9.902   3.233   9.542
20823SOL     OW64475   4.399  10.022   5.106
20823SOL    HW164476  15.505  21.022   5.163
20823SOL    HW264477   4.438  10.106  16.119
20824SOL     OW64478   0.498   7.404   7.781
20824SOL    HW164479  11.490   7.335   7.734
20824SOL    HW264480   0.543   7.357   7.852
20825SOL     OW64481   5.807   3.149   3.633
20825SOL    HW164482  16.908   3.211   3.594
20825SOL    HW264483  27.842   3.199   3.702
20826SOL     OW64484   9.443   4.869   8.881
20826SOL    HW164485   9.434   4.891   8.788
20826SOL    HW264486  20.403   4.820   8.902
20827SOL     OW64487   0.750   7.122   3.035
20827SOL    HW164488   0.691   7.164 -19.106
20827SOL    HW264489   0.714   7.035   3.048
20828SOL     OW64490   3.175   3.176   8.393
20828SOL    HW164491  36.283   3.243  -2.714
20828SOL    HW264492  14.308   3.177   8.414
20829SOL     OW64493   8.546   8.273   5.365
20829SOL    HW164494  -2.451   8.357   5.382
20829SOL    HW264495  -2.563  -2.746   5.303
20830SOL     OW64496   4.404   6.660   4.005
20830SOL    HW164497  -6.708   6.671   3.942
20830SOL    HW264498   4.453   6.585   3.972
20831SOL     OW64499   2.723   9.304   1.511
20831SOL    HW164500  13.837   9.245 -20.555
20831SOL    HW264501  13.748   9.305   1.417
20832SOL     OW64502   5.886   4.506   4.383
20832SOL    HW164503  -5.180   4.591   4.418
20832SOL    HW264504  -5.079   4.526  15.366
20833SOL     OW64505   7.744   8.740   9.101
20833SOL    HW164506   7.774   8.681   9.032
20833SOL    HW264507 -14.367   8.817  20.095
20834SOL     OW64508   8.217   3.261   9.790
20834SOL    HW164509   8.185   3.172   9.804
20834SOL    HW264510   8.273   3.279  -1.174
20835SOL     OW64511   7.467   3.098   8.170
20835SOL    HW164512   7.562  25.169  19.208
20835SOL    HW264513  18.486   3.150  19.132
20836SOL     OW64514   2.061   9.218   3.444
20836SOL    HW164515   1.987  -1.847  -7.649
20836SOL    HW264516   2.049   9.312   3.458
20837SOL     OW64517   2.498  12.613   0.974
20837SOL    HW164518   2.415   1.607 -10.032
20837SOL    HW264519   2.547  -9.388   0.949
20838SOL     OW64520   4.138   9.517  10.531
20838SOL    HW164521   4.207 -12.523  10.586
20838SOL    HW264522   4.140  -1.471  10.450
20839SOL     OW64523   5.365   2.881   7.381
20839SOL    HW164524 -27.694   2.886   7.306
20839SOL    HW264525   5.392   2.954  18.477
20840SOL     OW64526   8.800   6.058  11.588
20840SOL    HW164527  -2.179   6.088   0.481
20840SOL    HW264528   8.713   6.080  11.555
20841SOL     OW64529   2.431   6.841   3.746
20841SOL    HW164530   2.380  -4.184   3.666
20841SOL    HW264531   2.407   6.752  47.932
20842SOL     OW64532   4.163   9.911   6.192
20842SOL    HW164533   4.176  10.001   6.220
20842SOL    HW264534  -6.947   9.915  -4.911
20843SOL     OW64535   9.122   3.428   4.875
20843SOL    HW164536   9.044   3.475   4.903
20843SOL    HW264537   9.141   3.367  27.025
20844SOL     OW64538   0.223   0.143   6.256
20844SOL    HW164539   0.158  11.124   6.295
20844SOL    HW264540  11.226  33.349  -4.773
20845SOL     OW64541   9.619   8.615   9.315
20845SOL    HW164542   9.604   8.700  -1.685
20845SOL    HW264543   9.544   8.562   9.341
20846SOL     OW64544   8.884   9.550   4.360
20846SOL    HW164545  -2.202   9.537   4.277
20846SOL    HW264546   8.877   9.644  26.456
20847SOL     OW64547   7.703   4.943   7.863
20847SOL    HW164548  -3.415   4.971   7.910
20847SOL    HW264549   7.702   4.994  18.822
20848SOL     OW64550   2.985   1.575   8.016
20848SOL    HW164551   3.004   1.581   7.923
20848SOL    HW264552   2.895   1.609  19.064
20849SOL     OW64553   9.433   4.144   4.156
20849SOL    HW164554   9.454   4.050  -6.877
20849SOL    HW264555  -1.524  15.228   4.175
20850SOL     OW64556   9.743   1.967   7.550
20850SOL    HW164557 -12.314   1.979  -3.397
20850SOL    HW264558   9.811  12.948   7.516
20851SOL     OW64559   9.209   9.879   1.263
20851SOL    HW164560   9.131   9.911   1.219
20851SOL    HW264561   9.199  20.947   1.354
20852SOL     OW64562   8.655   8.800   1.338
20852SOL    HW164563   8.647   8.712   1.374
20852SOL    HW264564  19.633   8.853   1.388
20853SOL     OW64565   2.684   1.723   4.651
20853SOL    HW164566   2.702   1.641  15.737
20853SOL    HW264567  -8.350  12.738   4.558
20854SOL     OW64568   4.991   9.004   3.872
20854SOL    HW164569  27.151   9.055  37.000
20854SOL    HW264570   4.984   8.955  -7.085
20855SOL     OW64571   2.309   6.367   8.063
20855SOL    HW164572   2.287   6.280   8.097
20855SOL    HW264573   2.400   6.380   8.090
20856SOL     OW64574   7.466   9.609   3.268
20856SOL    HW164575   7.375   9.594  36.359
20856SOL    HW264576   7.519 -12.497  14.232
20857SOL     OW64577   4.379   5.385   4.961
20857SOL    HW164578   4.324   5.450  -6.121
20857SOL    HW264579   4.318   5.329   5.008
20858SOL     OW64580   2.940  -1.465  10.670
20858SOL    HW164581   2.854  31.628 -11.444
20858SOL    HW264582   2.975  -1.545  10.709
20859SOL     OW64583   9.546   5.650   1.854
20859SOL    HW164584  20.594  16.741   1.934
20859SOL    HW264585   9.525   5.714   1.786
20860SOL     OW64586   3.748   2.982   4.972
20860SOL    HW164587  25.866  -8.019  16.091
20860SOL    HW264588   3.785   3.032   4.900
20861SOL     OW64589   5.573   2.164   4.429
20861SOL    HW164590   5.534  -8.961   4.409
20861SOL    HW264591   5.506   2.210   4.479
20862SOL     OW64592   7.537   9.604   8.477
20862SOL    HW164593   7.543   9.525   8.530
20862SOL    HW264594 -14.608   9.657   8.520
20863SOL     OW64595   5.136   7.403   6.238
20863SOL    HW164596   5.104  18.532   6.224
20863SOL    HW264597   5.224   7.414   6.272
20864SOL     OW64598   8.117   1.288   5.644
20864SOL    HW164599   8.060   1.269 -27.549
20864SOL    HW264600 -13.969   1.383   5.657
20865SOL     OW64601   3.611   3.740  -0.669
20865SOL    HW164602   3.601   3.650  -0.640
20865SOL    HW264603   3.577  -7.299  21.321
20866SOL     OW64604   3.956   2.337   2.051
20866SOL    HW164605  26.118   2.349  13.137
20866SOL    HW264606   3.970  -8.664   1.965
20867SOL     OW64607   4.275   2.772   5.901
20867SOL    HW164608  15.381   2.766   5.833
20867SOL    HW264609   4.310   2.721   5.974
20868SOL     OW64610  10.982   0.419  -1.311
20868SOL    HW164611  11.042   0.461  20.707
20868SOL    HW264612  10.921  33.489  20.712
20869SOL     OW64613   4.937   2.611   8.958
20869SOL    HW164614   4.866 -19.512   9.004
20869SOL    HW264615   5.014   2.559   8.977
20870SOL     OW64616   7.022   4.407   9.503
20870SOL    HW164617  -4.075   4.468   9.458
20870SOL    HW264618  29.042  48.496 -12.545
20871SOL     OW64619   9.387   1.689   5.100
20871SOL    HW164620  -1.562   1.667 -28.038
20871SOL    HW264621   9.338   1.660   5.023
20872SOL     OW64622   3.783   4.272   6.416
20872SOL    HW164623   3.836  15.346 -15.735
20872SOL    HW264624   3.804   4.178  -4.621
20873SOL     OW64625   8.427   7.440   3.836
20873SOL    HW164626   8.463   7.517   3.879
20873SOL    HW264627   8.469   7.366   3.881
20874SOL     OW64628   6.417   2.001   5.131
20874SOL    HW164629   6.431  13.030  16.076
20874SOL    HW264630   6.490  46.213  27.239
20875SOL     OW64631   7.162   2.455   4.599
20875SOL    HW164632   7.227   2.389   4.622
20875SOL    HW264633   7.212   2.536  -6.453
20876SOL     OW64634   4.235   1.133  -1.414
20876SOL    HW164635  -6.773   1.223  -1.414
20876SOL    HW264636   4.204   1.118  31.794
20877SOL     OW64637   6.772   1.429   5.868
20877SOL    HW164638   6.782   1.473   5.952
20877SOL    HW264639  17.772   1.494   5.811
20878SOL     OW64640   4.237   6.733   3.483
20878SOL    HW164641 -17.808   6.665  14.466
20878SOL    HW264642   4.162   6.769   3.435
20879SOL     OW64643   9.591   8.180   3.467
20879SOL    HW164644   9.519   8.231  14.469
20879SOL    HW264645  -1.481   8.154   3.553
20880SOL     OW64646  -0.029   3.124   9.762
20880SOL    HW164647  21.974   3.175  20.776
20880SOL    HW264648  -0.020 -19.022   9.695
20881SOL     OW64649   9.150   8.602   1.564
20881SOL    HW164650  -1.872  -2.472   1.476
20881SOL    HW264651   9.055   8.591   1.574
20882SOL     OW64652   6.799   6.588   4.873
20882SOL    HW164653   6.767   6.505   4.908
20882SOL    HW264654  -4.312   6.621   4.819
20883SOL     OW64655  11.813   9.118   4.912
20883SOL    HW164656   0.724  -1.884   4.985
20883SOL    HW264657 -21.283  -2.010   4.941
20884SOL     OW64658   8.942   6.945   5.834
20884SOL    HW164659   9.022   6.967   5.787
20884SOL    HW264660   8.902   7.029  16.894
20885SOL     OW64661   5.911  10.376   4.522
20885SOL    HW164662  16.980  -0.616   4.444
20885SOL    HW264663 -27.218  10.285   4.493
20886SOL     OW64664   2.917   5.815   4.574
20886SOL    HW164665   2.896   5.865   4.495
20886SOL    HW264666  13.892   5.744   4.574
20887SOL     OW64667   6.036  10.284   3.341
20887SOL    HW164668   6.126  21.326   3.373
20887SOL    HW264669 -27.135  10.322   3.411
20888SOL     OW64670  10.768   0.228   8.794
20888SOL    HW164671  10.761   0.293   8.863
20888SOL    HW264672  10.822  11.197   8.831
20889SOL     OW64673   6.120  10.841   3.486
20889SOL    HW164674   6.193  10.903  25.564
20889SOL    HW264675   6.130  -0.248  14.444
20890SOL     OW64676   1.844   5.032   2.705
20890SOL    HW164677 -20.238   4.939   2.682
20890SOL    HW264678   1.774  -5.968   2.653
20891SOL     OW64679  10.134   0.717   0.918
20891SOL    HW164680  10.187   0.648   0.877
20891SOL    HW264681  10.071   0.742   0.850
20892SOL     OW64682   4.863   2.743   5.179
20892SOL    HW164683  15.823   2.698  -5.832
20892SOL    HW264684   4.890  -8.243   5.253
20893SOL     OW64685   2.003   3.259   9.737
20893SOL    HW164686   1.979  14.388   9.713
20893SOL    HW264687 -19.991   3.268   9.780
20894SOL     OW64688   1.117   7.835   9.667
20894SOL    HW164689   1.080   7.848  -1.460
20894SOL    HW264690   1.200   7.882   9.665
20895SOL     OW64691   7.827   1.498   8.166
20895SOL    HW164692 -14.189  34.651   8.229
20895SOL    HW264693 -14.200   1.474   8.089
20896SOL     OW64694   8.474  10.279   5.478
20896SOL    HW164695   8.417  10.275   5.401
20896SOL    HW264696   8.561  10.299  -5.597
20897SOL     OW64697   2.502   7.919  10.754
20897SOL    HW164698  -8.526   7.902  10.847
20897SOL    HW264699  -8.450  29.988  10.716
20898SOL     OW64700   7.669   6.865   5.450
20898SOL    HW164701   7.576   6.855   5.434
20898SOL    HW264702  -3.330   6.856   5.364
20899SOL     OW64703   1.500   7.659   7.227
20899SOL    HW164704   1.535   7.604   7.297
20899SOL    HW264705  -9.611   7.606   7.190
20900SOL     OW64706   2.684   4.295   2.198
20900SOL    HW164707  35.736   4.279   2.132
20900SOL    HW264708  13.774  15.409   2.165
20901SOL     OW64709   7.950  10.755   4.770
20901SOL    HW164710   7.972  10.843   4.803
20901SOL    HW264711  19.057  10.698  15.846
20902SOL     OW64712   4.855   2.638   6.403
20902SOL    HW164713  15.834   2.582   6.451
20902SOL    HW264714   4.835   2.622  -4.729
20903SOL     OW64715   8.761   5.613   0.844
20903SOL    HW164716  30.843  38.794 -10.268
20903SOL    HW264717   8.829  16.683   0.904
20904SOL     OW64718   9.728   0.613  10.977
20904SOL    HW164719 -23.477  22.651  10.974
20904SOL    HW264720   9.710   0.706  10.962
20905SOL     OW64721   4.045   5.263   9.004
20905SOL    HW164722 -18.114  16.346  20.014
20905SOL    HW264723   4.094  27.412   9.048
20906SOL     OW64724   8.124   1.842   9.570
20906SOL    HW164725   8.216   1.861   9.552
20906SOL    HW264726   8.078   1.925   9.554
20907SOL     OW64727   1.273   3.359   4.496
20907SOL    HW164728   1.223   3.434   4.526
20907SOL    HW264729   1.208   3.300   4.457
20908SOL     OW64730   7.348   0.693   0.800
20908SOL    HW164731   7.325  11.708 -10.329
20908SOL    HW264732   7.279   0.754   0.827
20909SOL     OW64733   9.924   9.082   1.684
20909SOL    HW164734  -1.104   9.095   1.778
20909SOL    HW264735   9.832   9.060   1.673
20910SOL     OW64736  10.535   1.924  10.028
20910SOL    HW164737  10.448  23.963  10.021
20910SOL    HW264738  10.554  12.996   9.940
20911SOL     OW64739   1.242   0.705   6.279
20911SOL    HW164740 -20.872   0.695   6.190
20911SOL    HW264741   1.256   0.616   6.309
20912SOL     OW64742   8.551   2.511   5.642
20912SOL    HW164743  -2.401   2.484   5.668
20912SOL    HW264744   8.492  -8.573  -5.337
20913SOL     OW64745   5.515  11.155   8.273
20913SOL    HW164746  16.498   0.169   8.218
20913SOL    HW264747  16.643  11.182  -2.789
20914SOL     OW64748   7.432   3.478   4.881
20914SOL    HW164749   7.421   3.408   4.946
20914SOL    HW264750   7.434 -40.727   4.797
20915SOL     OW64751   6.327  10.975   6.443
20915SOL    HW164752  -4.720  10.906  28.456
20915SOL    HW264753   6.412  10.959  28.563
20916SOL     OW64754   5.241   9.537   8.435
20916SOL    HW164755   5.252   9.494  -2.689
20916SOL    HW264756   5.198   9.471 -13.589
20917SOL     OW64757   9.420   7.566   2.497
20917SOL    HW164758   9.343   7.597   2.545
20917SOL    HW264759   9.456  18.685  24.535
20918SOL     OW64760   4.391   3.436   9.189
20918SOL    HW164761  -6.582   3.376   9.155
20918SOL    HW264762  -6.657   3.503   9.121
20919SOL     OW64763   8.878   4.873   2.290
20919SOL    HW164764  19.866   4.793   2.290
20919SOL    HW264765   8.853   4.917  -8.669
20920SOL     OW64766   5.650  10.826   7.173
20920SOL    HW164767   5.621  10.793   7.258
20920SOL    HW264768   5.712  -0.279   7.141
20921SOL     OW64769   4.588   7.961   9.820
20921SOL    HW164770   4.528   7.888   9.806
20921SOL    HW264771   4.567  30.072   9.907
20922SOL     OW64772   9.456  11.992   1.843
20922SOL    HW164773   9.415  11.909  12.909
20922SOL    HW264774   9.392 -10.021   1.867
20923SOL     OW64775   3.116   1.024   9.868
20923SOL    HW164776 -19.041  12.043  31.895
20923SOL    HW264777 -18.969  23.044  -1.097
20924SOL     OW64778   0.275   9.805   6.141
20924SOL    HW164779   0.189   9.789   6.180
20924SOL    HW264780  11.299   9.799   6.047
20925SOL     OW64781   0.828   4.622   7.924
20925SOL    HW164782   0.823  15.577   7.878
20925SOL    HW264783   0.888  15.714  -3.169
20926SOL     OW64784   8.277   7.211   3.264
20926SOL    HW164785   8.213   7.256  -7.720
20926SOL    HW264786  30.303   7.162   3.202
20927SOL     OW64787  10.065  11.622   3.195
20927SOL    HW164788  10.110  11.691  14.283
20927SOL    HW264789  10.112   0.578   3.111
20928SOL     OW64790   0.414   6.641   7.979
20928SOL    HW164791  22.527  -4.310  19.011
20928SOL    HW264792 -21.757  -4.387   8.002
20929SOL     OW64793   3.600   4.843  10.599
20929SOL    HW164794  14.592   4.905  10.656
20929SOL    HW264795  14.730   4.874  10.601
20930SOL     OW64796   6.612   8.569  10.064
20930SOL    HW164797   6.691   8.594 -11.967
20930SOL    HW264798  -4.394   8.532 -23.137
20931SOL     OW64799   7.244   1.089   9.690
20931SOL    HW164800  -3.785   1.060   9.600
20931SOL    HW264801 -14.746   1.086   9.727
20932SOL     OW64802   3.262   5.623   5.813
20932SOL    HW164803   3.223  -5.465  -5.155
20932SOL    HW264804  25.273   5.684 -27.335
20933SOL     OW64805   4.818   1.401   6.061
20933SOL    HW164806   4.871  -9.569   6.100
20933SOL    HW264807   4.767   1.366  -4.906
20934SOL     OW64808   4.868   7.893  10.070
20934SOL    HW164809   4.847   7.953  10.142
20934SOL    HW264810   4.943   7.932  10.026
20935SOL     OW64811   5.160   2.126   4.554
20935SOL    HW164812   5.228  -8.967   4.595
20935SOL    HW264813  -5.962 -19.996   4.578
20936SOL     OW64814  10.676   3.000   4.478
20936SOL    HW164815  10.652  14.131  -6.576
20936SOL    HW264816  10.726   3.001 -17.519
20937SOL     OW64817   5.373  10.911   7.821
20937SOL    HW164818  -5.751  10.908   7.864
20937SOL    HW264819  -5.673  10.845   7.751
20938SOL     OW64820   6.739   0.121   3.410
20938SOL    HW164821  17.731   0.192   3.452
20938SOL    HW264822   6.822  11.199   3.383
20939SOL     OW64823   8.893   6.806   8.590
20939SOL    HW164824   8.853   6.880  -2.404
20939SOL    HW264825   8.885   6.733  -2.389
20940SOL     OW64826   7.426   6.459  10.392
20940SOL    HW164827   7.513   6.460  10.432
20940SOL    HW264828   7.422   6.540  10.341
20941SOL     OW64829   5.134   2.790   9.173
20941SOL    HW164830   5.091   2.832   9.247
20941SOL    HW264831   5.076   2.805   9.099
20942SOL     OW64832   0.579   4.016   1.933
20942SOL    HW164833   0.631   3.945   1.897
20942SOL    HW264834   0.544  26.060  24.094
20943SOL     OW64835   1.614   7.588   6.283
20943SOL    HW164836   1.704   7.613  -4.736
20943SOL    HW264837   1.616   7.493  -4.765
20944SOL     OW64838   7.743   2.880   9.968
20944SOL    HW164839  18.772   2.975  -1.062
20944SOL    HW264840   7.776  -8.189  21.093
20945SOL     OW64841  10.290   0.119   6.008
20945SOL    HW164842  10.273   0.025   6.006
20945SOL    HW264843  10.202   0.158 -16.069
20946SOL     OW64844   7.281   1.051   4.439
20946SOL    HW164845  29.289  12.030   4.458
20946SOL    HW264846   7.239  23.206  15.439
20947SOL     OW64847   4.865  10.063   8.045
20947SOL    HW164848   4.873  10.083   8.139
20947SOL    HW264849   4.949  10.023 -25.097
20948SOL     OW64850   8.412  10.723   1.875
20948SOL    HW164851   8.454 -22.312   1.858
20948SOL    HW264852  19.512  10.658 -20.239
20949SOL     OW64853   1.508   6.590   3.847
20949SOL    HW164854   1.520   6.551   3.934
20949SOL    HW264855  12.467   6.550   3.814
20950SOL     OW64856   2.798   0.188   5.272
20950SOL    HW164857   2.775   0.109   5.321
20950SOL    HW264858   2.843   0.244 -16.744
20951SOL     OW64859   8.898   2.891   8.416
20951SOL    HW164860   8.841   2.896   8.492
20951SOL    HW264861   8.855  13.985   8.350
20952SOL     OW64862   3.983  10.003   6.460
20952SOL    HW164863   3.932  -1.112   6.430
20952SOL    HW264864  -7.106  10.079  -4.610
20953SOL     OW64865   3.566   0.416  10.586
20953SOL    HW164866  14.623  11.363  10.570
20953SOL    HW264867  25.556   0.419  10.620
20954SOL     OW64868   1.312  10.563   6.591
20954SOL    HW164869  12.435  -0.433   6.607
20954SOL    HW264870  -9.743  -0.528   6.670
20955SOL     OW64871   6.052   4.270   4.859
20955SOL    HW164872   6.123   4.331   4.880
20955SOL    HW264873  17.014   4.308   4.900
20956SOL     OW64874   0.839   9.064   1.239
20956SOL    HW164875   0.885   9.013   1.172
20956SOL    HW264876   0.908   9.101   1.293
20957SOL     OW64877   5.477   7.085   8.515
20957SOL    HW164878   5.431   7.146   8.572
20957SOL    HW264879  16.604   7.122   8.505
20958SOL     OW64880   5.892   0.918   0.740
20958SOL    HW164881 -16.235   1.001   0.740
20958SOL    HW264882   5.983   0.942   0.725
20959SOL     OW64883   1.018   0.904   7.711
20959SOL    HW164884  23.035   0.876   7.778
20959SOL    HW264885   1.091   0.843   7.720
20960SOL     OW64886   5.208   8.443   8.573
20960SOL    HW164887  38.393   8.430   8.505
20960SOL    HW264888   5.188   8.355   8.605
20961SOL     OW64889  10.297   4.373   8.736
20961SOL    HW164890  10.345   4.290   8.727
20961SOL    HW264891  10.219   4.350  30.865
20962SOL     OW64892   4.913   0.492  11.064
20962SOL    HW164893  -6.101   0.511  11.154
20962SOL    HW264894   4.971   0.420 -11.041
20963SOL     OW64895   2.357  10.923   1.836
20963SOL    HW164896  -8.694  10.887   1.924
20963SOL    HW264897   2.429  10.986   1.845
20964SOL     OW64898   0.156   6.390   6.597
20964SOL    HW164899  11.229   6.330   6.531
20964SOL    HW264900  11.224   6.476   6.568
20965SOL     OW64901   6.357   7.956   4.412
20965SOL    HW164902   6.413   7.890  15.411
20965SOL    HW264903   6.392   8.040  15.421
20966SOL     OW64904   2.060   7.983   5.166
20966SOL    HW164905   2.133  18.982   5.213
20966SOL    HW264906  -9.045  19.041   5.233
20967SOL     OW64907   0.326   3.670  11.251
20967SOL    HW164908   0.319  14.637 -10.890
20967SOL    HW264909  11.442  14.759   0.181
20968SOL     OW64910   3.132   7.247   4.244
20968SOL    HW164911   3.092   7.226  -6.711
20968SOL    HW264912  14.180  -3.697   4.245
20969SOL     OW64913   0.146   3.283   2.311
20969SOL    HW164914   0.090   3.310   2.383
20969SOL    HW264915   0.234  -7.728   2.336
20970SOL     OW64916   7.285   9.449   3.431
20970SOL    HW164917   7.269   9.366   3.386
20970SOL    HW264918   7.380 -12.620  14.470
20971SOL     OW64919   8.288   8.630   2.160
20971SOL    HW164920  19.311  -2.495  -8.840
20971SOL    HW264921   8.249   8.624  -8.967
20972SOL     OW64922   3.027   5.390   4.575
20972SOL    HW164923   3.062   5.302   4.563
20972SOL    HW264924   3.100   5.441   4.608
20973SOL     OW64925   7.654   0.753   8.117
20973SOL    HW164926   7.605   0.706   8.185
20973SOL    HW264927   7.632   0.845   8.130
20974SOL     OW64928   0.658  11.096   0.497
20974SOL    HW164929  11.783  11.131   0.524
20974SOL    HW264930   0.678   0.006  11.457
20975SOL     OW64931   8.515   1.413   3.891
20975SOL    HW164932   8.504   1.348 -18.258
20975SOL    HW264933  19.649  -9.625   3.908
20976SOL     OW64934   1.130   4.777   7.458
20976SOL    HW164935  23.114   4.782   7.473
20976SOL    HW264936  12.191   4.859 -25.704
20977SOL     OW64937   0.528   7.250   5.763
20977SOL    HW164938   0.592   7.307  27.883
20977SOL    HW264939  11.570   7.170   5.815
20978SOL     OW64940  10.401   5.586   4.196
20978SOL    HW164941  10.391  16.644   4.102
20978SOL    HW264942  10.311 -16.504   4.227
20979SOL     OW64943   9.419   3.503   1.272
20979SOL    HW164944  20.384  -7.482   1.247
20979SOL    HW264945  20.432   3.414   1.249
20980SOL     OW64946   1.633   1.447   6.670
20980SOL    HW164947   1.679   1.449   6.754
20980SOL    HW264948   1.687  12.541  28.691
20981SOL     OW64949   9.942   3.480  10.849
20981SOL    HW164950   9.918   3.562  10.805
20981SOL    HW264951  21.030  36.549  10.783
20982SOL     OW64952   0.340   1.841   1.088
20982SOL    HW164953   0.323   1.765  12.073
20982SOL    HW264954   0.416  -9.156   1.048
20983SOL     OW64955  11.124   0.528   8.068
20983SOL    HW164956   0.123 -10.464   8.141
20983SOL    HW264957  -0.010  22.612   8.083
20984SOL     OW64958   5.221   5.097   0.648
20984SOL    HW164959   5.250   5.169   0.704
20984SOL    HW264960   5.300  38.167 -10.411
20985SOL     OW64961  10.955   6.666   4.927
20985SOL    HW164962  10.905   6.611   4.987
20985SOL    HW264963  11.040   6.678   4.970
20986SOL     OW64964   1.145   9.457   7.960
20986SOL    HW164965   1.142   9.372   7.916
20986SOL    HW264966   1.063   9.500   7.936
20987SOL     OW64967   2.537   4.879   1.040
20987SOL    HW164968   2.533   4.973   1.056
20987SOL    HW264969   2.456  -6.180   0.992
20988SOL     OW64970   5.086   3.083   4.720
20988SOL    HW164971   5.062   3.037   4.800
20988SOL    HW264972   5.161   3.034   4.686
20989SOL     OW64973   6.800   1.225   1.361
20989SOL    HW164974   6.765  12.344   1.321
20989SOL    HW264975  17.924   1.252   1.398
20990SOL     OW64976  10.893   3.264   5.582
20990SOL    HW164977  -0.191  -7.859  -5.444
20990SOL    HW264978  10.917   3.293   5.670
20991SOL     OW64979   6.503   3.291   0.974
20991SOL    HW164980  -4.456  14.320   1.026
20991SOL    HW264981 -15.598   3.383   0.982
20992SOL     OW64982   3.047   7.562   8.692
20992SOL    HW164983   3.127   7.524   8.728
20992SOL    HW264984 -19.020   7.557   8.597
20993SOL     OW64985   3.909   9.299   1.110
20993SOL    HW164986  14.907   9.251   1.182
20993SOL    HW264987   3.888  20.288  12.071
20994SOL     OW64988   8.108   0.648   6.298
20994SOL    HW164989   8.103 -10.415   6.391
20994SOL    HW264990   8.147   0.571   6.256
20995SOL     OW64991   6.922   6.131   4.812
20995SOL    HW164992  18.013  17.225   4.872
20995SOL    HW264993  51.061 -26.931   4.738
20996SOL     OW64994   3.463   0.428   6.259
20996SOL    HW164995  -7.595   0.364   6.190
20996SOL    HW264996  25.466  11.463 -15.762
20997SOL     OW64997   2.584   4.861  10.760
20997SOL    HW164998  13.684  -6.114 -11.355
20997SOL    HW264999   2.637   4.811  -0.217
20998SOL     OW65000   2.334  -0.298   3.673
20998SOL    HW165001  13.439  21.724 -18.367
20998SOL    HW265002   2.379  -0.214  14.702
20999SOL     OW65003   8.338   9.701   9.466
20999SOL    HW165004   8.250   9.697   9.504
20999SOL    HW265005   8.365  -1.248  20.517
21000SOL     OW65006   8.909  10.518   0.768
21000SOL    HW165007   8.882  10.426   0.766
21000SOL    HW265008  -2.168  10.552 -10.190
21001SOL     OW65009  10.473   4.302   7.024
21001SOL    HW165010  10.558   4.324   6.985
21001SOL    HW265011  10.487 -17.862   7.067
21002SOL     OW65012   1.891   9.643   6.610
21002SOL    HW165013   1.895  20.598  17.695
21002SOL    HW265014   1.973   9.648   6.562
21003SOL     OW65015   7.332   0.917   9.199
21003SOL    HW165016   7.355   0.845   9.139
21003SOL    HW265017   7.377   0.895   9.280
21004SOL     OW65018   1.478   4.701   3.586
21004SOL    HW165019   1.572   4.721   3.585
21004SOL    HW265020   1.445  -6.294   3.664
21005SOL     OW65021   0.101   1.947   3.877
21005SOL    HW165022   0.120   1.875  14.978
21005SOL    HW265023   0.069   1.903   3.798
21006SOL     OW65024   6.492   8.211   7.977
21006SOL    HW165025   6.499   8.212  19.112
21006SOL    HW265026   6.555   8.276   7.948
21007SOL     OW65027   1.066   7.931  10.781
21007SOL    HW165028  12.060 -25.119  10.830
21007SOL    HW265029   1.103   7.976  10.706
21008SOL     OW65030  10.705  10.654   2.804
21008SOL    HW165031  10.685  10.561   2.819
21008SOL    HW265032  10.798  10.662   2.824
21009SOL     OW65033   6.425   2.124   3.091
21009SOL    HW165034   6.491   2.149  -8.013
21009SOL    HW265035   6.400   2.035   3.067
21010SOL     OW65036   5.127   5.267  10.917
21010SOL    HW165037   5.079  -5.797  10.996
21010SOL    HW265038   5.060  27.384  10.859
21011SOL     OW65039   5.102   5.734   4.011
21011SOL    HW165040  16.188   5.787   4.075
21011SOL    HW265041  16.065   5.787   3.987
21012SOL     OW65042   3.295   8.664   1.544
21012SOL    HW165043   3.359   8.597 -20.511
21012SOL    HW265044   3.222   8.614   1.506
21013SOL     OW65045   8.545   7.024   3.147
21013SOL    HW165046   8.618   7.037   3.209
21013SOL    HW265047   8.471   7.002  14.242
21014SOL     OW65048  10.577   6.840  -0.550
21014SOL    HW165049  10.500   6.813  -0.501
21014SOL    HW265050  10.553   6.925  10.453
21015SOL     OW65051  11.474   4.864   8.080
21015SOL    HW165052 -10.587   4.890   7.990
21015SOL    HW265053   0.461   4.772   8.084
21016SOL     OW65054   9.147   1.987   2.366
21016SOL    HW165055   9.118   1.975  13.495
21016SOL    HW265056   9.209  -8.979  13.410
21017SOL     OW65057   9.997   6.229   6.031
21017SOL    HW165058   9.964  17.334   6.093
21017SOL    HW265059  10.036   6.161  17.126
21018SOL     OW65060   7.123   5.841   1.337
21018SOL    HW165061   7.117   5.910   1.404
21018SOL    HW265062   7.214  16.885   1.308
21019SOL     OW65063   3.354   7.121   9.809
21019SOL    HW165064   3.286   7.054   9.808
21019SOL    HW265065   3.384  18.165  31.797
21020SOL     OW65066   0.358   6.903   8.767
21020SOL    HW165067   0.433  29.012  19.858
21020SOL    HW265068   0.371   6.809   8.757
21021SOL     OW65069   0.742   1.406   7.872
21021SOL    HW165070   0.674  12.482  18.969
21021SOL    HW265071   0.709   1.320   7.848
21022SOL     OW65072  10.471   7.533   5.206
21022SOL    HW165073  10.436   7.565   5.289
21022SOL    HW265074 -11.536   7.475   5.232
21023SOL     OW65075  10.364   8.820   7.268
21023SOL    HW165076  10.320   8.901   7.293
21023SOL    HW265077  10.400  19.878  -3.859
21024SOL     OW65078   6.935   8.427   2.779
21024SOL    HW165079   6.853   8.384   2.801
21024SOL    HW265080   7.003   8.367   2.809
21025SOL     OW65081   5.762   6.640   5.124
21025SOL    HW165082  16.820  28.812   5.141
21025SOL    HW265083   5.843   6.607  16.124
21026SOL     OW65084   4.971  10.717   4.971
21026SOL    HW165085   4.964  10.723   5.066
21026SOL    HW265086  -6.090  10.626   4.951
21027SOL     OW65087   6.355   6.410  10.342
21027SOL    HW165088  -4.763   6.413  10.396
21027SOL    HW265089  -4.662   6.502  10.325
21028SOL     OW65090   5.969   7.776   1.419
21028SOL    HW165091  28.087   7.847   1.368
21028SOL    HW265092   6.043  -3.319   1.444
21029SOL     OW65093   7.508   7.696   9.542
21029SOL    HW165094   7.436   7.724   9.485
21029SOL    HW265095  18.626   7.708   9.490
21030SOL     OW65096   9.918   9.874   5.587
21030SOL    HW165097   9.933   9.968   5.598
21030SOL    HW265098  10.005  -1.203  16.621
21031SOL     OW65099  10.869   9.985   4.888
21031SOL    HW165100  10.891   9.998 -17.099
21031SOL    HW265101  -0.214  10.067   4.862
21032SOL     OW65102   5.024   4.608  10.387
21032SOL    HW165103   4.983   4.557  10.456
21032SOL    HW265104   5.108   4.636  10.424
21033SOL     OW65105   4.241   7.668   6.599
21033SOL    HW165106   4.271  -3.401   6.512
21033SOL    HW265107   4.152   7.700   6.584
21034SOL     OW65108   6.231   9.678   5.108
21034SOL    HW165109  -4.796  -1.369   5.202
21034SOL    HW265110   6.137   9.698  16.137
21035SOL     OW65111   1.528   3.512   0.049
21035SOL    HW165112  12.590   3.605   0.041
21035SOL    HW265113  -9.583   3.510  33.232
21036SOL     OW65114   2.700   2.078   5.281
21036SOL    HW165115  35.891   2.055   5.340
21036SOL    HW265116  13.776   2.148   5.226
21037SOL     OW65117   4.781  -0.479   6.438
21037SOL    HW165118   4.775  10.484   6.380
21037SOL    HW265119 -28.423  10.602   6.431
21038SOL     OW65120   8.258   6.812   5.075
21038SOL    HW165121  19.348  17.831  -6.044
21038SOL    HW265122   8.313   6.780  -5.893
21039SOL     OW65123  -1.175   6.501   3.396
21039SOL    HW165124  20.892   6.499  -7.548
21039SOL    HW265125  -1.171   6.594   3.374
21040SOL     OW65126  -0.566   9.309   1.365
21040SOL    HW165127  32.508  -1.646   1.376
21040SOL    HW265128  -0.637   9.245   1.356
21041SOL     OW65129   5.784   6.425   9.352
21041SOL    HW165130  -5.307   6.436   9.432
21041SOL    HW265131   5.828   6.510   9.341
21042SOL     OW65132  -1.184   0.272   0.833
21042SOL    HW165133  20.852   0.358   0.833
21042SOL    HW265134  -1.185   0.246   0.741
21043SOL     OW65135   8.259  10.007   6.797
21043SOL    HW165136   8.181  -0.987  -4.212
21043SOL    HW265137   8.328  10.074   6.799
21044SOL     OW65138   5.002   7.365   0.930
21044SOL    HW165139  -6.096   7.393   0.859
21044SOL    HW265140 -16.990  18.403   0.890
21045SOL     OW65141   2.251   2.218   8.205
21045SOL    HW165142   2.305   2.226   8.126
21045SOL    HW265143   2.185   2.152  19.221
21046SOL     OW65144   6.860   8.813   2.878
21046SOL    HW165145  17.973  30.953  24.965
21046SOL    HW265146   6.900   8.728   2.861
21047SOL     OW65147  12.338   0.191   2.681
21047SOL    HW165148  -9.786 -10.932   2.694
21047SOL    HW265149   1.386  11.217   2.718
21048SOL     OW65150  10.821   2.936   1.777
21048SOL    HW165151  10.889   2.953   1.842
21048SOL    HW265152  10.823   3.013   1.720
21049SOL     OW65153   8.439   8.488   4.368
21049SOL    HW165154   8.360  19.538   4.315
21049SOL    HW265155   8.506   8.535   4.319
21050SOL     OW65156   5.587  10.659   0.925
21050SOL    HW165157  -5.391  10.647  12.036
21050SOL    HW265158   5.593  10.579 -10.167
21051SOL     OW65159   1.272   3.121   5.707
21051SOL    HW165160  12.275   3.098   5.793
21051SOL    HW265161   1.221   3.070  16.684
21052SOL     OW65162   1.789   4.985   2.298
21052SOL    HW165163  -9.155 -17.093  -8.751
21052SOL    HW265164  12.802   5.076   2.282
21053SOL     OW65165   5.548   6.487   5.925
21053SOL    HW165166  16.495 -26.657  -5.110
21053SOL    HW265167  16.605   6.527   6.010
21054SOL     OW65168   6.484   9.906   1.079
21054SOL    HW165169   6.519   9.843   1.141
21054SOL    HW265170   6.553   9.970   1.067
21055SOL     OW65171   9.842   6.207   9.516
21055SOL    HW165172   9.817   6.242   9.430
21055SOL    HW265173   9.808   6.118   9.516
21056SOL     OW65174   2.605   7.380   6.670
21056SOL    HW165175 -19.543   7.436   6.707
21056SOL    HW265176   2.601  -3.739  17.761
21057SOL     OW65177   8.306   3.213   2.061
21057SOL    HW165178   8.300  -7.903   2.118
21057SOL    HW265179   8.215  14.278   2.045
21058SOL     OW65180   2.957   8.392  11.571
21058SOL    HW165181   2.912  -2.731   0.523
21058SOL    HW265182   2.967   8.423  11.481
21059SOL     OW65183   9.955   5.244   5.240
21059SOL    HW165184  20.908   5.283   5.227
21059SOL    HW265185   9.992  -5.801  -5.888
21060SOL     OW65186   1.967   0.147   2.374
21060SOL    HW165187   2.042  11.155   2.424
21060SOL    HW265188   1.946 -10.963   2.314
21061SOL     OW65189  10.073   0.627   9.027
21061SOL    HW165190 -11.926   0.678   9.016
21061SOL    HW265191  10.010   0.690   9.063
21062SOL     OW65192   7.566   8.543   1.804
21062SOL    HW165193   7.589  30.706  -9.196
21062SOL    HW265194   7.644  30.568   1.817
21063SOL     OW65195   7.866  10.345  12.030
21063SOL    HW165196   7.782  10.299   0.991
21063SOL    HW265197   7.842  10.438   0.986
21064SOL     OW65198   2.844   2.198   1.018
21064SOL    HW165199 -19.141   2.184   1.029
21064SOL    HW265200   2.822   2.155   0.935
21065SOL     OW65201   8.854   3.835   4.314
21065SOL    HW165202  19.852 -18.163   4.282
21065SOL    HW265203   8.947  -7.191   4.297
21066SOL     OW65204   1.012  11.082   7.652
21066SOL    HW165205   1.007  11.141   7.577
21066SOL    HW265206   1.095   0.063  40.813
21067SOL     OW65207   5.731   3.958   4.612
21067SOL    HW165208  16.830   3.892   4.576
21067SOL    HW265209 -16.291  26.111   4.632
21068SOL     OW65210   5.885  -0.316  10.315
21068SOL    HW165211 -16.162  21.801  10.234
21068SOL    HW265212   5.852 -11.281  10.366
21069SOL     OW65213  11.302  10.927   2.292
21069SOL    HW165214  11.300  10.893   2.202
21069SOL    HW265215 -21.766  10.862   2.341
21070SOL     OW65216   2.993  10.519   5.759
21070SOL    HW165217  13.976  10.443   5.748
21070SOL    HW265218   3.028  10.510   5.848
21071SOL     OW65219   8.182   4.539   2.651
21071SOL    HW165220 -13.952  15.509  24.765
21071SOL    HW265221   8.265   4.531   2.699
21072SOL     OW65222   3.872   3.813   8.119
21072SOL    HW165223  14.913   3.826   8.024
21072SOL    HW265224   3.797   3.756   8.134
21073SOL     OW65225  10.211   6.261   2.746
21073SOL    HW165226  10.238   6.170   2.754
21073SOL    HW265227  -0.896   6.273  13.852
21074SOL     OW65228   7.030  11.489   6.839
21074SOL    HW165229   6.955  11.545   6.817
21074SOL    HW265230  18.092 -10.633   6.757
21075SOL     OW65231   4.696   4.108   5.996
21075SOL    HW165232  15.782  -6.989   6.057
21075SOL    HW265233   4.611  -6.973   5.984
21076SOL     OW65234   4.313   2.008   3.472
21076SOL    HW165235  -6.675   2.029   3.393
21076SOL    HW265236  -6.683   2.057   3.542
21077SOL     OW65237   9.851   4.456  10.761
21077SOL    HW165238  20.827   4.432  10.829
21077SOL    HW265239   9.910  15.421  -0.284
21078SOL     OW65240   7.211   9.920   3.673
21078SOL    HW165241  -3.831   9.842   3.619
21078SOL    HW265242   7.178   9.990   3.617
21079SOL     OW65243   1.190  11.310   5.203
21079SOL    HW165244   1.162  11.381   5.144
21079SOL    HW265245   1.122   0.204   5.194
21080SOL     OW65246   2.586   2.596   0.069
21080SOL    HW165247   2.576   2.573   0.161
21080SOL    HW265248   2.497 -19.483  22.114
21081SOL     OW65249   1.776   2.925   6.886
21081SOL    HW165250   1.823   2.885   6.813
21081SOL    HW265251   1.702  25.049  28.925
21082SOL     OW65252   8.863   6.479  10.055
21082SOL    HW165253  19.994   6.495  10.076
21082SOL    HW265254   8.841   6.545  21.029
21083SOL     OW65255   0.612  10.359   6.438
21083SOL    HW165256   0.683  10.340   6.500
21083SOL    HW265257  11.582  10.298   6.461
21084SOL     OW65258   8.863   2.644   0.686
21084SOL    HW165259   8.947   2.620   0.648
21084SOL    HW265260  30.924   2.575   0.751
21085SOL     OW65261   5.867   4.855   0.516
21085SOL    HW165262  27.972   4.795  11.486
21085SOL    HW265263   5.946   4.905   0.535
21086SOL     OW65264   6.229   7.863   0.717
21086SOL    HW165265   6.281   7.786   0.693
21086SOL    HW265266   6.242  18.963   0.644
21087SOL     OW65267   7.307   1.395  10.305
21087SOL    HW165268   7.219  -9.648  10.266
21087SOL    HW265269 -14.713   1.390  -0.810
21088SOL     OW65270   4.373   4.167   9.670
21088SOL    HW165271   4.453   4.121   9.647
21088SOL    HW265272   4.378  15.219   9.765
21089SOL     OW65273   7.319   9.773   4.049
21089SOL    HW165274  18.401   9.816 -40.183
21089SOL    HW265275   7.387   9.769  -6.923
21090SOL     OW65276   0.976   1.906   3.212
21090SOL    HW165277   1.052   1.877  14.201
21090SOL    HW265278   0.978   2.001   3.206
21091SOL     OW65279  10.956   1.687   3.184
21091SOL    HW165280  10.978   1.671   3.092
21091SOL    HW265281  11.001  12.808  36.324
21092SOL     OW65282  10.273  10.706   6.473
21092SOL    HW165283  10.316  10.732   6.554
21092SOL    HW265284  10.187  10.675   6.500
21093SOL     OW65285   6.098   7.942  -1.139
21093SOL    HW165286   6.175   7.925   9.846
21093SOL    HW265287   6.035   7.983  31.921
21094SOL     OW65288   4.333   2.663   8.186
21094SOL    HW165289   4.283   2.603   8.131
21094SOL    HW265290  15.309   2.730   8.212
21095SOL     OW65291   5.406   2.115  -0.780
21095SOL    HW165292   5.418   2.174  21.225
21095SOL    HW265293  16.426   2.172  10.333
21096SOL     OW65294   0.703   6.047   2.474
21096SOL    HW165295   0.666   5.959   2.478
21096SOL    HW265296   0.723  -4.979  -8.658
21097SOL     OW65297   8.239   3.595   6.922
21097SOL    HW165298   8.306   3.593  -4.186
21097SOL    HW265299   8.156   3.589   6.875
21098SOL     OW65300   7.579   0.921   8.625
21098SOL    HW165301   7.592   0.926   8.720
21098SOL    HW265302   7.667   0.934   8.588
21099SOL     OW65303   9.263   5.492   9.243
21099SOL    HW165304   9.273   5.543   9.323
21099SOL    HW265305  20.385   5.506  31.274
21100SOL     OW65306   5.455   1.898   4.359
21100SOL    HW165307   5.381   1.879  15.457
21100SOL    HW265308   5.442   1.841   4.284
21101SOL     OW65309   8.992   8.040   0.017
21101SOL    HW165310   8.951   8.056  22.010
21101SOL    HW265311   8.977   8.122   0.065
21102SOL     OW65312   2.334   3.886   8.993
21102SOL    HW165313   2.392  25.962  20.109
21102SOL    HW265314 -19.831   3.861   9.027
21103SOL     OW65315  10.447   3.700   2.154
21103SOL    HW165316  10.412  25.834   2.084
21103SOL    HW265317  10.540   3.723 -19.921
21104SOL     OW65318   9.622   2.264   1.455
21104SOL    HW165319   9.621   2.322  23.458
21104SOL    HW265320  -1.344   2.296   1.508
21105SOL     OW65321   6.783   2.288   9.356
21105SOL    HW165322  17.837   2.206   9.308
21105SOL    HW265323  -4.197   2.282   9.431
21106SOL     OW65324   1.690   4.313  10.286
21106SOL    HW165325   1.599   4.292  10.305
21106SOL    HW265326   1.690   4.335  10.193
21107SOL     OW65327   4.883   7.180   3.538
21107SOL    HW165328   4.791   7.159 -40.633
21107SOL    HW265329  15.955   7.112  -7.443
21108SOL     OW65330  10.509   2.981   8.119
21108SOL    HW165331  -0.511   2.985   8.213
21108SOL    HW265332 -11.514   2.911 -13.994
21109SOL     OW65333   3.243   2.122   1.230
21109SOL    HW165334  14.336   2.093   1.156
21109SOL    HW265335   3.306   2.140   1.299
21110SOL     OW65336   6.036   9.406   6.296
21110SOL    HW165337   6.129  -1.623   6.274
21110SOL    HW265338   5.997   9.491   6.275
21111SOL     OW65339   5.904   3.370   5.595
21111SOL    HW165340   5.885   3.395   5.686
21111SOL    HW265341   5.870  14.482   5.543
21112SOL     OW65342   4.549   0.010   1.016
21112SOL    HW165343  26.641   0.084   0.958
21112SOL    HW265344  15.577   0.049   1.103
21113SOL     OW65345  10.959   0.646   1.821
21113SOL    HW165346  11.007   0.603   1.750
21113SOL    HW265347  10.868   0.645   1.792
21114SOL     OW65348   8.053   2.509   8.367
21114SOL    HW165349   7.963  -8.505   8.344
21114SOL    HW265350   8.056 -30.704  30.430
21115SOL     OW65351   4.917   3.750   4.131
21115SOL    HW165352   4.983  -7.331  -6.853
21115SOL    HW265353   4.963   3.823   4.089
21116SOL     OW65354   7.061   4.262   4.477
21116SOL    HW165355  -4.048   4.298  15.461
21116SOL    HW265356 -14.996   4.334  15.576
21117SOL     OW65357   3.234  11.548  -1.355
21117SOL    HW165358  14.271   0.587  31.708
21117SOL    HW265359   3.192  11.576  -1.274
21118SOL     OW65360   0.474   0.543   5.319
21118SOL    HW165361  22.497  11.646   5.273
21118SOL    HW265362   0.551   0.593  38.463
21119SOL     OW65363   1.925   4.012   6.792
21119SOL    HW165364   1.908  26.141   6.712
21119SOL    HW265365  23.946   4.052   6.857
21120SOL     OW65366   8.862   3.332   5.309
21120SOL    HW165367   8.814   3.252   5.331
21120SOL    HW265368   8.951   3.315   5.339
21121SOL     OW65369   3.741   6.967   8.345
21121SOL    HW165370   3.719  29.032   8.437
21121SOL    HW265371  36.874 -15.018   8.339
21122SOL     OW65372   2.364   1.115   0.086
21122SOL    HW165373   2.431   1.181   0.066
21122SOL    HW265374  35.451   1.139   0.173
21123SOL     OW65375   5.188   2.171  10.742
21123SOL    HW165376   5.150   2.252  10.708
21123SOL    HW265377  -5.915   2.103  10.718
21124SOL     OW65378   3.260   9.859   7.686
21124SOL    HW165379   3.340   9.897   7.650
21124SOL    HW265380   3.191   9.885  -3.414
21125SOL     OW65381   7.912   7.635   3.798
21125SOL    HW165382   7.983   7.612   3.858
21125SOL    HW265383   7.851  -3.478   3.802
21126SOL     OW65384   1.477   3.197   4.575
21126SOL    HW165385   1.406   3.255   4.549
21126SOL    HW265386   1.435  -7.910 -17.450
21127SOL     OW65387   8.366   4.287   8.670
21127SOL    HW165388   8.458   4.285  19.738
21127SOL    HW265389 -13.762   4.306   8.750
21128SOL     OW65390  -1.189   4.653   1.678
21128SOL    HW165391  -1.190  26.769  12.630
21128SOL    HW265392  20.942  15.612   1.669
21129SOL     OW65393   7.646   4.118   7.007
21129SOL    HW165394  29.664   4.048 -15.049
21129SOL    HW265395   7.679   4.150  18.131
21130SOL     OW65396   3.428   7.060   6.813
21130SOL    HW165397   3.428  18.038   6.885
21130SOL    HW265398   3.341   7.099  17.854
21131SOL     OW65399   0.719   4.524   7.643
21131SOL    HW165400  11.678   4.474  18.695
21131SOL    HW265401   0.700   4.582  18.609
21132SOL     OW65402   7.737   3.181   7.469
21132SOL    HW165403  18.701  36.326 -14.557
21132SOL    HW265404  29.878  25.332  -3.561
21133SOL     OW65405   3.540   3.865   9.072
21133SOL    HW165406   3.604   3.794   9.082
21133SOL    HW265407   3.588  26.013  20.065
21134SOL     OW65408   2.571  10.348   1.679
21134SOL    HW165409  -8.375  10.330  23.754
21134SOL    HW265410   2.553  10.363 -20.307
21135SOL     OW65411   2.516   4.454   6.126
21135SOL    HW165412   2.562   4.528   6.087
21135SOL    HW265413  13.623   4.388   6.139
21136SOL     OW65414   2.408   3.450   9.699
21136SOL    HW165415   2.446  14.577   9.692
21136SOL    HW265416   2.407   3.418  -1.431
21137SOL     OW65417   2.190  10.790   0.364
21137SOL    HW165418   2.226  10.879   0.371
21137SOL    HW265419  13.296  -0.305  22.484
21138SOL     OW65420   2.620  10.385   1.275
21138SOL    HW165421   2.553  10.415   1.335
21138SOL    HW265422   2.697 -11.709   1.330
21139SOL     OW65423   3.569   9.606   1.754
21139SOL    HW165424  25.700   9.629   1.677
21139SOL    HW265425  25.565  20.692  12.782
21140SOL     OW65426   6.452  11.603   5.323
21140SOL    HW165427  50.617  11.698  16.356
21140SOL    HW265428   6.372   0.541   5.276
21141SOL     OW65429   0.639  10.771   7.351
21141SOL    HW165430   0.642  10.866   7.363
21141SOL    HW265431 -10.435  10.760  -3.777
21142SOL     OW65432   2.593   0.732   6.716
21142SOL    HW165433   2.630 -10.333  17.841
21142SOL    HW265434  -8.427   0.658   6.659
21143SOL     OW65435   5.409   1.549   7.889
21143SOL    HW165436  49.478  12.557   7.898
21143SOL    HW265437   5.456  12.516 -14.232
21144SOL     OW65438   3.754   3.671   1.848
21144SOL    HW165439   3.697   3.742   1.820
21144SOL    HW265440  25.778  -7.424  12.942
21145SOL     OW65441   0.831   6.970   6.100
21145SOL    HW165442  33.860   7.001   6.112
21145SOL    HW265443  33.962   6.905   6.169
21146SOL     OW65444   0.408   0.483   7.212
21146SOL    HW165445   0.468   0.442   7.274
21146SOL    HW265446   0.410   0.576   7.235
21147SOL     OW65447   4.489   3.253   1.487
21147SOL    HW165448 -17.590  -7.698   1.523
21147SOL    HW265449   4.571   3.247 -20.641
21148SOL     OW65450   8.925   4.053  10.016
21148SOL    HW165451   8.989  -7.026   9.956
21148SOL    HW265452   8.974   4.072  10.095
21149SOL     OW65453   5.307   0.842   7.363
21149SOL    HW165454   5.367   0.787  -3.728
21149SOL    HW265455  -5.700   0.835  -3.587
21150SOL     OW65456   1.317   4.393   0.737
21150SOL    HW165457   1.324   4.411 -10.209
21150SOL    HW265458   1.408   4.397   0.705
21151SOL     OW65459   3.924   8.239   1.327
21151SOL    HW165460   3.982   8.283   1.266
21151SOL    HW265461  15.005 -13.829   1.413
21152SOL     OW65462   1.234   8.489   5.478
21152SOL    HW165463   1.167   8.498   5.410
21152SOL    HW265464  34.332  19.597   5.541
21153SOL     OW65465   2.986   6.545   9.127
21153SOL    HW165466   2.933   6.617  31.241
21153SOL    HW265467   3.075   6.579   9.125
21154SOL     OW65468   8.833   5.960   7.046
21154SOL    HW165469   8.850 -16.092 -25.983
21154SOL    HW265470   8.866  -5.169   7.040
21155SOL     OW65471   3.962  10.653   7.833
21155SOL    HW165472   3.959  10.625   7.742
21155SOL    HW265473   3.885  10.709   7.844
21156SOL     OW65474   0.365   2.247  12.524
21156SOL    HW165475  11.453   2.328   1.499
21156SOL    HW265476   0.401   2.185  -9.492
21157SOL     OW65477   3.104   0.853   4.133
21157SOL    HW165478   3.192   0.890   4.122
21157SOL    HW265479   3.114   0.761  -6.930
21158SOL     OW65480   6.031   1.594   1.386
21158SOL    HW165481   5.969   1.568   1.319
21158SOL    HW265482   6.043   1.688   1.372
21159SOL     OW65483   6.937   6.800   0.450
21159SOL    HW165484  29.099  -4.279   0.424
21159SOL    HW265485   6.943  17.847   0.545
21160SOL     OW65486   7.531   2.225   5.445
21160SOL    HW165487   7.566   2.313   5.459
21160SOL    HW265488   7.467   2.236   5.375
21161SOL     OW65489   3.846   8.961   1.750
21161SOL    HW165490 -18.153  -2.080   1.698
21161SOL    HW265491  -7.172 -13.167   1.829
21162SOL     OW65492   6.110  10.930   5.634
21162SOL    HW165493   6.042  10.874  27.749
21162SOL    HW265494   6.185  10.919   5.693
21163SOL     OW65495   6.116   3.245   3.816
21163SOL    HW165496   6.136   3.233   3.909
21163SOL    HW265497   6.185   3.303   3.784
21164SOL     OW65498   1.028   2.793   4.143
21164SOL    HW165499  12.131   2.852  15.142
21164SOL    HW265500   0.946   2.812   4.099
21165SOL     OW65501   5.015   0.279   6.320
21165SOL    HW165502   5.045   0.289  17.270
21165SOL    HW265503  16.133   0.256  50.528
21166SOL     OW65504   0.198   6.778  -0.329
21166SOL    HW165505   0.196   6.682  -0.334
21166SOL    HW265506   0.239   6.797  10.795
21167SOL     OW65507  -0.694   7.748   6.922
21167SOL    HW165508  10.289  29.887   6.971
21167SOL    HW265509  43.461  18.819   6.832
21168SOL     OW65510   0.993   9.423   6.350
21168SOL    HW165511   1.058  31.567   6.325
21168SOL    HW265512   1.022   9.390   6.435
21169SOL     OW65513   3.766  10.419   4.555
21169SOL    HW165514   3.749  10.374   4.638
21169SOL    HW265515   3.859  10.402  15.577
21170SOL     OW65516   8.627   8.612   9.164
21170SOL    HW165517 -13.373   8.563   9.141
21170SOL    HW265518   8.637   8.696   9.120
21171SOL     OW65519   3.177  -0.569   0.361
21171SOL    HW165520   3.111  10.539   0.367
21171SOL    HW265521 -18.949  -0.646   0.327
21172SOL     OW65522   7.330   2.112   3.498
21172SOL    HW165523   7.267  13.194   3.441
21172SOL    HW265524  -3.761  13.123   3.574
21173SOL     OW65525  10.475   9.671   2.189
21173SOL    HW165526  10.497   9.680   2.096
21173SOL    HW265527  -0.482   9.686   2.235
21174SOL     OW65528   2.087   8.097  10.974
21174SOL    HW165529   2.054  19.226  10.981
21174SOL    HW265530  13.135  19.122  10.879
21175SOL     OW65531   6.133   5.510   2.515
21175SOL    HW165532   6.062   5.455   2.546
21175SOL    HW265533   6.207   5.490 -19.507
21176SOL     OW65534   5.392   1.622   5.609
21176SOL    HW165535   5.392   1.691   5.543
21176SOL    HW265536  16.340   1.596   5.616
21177SOL     OW65537   0.053   5.307   0.783
21177SOL    HW165538   0.037   5.228  11.771
21177SOL    HW265539   0.104   5.277   0.858
21178SOL     OW65540   1.514  10.782   2.852
21178SOL    HW165541  12.473  10.767   2.903
21178SOL    HW265542   1.577  10.721  -8.150
21179SOL     OW65543   9.338  -0.712   7.217
21179SOL    HW165544  -1.637  -0.720   7.147
21179SOL    HW265545   9.389  21.393   7.294
21180SOL     OW65546   3.255   1.346   3.967
21180SOL    HW165547  25.280  12.340  15.070
21180SOL    HW265548   3.333  23.450 -29.103
21181SOL     OW65549   2.661   7.440   7.278
21181SOL    HW165550   2.706  29.441   7.310
21181SOL    HW265551  -8.442  18.500   7.346
21182SOL     OW65552   0.978   4.230  10.936
21182SOL    HW165553   0.901   4.181  -0.131
21182SOL    HW265554   1.033   4.235  10.858
21183SOL     OW65555   6.258  -0.833   9.279
21183SOL    HW165556  17.235  10.192   9.351
21183SOL    HW265557   6.215  10.169   9.202
21184SOL     OW65558  11.132   8.998   4.975
21184SOL    HW165559   0.176  20.002  -6.034
21184SOL    HW265560  11.146   9.093   4.972
21185SOL     OW65561   1.459   4.759   7.707
21185SOL    HW165562   1.492   4.684   7.755
21185SOL    HW265563  23.538   4.831  18.810
21186SOL     OW65564   4.537  -0.539   5.328
21186SOL    HW165565   4.568  21.535   5.419
21186SOL    HW265566  26.696  -0.547   5.276
21187SOL     OW65567   4.595   3.774   0.313
21187SOL    HW165568  -6.351  -7.243   0.316
21187SOL    HW265569   4.591   3.684   0.343
21188SOL     OW65570   0.490   9.774   7.126
21188SOL    HW165571   0.491  20.843   7.217
21188SOL    HW265572   0.555  20.867  18.121
21189SOL     OW65573   8.608   0.370  10.814
21189SOL    HW165574   8.619   0.432  10.742
21189SOL    HW265575   8.610  11.323  10.772
21190SOL     OW65576   5.173   2.270   8.035
21190SOL    HW165577  38.233   2.342   8.058
21190SOL    HW265578   5.186  13.262   8.117
21191SOL     OW65579   3.985   0.865   1.379
21191SOL    HW165580   4.069 -10.207  34.532
21191SOL    HW265581   3.932   0.786   1.368
21192SOL     OW65582   1.309   7.486   7.080
21192SOL    HW165583   1.274  18.462 -37.016
21192SOL    HW265584   1.240   7.497   7.015
21193SOL     OW65585   9.498   7.509   7.515
21193SOL    HW165586 -12.549   7.568   7.446
21193SOL    HW265587   9.540   7.425 -14.583
21194SOL     OW65588   2.798   5.128   6.292
21194SOL    HW165589   2.722  -5.913 -15.728
21194SOL    HW265590  24.906   5.219   6.292
21195SOL     OW65591   9.780   9.704   6.616
21195SOL    HW165592   9.869  -1.300   6.619
21195SOL    HW265593  31.871   9.611   6.593
21196SOL     OW65594  10.671   0.395   6.389
21196SOL    HW165595 -11.447   0.471   6.346
21196SOL    HW265596 -11.390   0.424   6.478
21197SOL     OW65597  10.476   6.848   1.357
21197SOL    HW165598  10.382   6.855  12.380
21197SOL    HW265599  10.485   6.770   1.411
21198SOL     OW65600   9.874   3.410   8.786
21198SOL    HW165601 -12.143   3.376   8.722
21198SOL    HW265602  -1.238   3.444  19.773
21199SOL     OW65603   9.590   7.087   8.964
21199SOL    HW165604   9.526  18.195   8.985
21199SOL    HW265605   9.625   7.112  30.958
21200SOL     OW65606   1.966   3.608   4.920
21200SOL    HW165607   1.987   3.658  -6.040
21200SOL    HW265608   1.962   3.517  -6.090
21201SOL     OW65609  10.085   2.877   3.118
21201SOL    HW165610  10.106   2.950   3.060
21201SOL    HW265611  10.032  -8.124   3.187
21202SOL     OW65612   6.569   0.712   3.883
21202SOL    HW165613   6.628   0.757   3.943
21202SOL    HW265614   6.487   0.761   3.887
21203SOL     OW65615   6.633   8.189   6.548
21203SOL    HW165616   6.609 -13.809  -4.446
21203SOL    HW265617   6.715   8.162  28.668
21204SOL     OW65618  -0.782   7.729   6.268
21204SOL    HW165619  32.339   7.746   6.362
21204SOL    HW265620  21.347   7.801  28.308
21205SOL     OW65621   9.231   6.648   5.049
21205SOL    HW165622   9.217   6.588   5.122
21205SOL    HW265623   9.144   6.678   5.024
21206SOL     OW65624   3.601  11.010   0.228
21206SOL    HW165625   3.599 -11.048  11.174
21206SOL    HW265626  25.674  -0.125   0.232
21207SOL     OW65627   5.987  10.840   7.231
21207SOL    HW165628   6.049  10.854   7.160
21207SOL    HW265629  16.986  10.756   7.212
21208SOL     OW65630   1.546   9.163   1.936
21208SOL    HW165631  12.565   9.144   2.028
21208SOL    HW265632  23.639  20.116  -9.143
21209SOL     OW65633  10.364  10.794   1.461
21209SOL    HW165634 -22.727  10.885   1.468
21209SOL    HW265635  10.276  10.792   1.499
21210SOL     OW65636   9.642   4.497   1.002
21210SOL    HW165637  20.731   4.561   0.951
21210SOL    HW265638   9.699  15.461   1.008
21211SOL     OW65639   3.922   5.925   5.889
21211SOL    HW165640   3.895   5.957   5.802
21211SOL    HW265641   3.879   5.985   5.950
21212SOL     OW65642   1.504   7.287   4.531
21212SOL    HW165643  -9.628  -3.777   4.527
21212SOL    HW265644  -9.501   7.266   4.444
21213SOL     OW65645   7.362   8.042  10.183
21213SOL    HW165646   7.421   7.968  10.203
21213SOL    HW265647  -3.653   8.069  10.095
21214SOL     OW65648   8.973   7.743  10.155
21214SOL    HW165649   9.041   7.791  10.201
21214SOL    HW265650   9.019  18.711  10.111
21215SOL     OW65651   3.699   8.131   2.276
21215SOL    HW165652   3.707   8.085   2.192
21215SOL    HW265653   3.703  19.263   2.253
21216SOL     OW65654   5.964   4.680   5.051
21216SOL    HW165655  17.026   4.695   4.960
21216SOL    HW265656   6.047  15.718   5.097
21217SOL     OW65657   1.619  10.244   1.499
21217SOL    HW165658   1.642  10.337   1.496
21217SOL    HW265659   1.692  10.199   1.456
21218SOL     OW65660   0.205   2.878   5.840
21218SOL    HW165661  11.158   2.909   5.812
21218SOL    HW265662   0.220   2.799  -5.251
21219SOL     OW65663   9.003   9.067   9.284
21219SOL    HW165664   9.051   8.987   9.263
21219SOL    HW265665  19.955   9.053   9.248
21220SOL     OW65666   9.680   1.076   4.702
21220SOL    HW165667 -23.385  12.195   4.706
21220SOL    HW265668   9.640   1.078   4.616
21221SOL     OW65669   8.085   7.668   2.098
21221SOL    HW165670   8.173   7.705   2.105
21221SOL    HW265671   8.059   7.650 -30.930
21222SOL     OW65672   9.920   8.004   0.191
21222SOL    HW165673   9.938   8.089   0.231
21222SOL    HW265674   9.976  19.041   0.113
21223SOL     OW65675   9.587   3.293   7.777
21223SOL    HW165676   9.664   3.286  -3.206
21223SOL    HW265677   9.623   3.311   7.690
21224SOL     OW65678   1.285   2.872   9.553
21224SOL    HW165679   1.337   2.927   9.494
21224SOL    HW265680   1.197  -8.132   9.548
21225SOL     OW65681   9.839   6.510   3.657
21225SOL    HW165682   9.856   6.462   3.737
21225SOL    HW265683   9.815   6.598   3.686
21226SOL     OW65684   3.666   0.097   4.061
21226SOL    HW165685   3.726   0.103   3.986
21226SOL    HW265686   3.681   0.009   4.097
21227SOL     OW65687  10.685   3.975   2.715
21227SOL    HW165688  -0.386   4.026  13.680
21227SOL    HW265689  -0.314  -7.000   2.773
21228SOL     OW65690  10.332   0.865   6.679
21228SOL    HW165691  10.400   0.869   6.612
21228SOL    HW265692  -0.787   0.896   6.635
21229SOL     OW65693   6.571   8.585   8.988
21229SOL    HW165694   6.652  -2.504   8.984
21229SOL    HW265695   6.546   8.585  31.159
21230SOL     OW65696   4.004   6.471   9.596
21230SOL    HW165697   4.087   6.432   9.569
21230SOL    HW265698   4.028   6.556  20.673
21231SOL     OW65699   4.813   8.706  10.060
21231SOL    HW165700   4.884   8.705  21.036
21231SOL    HW265701   4.796   8.614  10.080
21232SOL     OW65702   8.657   7.771   8.714
21232SOL    HW165703   8.738   7.720   8.720
21232SOL    HW265704   8.591   7.716  30.836
21233SOL     OW65705   6.545  10.195   8.986
21233SOL    HW165706   6.490  10.118   8.974
21233SOL    HW265707   6.520  10.255   8.916
21234SOL     OW65708   3.501  10.392   1.266
21234SOL    HW165709  -7.617  10.372   1.215
21234SOL    HW265710  -7.531  10.320   1.328
21235SOL     OW65711   9.332   6.987  11.083
21235SOL    HW165712   9.421   7.022   0.053
21235SOL    HW265713 -12.795   7.021   0.119
21236SOL     OW65714   0.982   3.681   6.277
21236SOL    HW165715   1.030   3.656 -15.724
21236SOL    HW265716   1.026 -18.443   6.205
21237SOL     OW65717   9.033   4.968   5.909
21237SOL    HW165718   9.089 -17.188  39.017
21237SOL    HW265719   9.022   5.002  16.860
21238SOL     OW65720   3.189   5.818  10.433
21238SOL    HW165721  14.307   5.849 -33.770
21238SOL    HW265722   3.132   5.894  10.438
21239SOL     OW65723   2.592   2.331   4.505
21239SOL    HW165724   2.615   2.269   4.573
21239SOL    HW265725  24.740   2.321   4.439
21240SOL     OW65726   9.587  11.223   3.310
21240SOL    HW165727   9.528  11.197  -7.800
21240SOL    HW265728  20.570   0.229  -7.666
21241SOL     OW65729   5.256   2.460   6.456
21241SOL    HW165730  16.225   2.525   6.458
21241SOL    HW265731  -5.827   2.376 -26.651
21242SOL     OW65732   9.023   3.884  11.230
21242SOL    HW165733   9.088   3.941   0.233
21242SOL    HW265734   8.965   3.858 -10.778
21243SOL     OW65735   8.546   1.111   9.806
21243SOL    HW165736   8.556 -20.886   9.758
21243SOL    HW265737  19.499  12.118   9.780
21244SOL     OW65738   0.484  11.848   6.662
21244SOL    HW165739   0.529 -21.197 -15.459
21244SOL    HW265740   0.553  11.783   6.676
21245SOL     OW65741   8.143   2.307   3.390
21245SOL    HW165742 -24.963 -19.836   3.460
21245SOL    HW265743  -2.842   2.276   3.318
21246SOL     OW65744   8.465   5.752   2.128
21246SOL    HW165745   8.456  16.726   2.059
21246SOL    HW265746 -13.535   5.727   2.176
21247SOL     OW65747   4.404   7.967   8.398
21247SOL    HW165748   4.487   7.964 -13.632
21247SOL    HW265749  -6.627  52.201 -24.778
21248SOL     OW65750   1.924   4.281   0.621
21248SOL    HW165751   1.942   4.310   0.710
21248SOL    HW265752   1.839   4.237   0.627
21249SOL     OW65753   8.703   9.123  10.038
21249SOL    HW165754   8.618 -12.984  21.110
21249SOL    HW265755   8.704   9.218  10.051
21250SOL     OW65756   8.155   9.587   7.205
21250SOL    HW165757   8.074  -1.459  -3.784
21250SOL    HW265758   8.222   9.607   7.271
21251SOL     OW65759   8.467   3.393   3.528
21251SOL    HW165760  19.491   3.338 -18.474
21251SOL    HW265761  19.585  14.483   3.551
21252SOL     OW65762   3.028   8.803   9.544
21252SOL    HW165763   3.112  -2.279   9.526
21252SOL    HW265764   2.963   8.744   9.504
21253SOL     OW65765   6.859   4.540   9.318
21253SOL    HW165766   6.831   4.469   9.259
21253SOL    HW265767   6.895  15.646   9.261
21254SOL     OW65768   4.215   6.928   2.041
21254SOL    HW165769  -6.837   6.940   2.135
21254SOL    HW265770   4.132   6.956  -9.038
21255SOL     OW65771   9.432   1.044   0.633
21255SOL    HW165772   9.370  34.095   0.604
21255SOL    HW265773   9.377   1.120  33.772
21256SOL     OW65774   4.216  10.044   3.060
21256SOL    HW165775 -17.806  10.042  14.023
21256SOL    HW265776 -17.824   9.982   3.121
21257SOL     OW65777   8.915  10.003   2.709
21257SOL    HW165778   8.989  -1.012   2.654
21257SOL    HW265779   8.839  10.010   2.651
21258SOL     OW65780   4.651   0.923   2.735
21258SOL    HW165781   4.626   0.843 -19.298
21258SOL    HW265782  -6.305  11.941   2.693
21259SOL     OW65783   3.871   8.058   3.050
21259SOL    HW165784   3.817   8.049   3.129
21259SOL    HW265785  14.869  -2.912   3.000
21260SOL     OW65786   6.546   3.923   3.916
21260SOL    HW165787   6.616   3.982   3.945
21260SOL    HW265788   6.591   3.859   3.861
21261SOL     OW65789   9.879   2.750  10.384
21261SOL    HW165790   9.894   2.784  10.472
21261SOL    HW265791   9.926   2.811  21.367
21262SOL     OW65792   1.887   4.411   8.642
21262SOL    HW165793  12.835   4.398   8.669
21262SOL    HW265794 -20.157   4.323   8.633
21263SOL     OW65795   2.499   7.896   4.900
21263SOL    HW165796  13.521   7.928   4.811
21263SOL    HW265797   2.423  18.881 -17.158
21264SOL     OW65798   9.069   4.193   7.646
21264SOL    HW165799   9.031  -6.919   7.596
21264SOL    HW265800   9.014   4.268  18.663
21265SOL     OW65801   8.432  11.572   7.952
21265SOL    HW165802   8.347  11.579   7.996
21265SOL    HW265803   8.488 -10.443   7.997
21266SOL     OW65804   8.701   3.925   4.572
21266SOL    HW165805   8.627   3.871 -17.533
21266SOL    HW265806   8.715   3.985   4.498
21267SOL     OW65807   3.661   6.350  10.885
21267SOL    HW165808   3.749  17.407  -0.121
21267SOL    HW265809  -7.384   6.254  10.880
21268SOL     OW65810   4.156   3.566   5.757
21268SOL    HW165811   4.144   3.474  38.854
21268SOL    HW265812   4.244  25.650   5.796
21269SOL     OW65813   9.736   6.689   6.059
21269SOL    HW165814   9.723   6.658 -16.110
21269SOL    HW265815   9.685  -4.411   6.113
21270SOL     OW65816   1.598  11.492   7.410
21270SOL    HW165817   1.632   0.391   7.345
21270SOL    HW265818  -9.372  11.557   7.420
21271SOL     OW65819   2.894  10.189   5.482
21271SOL    HW165820   2.825  21.163   5.469
21271SOL    HW265821  13.893  10.254   5.539
21272SOL     OW65822  11.315   4.946   3.658
21272SOL    HW165823   0.289  27.113   3.694
21272SOL    HW265824  11.297   4.892   3.735
21273SOL     OW65825  10.254   5.708   2.473
21273SOL    HW165826  -0.820   5.797   2.477
21273SOL    HW265827  10.343  -5.322   2.440
21274SOL     OW65828  10.078   1.434   6.367
21274SOL    HW165829   9.989   1.466   6.384
21274SOL    HW265830  10.097  12.415  -4.600
21275SOL     OW65831   8.358   5.845   1.601
21275SOL    HW165832   8.374 -16.220   1.695
21275SOL    HW265833  -2.776   5.848   1.592
21276SOL     OW65834   5.224  10.261   4.917
21276SOL    HW165835   5.209  10.170   4.891
21276SOL    HW265836   5.150  10.282   4.973
21277SOL     OW65837   7.891   5.692   2.783
21277SOL    HW165838  18.886 -16.401   2.700
21277SOL    HW265839   7.945   5.769   2.768
21278SOL     OW65840   7.736   3.010   1.404
21278SOL    HW165841   7.700  -8.013  23.570
21278SOL    HW265842   7.791  -8.108   1.415
21279SOL     OW65843   6.071   3.506   1.733
21279SOL    HW165844 -16.050   3.501   1.819
21279SOL    HW265845   6.102   3.596   1.727
21280SOL     OW65846   6.525   7.932   7.953
21280SOL    HW165847   6.477  -3.025   7.944
21280SOL    HW265848   6.496 -47.319  -3.161
21281SOL     OW65849   8.792   9.798   5.022
21281SOL    HW165850   8.753   9.802   4.934
21281SOL    HW265851   8.868   9.856   5.017
21282SOL     OW65852   3.994   0.123   4.162
21282SOL    HW165853   4.010   0.181   4.088
21282SOL    HW265854  15.008  22.119  -6.918
21283SOL     OW65855   5.285   3.510   8.256
21283SOL    HW165856   5.315  25.582   8.166
21283SOL    HW265857   5.206   3.563 -13.828
21284SOL     OW65858   9.311   9.000   4.939
21284SOL    HW165859   9.277  -2.126   4.917
21284SOL    HW265860  31.315   9.048   4.974
21285SOL     OW65861   0.256   6.686   5.595
21285SOL    HW165862  11.306   6.778   5.573
21285SOL    HW265863 -10.868   6.681   5.640
21286SOL     OW65864   5.620  10.476   8.937
21286SOL    HW165865   5.695  -0.511   8.965
21286SOL    HW265866   5.560  21.519   9.011
21287SOL     OW65867   7.816   9.622  10.441
21287SOL    HW165868   7.749  20.684  10.376
21287SOL    HW265869   7.888   9.585  10.390
21288SOL     OW65870  11.875   0.393   1.547
21288SOL    HW165871   0.781  11.376   1.603
21288SOL    HW265872   0.866   0.335   1.477
21289SOL     OW65873  10.713   2.325   3.968
21289SOL    HW165874  -0.265   2.270 -29.199
21289SOL    HW265875  10.713  13.447   3.919
21290SOL     OW65876   9.984   4.276   4.877
21290SOL    HW165877   9.937  -6.687 -17.234
21290SOL    HW265878  10.066   4.275   4.826
21291SOL     OW65879   8.479   8.742  10.642
21291SOL    HW165880  19.443   8.684  10.658
21291SOL    HW265881  30.630   8.683  10.624
21292SOL     OW65882   0.401   2.113   6.382
21292SOL    HW165883   0.415   2.019  28.450
21292SOL    HW265884   0.481   2.153  17.389
21293SOL     OW65885  -0.117   8.757   2.495
21293SOL    HW165886  21.904  -2.270   2.570
21293SOL    HW265887  -0.151   8.816   2.428
21294SOL     OW65888   2.284   7.845   9.535
21294SOL    HW165889   2.193   7.848   9.507
21294SOL    HW265890   2.333   7.880   9.460
21295SOL     OW65891   4.543   9.143  10.703
21295SOL    HW165892   4.517   9.134  -0.429
21295SOL    HW265893   4.466   9.181  10.745
21296SOL     OW65894   3.925  10.303   4.078
21296SOL    HW165895   4.000  -0.714  -6.906
21296SOL    HW265896   3.941  10.350   3.996
21297SOL     OW65897   9.010   7.194   3.967
21297SOL    HW165898   8.967   7.189   3.882
21297SOL    HW265899   9.034   7.104   3.987
21298SOL     OW65900   9.447   1.415   7.062
21298SOL    HW165901   9.471   1.499   7.021
21298SOL    HW265902 -34.652   1.407   7.137
21299SOL     OW65903   6.926  -0.662   6.723
21299SOL    HW165904   6.988  21.489  17.771
21299SOL    HW265905   6.856  -0.626  17.708
21300SOL     OW65906   3.096   7.428   3.929
21300SOL    HW165907   3.084   7.505   3.983
21300SOL    HW265908  -7.898  29.539   3.851
21301SOL     OW65909   1.942   7.649   6.676
21301SOL    HW165910   1.885   7.726   6.668
21301SOL    HW265911   1.934   7.623  17.807
21302SOL     OW65912   1.463   3.883  11.110
21302SOL    HW165913  34.606  15.010   0.040
21302SOL    HW265914  12.416   3.867  11.072
21303SOL     OW65915   0.218   8.889   3.689
21303SOL    HW165916   0.294   8.923   3.737
21303SOL    HW265917   0.151   8.957  -7.339
21304SOL     OW65918   9.856   7.373   8.202
21304SOL    HW165919  20.901  29.520   8.134
21304SOL    HW265920   9.779 -25.797  30.257
21305SOL     OW65921  10.508  11.772   9.440
21305SOL    HW165922  10.579 -10.329   9.501
21305SOL    HW265923  10.437  11.803   9.496
21306SOL     OW65924  12.310   8.821  11.559
21306SOL    HW165925  12.234  19.850   0.462
21306SOL    HW265926 -20.735   8.830  11.499
21307SOL     OW65927   2.456   4.453   4.197
21307SOL    HW165928   2.415   4.367   4.204
21307SOL    HW265929   2.384   4.514   4.181
21308SOL     OW65930   1.989   9.386   5.913
21308SOL    HW165931   2.012  -1.726   5.972
21308SOL    HW265932  -9.104  -1.694   5.845
21309SOL     OW65933   5.385   3.190   8.170
21309SOL    HW165934   5.399   3.150   8.256
21309SOL    HW265935  16.343   3.150  -2.902
21310SOL     OW65936   2.099   5.598   3.382
21310SOL    HW165937   2.122   5.575   3.292
21310SOL    HW265938   2.134  -5.514  25.514
21311SOL     OW65939   7.788   5.586   8.542
21311SOL    HW165940   7.738   5.637   8.606
21311SOL    HW265941   7.849   5.650  30.584
21312SOL     OW65942   1.190   2.176   7.621
21312SOL    HW165943   1.188   2.251   7.561
21312SOL    HW265944   1.273   2.183   7.666
21313SOL     OW65945   4.356   1.204   2.010
21313SOL    HW165946  -6.721   1.271   2.067
21313SOL    HW265947   4.293   1.132   2.012
21314SOL     OW65948   3.491   9.545   0.679
21314SOL    HW165949  14.600   9.501 -10.311
21314SOL    HW265950   3.524   9.633   0.665
21315SOL     OW65951   7.410   9.116   9.221
21315SOL    HW165952   7.340  31.173   9.161
21315SOL    HW265953   7.367  20.206   9.291
21316SOL     OW65954   6.193  10.141   3.755
21316SOL    HW165955   6.272  10.087   3.747
21316SOL    HW265956   6.199  10.179   3.842
21317SOL     OW65957   0.403   0.745   4.971
21317SOL    HW165958   0.433   0.675   4.913
21317SOL    HW265959   0.484   0.787   5.001
21318SOL     OW65960   6.618   5.792   3.154
21318SOL    HW165961  17.570   5.810  -7.852
21318SOL    HW265962   6.677   5.840   3.212
21319SOL     OW65963   7.976   6.087  10.224
21319SOL    HW165964  19.096   6.036  10.222
21319SOL    HW265965   7.987  28.227  -0.743
21320SOL     OW65966   4.699   7.723   5.542
21320SOL    HW165967   4.683   7.816   5.529
21320SOL    HW265968   4.745  -3.345   5.462
21321SOL     OW65969   9.631   3.987   9.639
21321SOL    HW165970 -12.398   3.907   9.624
21321SOL    HW265971   9.588  26.053   9.723
21322SOL     OW65972   4.204  11.658  10.676
21322SOL    HW165973   4.150  11.602  -0.419
21322SOL    HW265974 -17.789   0.576  10.677
21323SOL     OW65975   5.315   3.543   9.518
21323SOL    HW165976   5.246  25.616   9.584
21323SOL    HW265977  -5.684   3.456   9.519
21324SOL     OW65978   2.746   8.978   1.058
21324SOL    HW165979   2.660  -2.026   1.076
21324SOL    HW265980   2.746   8.892   1.098
21325SOL     OW65981   3.744   5.303   7.283
21325SOL    HW165982   3.731  -5.815   7.336
21325SOL    HW265983   3.839   5.308   7.270
21326SOL     OW65984   7.601   7.556   7.800
21326SOL    HW165985   7.576  18.511   7.762
21326SOL    HW265986   7.696  -3.479   7.788
21327SOL     OW65987   2.107   2.331   5.831
21327SOL    HW165988   2.109   2.360   5.923
21327SOL    HW265989  -8.970   2.243   5.834
21328SOL     OW65990  10.282   2.872   9.038
21328SOL    HW165991  10.312  25.032   9.079
21328SOL    HW265992 -33.801   2.842   8.988
21329SOL     OW65993   2.127   3.167   3.920
21329SOL    HW165994   2.203   3.165   3.861
21329SOL    HW265995  24.176   3.076   3.922
21330SOL     OW65996   3.614   7.047   4.544
21330SOL    HW165997   3.628  -3.898   4.556
21330SOL    HW265998   3.653   7.028   4.459
21331SOL     OW65999   4.712   4.997   0.685
21331SOL    HW166000  15.717   5.043   0.608
21331SOL    HW266001   4.807   5.012   0.680
21332SOL     OW66002   9.171   4.760   4.208
21332SOL    HW166003   9.127   4.820   4.148
21332SOL    HW266004  20.194   4.797   4.295
21333SOL     OW66005   7.189   9.066   4.584
21333SOL    HW166006  -3.927   9.124   4.593
21333SOL    HW266007   7.193  20.087  15.530
21334SOL     OW66008   1.223   2.711   8.051
21334SOL    HW166009   1.304   2.761   8.058
21334SOL    HW266010  -9.885   2.777   8.038
21335SOL     OW66011   9.127   8.538   6.426
21335SOL    HW166012   9.087   8.487  17.536
21335SOL    HW266013   9.219  -2.530  17.465
21336SOL     OW66014   3.190  10.405   5.925
21336SOL    HW166015   3.209  10.326   5.976
21336SOL    HW266016   3.238  10.393   5.843
21337SOL     OW66017   4.775  10.566  10.697
21337SOL    HW166018  37.959  10.604  10.638
21337SOL    HW266019  15.811  10.474  10.672
21338SOL     OW66020   3.762  10.632  10.734
21338SOL    HW166021   3.852  10.661  10.749
21338SOL    HW266022  14.795  10.549  10.783
21339SOL     OW66023   1.038   5.460   0.557
21339SOL    HW166024   1.032   5.373   0.518
21339SOL    HW266025   1.130   5.484   0.546
21340SOL     OW66026   8.837   5.497   2.646
21340SOL    HW166027   8.802  27.663   2.668
21340SOL    HW266028   8.880   5.510   2.562
21341SOL     OW66029   7.077   5.052  10.855
21341SOL    HW166030  18.157   5.073  10.771
21341SOL    HW266031   7.017  16.165 -22.247
21342SOL     OW66032   6.214   3.165   1.790
21342SOL    HW166033   6.251   3.234   1.845
21342SOL    HW266034  -4.795   3.084   1.830
21343SOL     OW66035   4.854   8.380   6.268
21343SOL    HW166036   4.849   8.291   6.304
21343SOL    HW266037  -6.131   8.428 -15.748
21344SOL     OW66038   4.906   0.193  -1.369
21344SOL    HW166039   4.879  33.402   9.688
21344SOL    HW266040   4.836  11.197  20.655
21345SOL     OW66041   1.710   5.670   5.093
21345SOL    HW166042   1.616  16.712   5.111
21345SOL    HW266043  -9.291   5.723   5.163
21346SOL     OW66044  10.037   4.505   2.389
21346SOL    HW166045  -1.000   4.428   2.445
21346SOL    HW266046  10.045   4.579   2.450
21347SOL     OW66047   8.489   4.519   7.401
21347SOL    HW166048  -2.513   4.602  40.546
21347SOL    HW266049   8.431   4.494   7.473
21348SOL     OW66050   3.611   6.005   6.939
21348SOL    HW166051   3.588  28.087   7.032
21348SOL    HW266052  -7.464  16.961   6.909
21349SOL     OW66053   7.132   4.808   3.187
21349SOL    HW166054   7.088   4.887   3.158
21349SOL    HW266055   7.110   4.742   3.121
21350SOL     OW66056   7.225   0.695  10.903
21350SOL    HW166057   7.205  11.648 -11.214
21350SOL    HW266058  18.290 -21.331  -0.211
21351SOL     OW66059   4.786   8.600   8.820
21351SOL    HW166060   4.723  -2.432   8.892
21351SOL    HW266061   4.831   8.517   8.836
21352SOL     OW66062   1.809   8.262   1.903
21352SOL    HW166063 -20.194  -2.723   1.885
21352SOL    HW266064   1.738   8.304  -9.185
21353SOL     OW66065   0.418   8.224   0.509
21353SOL    HW166066  11.402   8.285   0.557
21353SOL    HW266067  22.441   8.149  11.529
21354SOL     OW66068  11.023  -0.675   1.994
21354SOL    HW166069  10.944  -0.704   2.041
21354SOL    HW266070  11.093  21.398  -8.981
21355SOL     OW66071   0.519   8.879   7.397
21355SOL    HW166072   0.513   8.876   7.301
21355SOL    HW266073   0.593  19.975   7.415
21356SOL     OW66074   0.744   4.451   5.377
21356SOL    HW166075   0.765   4.466   5.285
21356SOL    HW266076 -10.210   4.452   5.421
21357SOL     OW66077   0.911   3.474  -0.763
21357SOL    HW166078   0.909  -7.647  10.227
21357SOL    HW266079   0.859  14.575  43.344
21358SOL     OW66080   5.343   8.377   2.236
21358SOL    HW166081   5.296  -2.614   2.303
21358SOL    HW266082   5.293   8.295   2.226
21359SOL     OW66083   0.276   9.802   2.450
21359SOL    HW166084   0.343   9.737  -8.611
21359SOL    HW266085   0.317   9.886   2.431
21360SOL     OW66086   2.727   5.089   0.765
21360SOL    HW166087   2.634   5.082 -10.295
21360SOL    HW266088   2.729   5.113  22.937
21361SOL     OW66089   4.147   9.970   4.202
21361SOL    HW166090   4.170  -1.003   4.137
21361SOL    HW266091  48.374  -1.136   4.194
21362SOL     OW66092   1.979   0.948   7.039
21362SOL    HW166093   2.049   1.003   7.004
21362SOL    HW266094  24.057   0.872  29.060
21363SOL     OW66095  11.004   7.536   8.576
21363SOL    HW166096  11.006   7.627  19.646
21363SOL    HW266097  -0.044   7.485   8.657
21364SOL     OW66098   8.634   0.289   1.582
21364SOL    HW166099   8.710  44.413  12.574
21364SOL    HW266100   8.594  33.470  -9.519
21365SOL     OW66101  -1.097   5.828   2.221
21365SOL    HW166102   9.905   5.768  -8.884
21365SOL    HW266103  20.980  -5.262  -8.737
21366SOL     OW66104  10.716  12.546   1.890
21366SOL    HW166105 -11.376  -9.559   1.798
21366SOL    HW266106  21.709   1.589   1.899
21367SOL     OW66107   9.594   9.549   7.622
21367SOL    HW166108   9.525   9.581  18.603
21367SOL    HW266109 -12.512  20.500  -3.395
21368SOL     OW66110   2.014   5.767   4.423
21368SOL    HW166111   2.026  -5.188  -6.572
21368SOL    HW266112  13.141  -5.312  37.540
21369SOL     OW66113  11.091   8.840  10.160
21369SOL    HW166114  11.053   8.928  10.165
21369SOL    HW266115   0.141 -13.225  10.132
21370SOL     OW66116   7.323   6.533  12.723
21370SOL    HW166117   7.343   6.477  12.799
21370SOL    HW266118   7.350   6.481 -20.471
21371SOL     OW66119   9.536   6.178   1.075
21371SOL    HW166120   9.450   6.215   1.056
21371SOL    HW266121   9.558  17.248  12.202
21372SOL     OW66122   7.327   4.962  12.189
21372SOL    HW166123   7.325   4.900   1.077
21372SOL    HW266124  -3.636   4.938   1.200
21373SOL     OW66125   3.681   0.122   0.517
21373SOL    HW166126  14.637  11.160  11.604
21373SOL    HW266127   3.669   0.189   0.449
21374SOL     OW66128   1.612   4.887   6.865
21374SOL    HW166129   1.518   4.874   6.854
21374SOL    HW266130  -9.415   4.891   6.960
21375SOL     OW66131   6.049   1.909   6.217
21375SOL    HW166132   6.037  -9.123 -37.846
21375SOL    HW266133  -5.010  -9.222   6.198
21376SOL     OW66134   5.892   3.894   4.208
21376SOL    HW166135   5.940   3.929   4.133
21376SOL    HW266136   5.832   3.964 -17.847
21377SOL     OW66137   4.778   8.459   7.592
21377SOL    HW166138   4.869   8.482  29.690
21377SOL    HW266139   4.784 -13.705   7.548
21378SOL     OW66140   9.331   5.172   1.158
21378SOL    HW166141   9.366   5.083  -9.872
21378SOL    HW266142  -1.798   5.159   1.127
21379SOL     OW66143   1.504   8.131   7.460
21379SOL    HW166144  23.522   8.167   7.395
21379SOL    HW266145   1.516   8.201   7.524
21380SOL     OW66146   5.221   0.733   1.489
21380SOL    HW166147  16.287 -10.275   1.402
21380SOL    HW266148   5.281   0.776   1.549
21381SOL     OW66149   0.814   2.253  10.267
21381SOL    HW166150   0.877   2.287  10.203
21381SOL    HW266151   0.812   2.159  10.250
21382SOL     OW66152  10.356   6.373   9.990
21382SOL    HW166153  10.268   6.335   9.988
21382SOL    HW266154  10.359   6.421  10.073
21383SOL     OW66155   1.096   8.082   6.230
21383SOL    HW166156   1.038   8.157   6.245
21383SOL    HW266157   1.157   8.084   6.303
21384SOL     OW66158   5.885   2.745   8.330
21384SOL    HW166159   5.790  13.792   8.328
21384SOL    HW266160 -27.204  13.821   8.246
21385SOL     OW66161   5.465   2.079   2.801
21385SOL    HW166162   5.560  -8.951  -8.241
21385SOL    HW266163   5.432   2.167  -8.256
21386SOL     OW66164   0.834   2.470  -0.372
21386SOL    HW166165   0.928   2.455  10.677
21386SOL    HW266166 -10.244   2.430  -0.294
21387SOL     OW66167   6.849   9.493  11.010
21387SOL    HW166168   6.784   9.538 -33.094
21387SOL    HW266169   6.885  31.641  21.993
21388SOL     OW66170   6.584   7.188  11.158
21388SOL    HW166171   6.490   7.190   0.131
21388SOL    HW266172   6.611  18.140 -10.891
21389SOL     OW66173   1.101   1.378   8.836
21389SOL    HW166174   1.127   1.339   8.752
21389SOL    HW266175  12.095   1.307   8.882
21390SOL     OW66176   8.239  -0.481   5.606
21390SOL    HW166177  -2.802  10.529   5.515
21390SOL    HW266178   8.253  -0.386  16.640
21391SOL     OW66179   3.398   8.995   5.954
21391SOL    HW166180   3.384   9.020 -27.073
21391SOL    HW266181   3.452  20.105   5.918
21392SOL     OW66182   9.937   8.633   8.591
21392SOL    HW166183  -1.160   8.621   8.667
21392SOL    HW266184  10.025  -2.422   8.624
21393SOL     OW66185   6.340   4.027   0.345
21393SOL    HW166186  -4.786   4.049   0.310
21393SOL    HW266187 -15.678   4.059   0.278
21394SOL     OW66188   7.225   6.947   5.378
21394SOL    HW166189   7.211   7.037   5.350
21394SOL    HW266190  -3.882  -4.143   5.333
21395SOL     OW66191   2.441   4.095   6.192
21395SOL    HW166192   2.467   4.004   6.180
21395SOL    HW266193   2.505   4.130   6.254
21396SOL     OW66194   7.725   7.272   5.521
21396SOL    HW166195   7.706   7.232   5.436
21396SOL    HW266196  29.900   7.273   5.526
21397SOL     OW66197   2.346   3.060   7.985
21397SOL    HW166198   2.396   2.990   8.027
21397SOL    HW266199   2.312   3.111  19.098
21398SOL     OW66200   6.727  10.792   8.519
21398SOL    HW166201   6.697  10.872  19.602
21398SOL    HW266202   6.772  10.824   8.440
21399SOL     OW66203  11.458   2.943   4.356
21399SOL    HW166204   0.480   3.017  -6.677
21399SOL    HW266205  11.512   2.869  -6.708
21400SOL     OW66206   9.439   2.624  11.367
21400SOL    HW166207   9.351  24.671  22.387
21400SOL    HW266208   9.425   2.703 -10.660
21401SOL     OW66209   4.239   8.673   0.572
21401SOL    HW166210   4.307   8.640   0.513
21401SOL    HW266211 -17.918   8.680   0.517
21402SOL     OW66212   4.637   7.713   0.154
21402SOL    HW166213   4.642   7.731   0.248
21402SOL    HW266214   4.702  -3.396  22.219
21403SOL     OW66215  11.012   8.718   7.996
21403SOL    HW166216  -0.028   8.629   7.960
21403SOL    HW266217  11.088   8.721   8.053
21404SOL     OW66218   1.205   2.737  -0.704
21404SOL    HW166219   1.119  13.745  21.403
21404SOL    HW266220  23.266   2.807  10.274
21405SOL     OW66221   2.898   5.454   8.150
21405SOL    HW166222  36.039   5.537   8.106
21405SOL    HW266223   2.932   5.386   8.092
21406SOL     OW66224   5.487   8.441   9.396
21406SOL    HW166225 -16.660   8.375   9.381
21406SOL    HW266226   5.516  41.544   9.485
21407SOL     OW66227   6.503   9.511   7.918
21407SOL    HW166228 -15.509   9.563   7.961
21407SOL    HW266229   6.534   9.420   7.927
21408SOL     OW66230   3.798   2.303   5.195
21408SOL    HW166231  -7.262   2.381  -5.896
21408SOL    HW266232  36.925   2.335   5.284
21409SOL     OW66233   7.159   8.335   1.901
21409SOL    HW166234   7.141   8.368   1.990
21409SOL    HW266235   7.072   8.333 -20.219
21410SOL     OW66236   2.761   6.096   2.085
21410SOL    HW166237   2.835  17.105   2.137
21410SOL    HW266238  -8.342  28.206   2.149
21411SOL     OW66239   4.730   7.244   6.863
21411SOL    HW166240  -6.216   7.256  17.889
21411SOL    HW266241   4.695  18.265   6.775
21412SOL     OW66242  10.456   1.439   3.308
21412SOL    HW166243  10.528   1.452  -7.669
21412SOL    HW266244  -0.661   1.468  -7.684
21413SOL     OW66245   7.034   0.668   2.363
21413SOL    HW166246   7.008   0.749   2.406
21413SOL    HW266247   6.983  44.758 -30.712
21414SOL     OW66248   9.596   5.233   9.854
21414SOL    HW166249  -1.356   5.265   9.830
21414SOL    HW266250   9.611   5.142   9.881
21415SOL     OW66251   5.052   4.314   6.610
21415SOL    HW166252  -5.994  15.284 -15.533
21415SOL    HW266253   5.093   4.387   6.563
21416SOL     OW66254   1.173  11.356  -0.950
21416SOL    HW166255   1.158  11.273  21.083
21416SOL    HW266256  12.288   0.299  32.225
21417SOL     OW66257   9.097   7.233   4.932
21417SOL    HW166258   9.074  18.249   5.022
21417SOL    HW266259   9.013   7.242  15.927
21418SOL     OW66260  12.226   6.647   5.224
21418SOL    HW166261  12.164   6.706   5.181
21418SOL    HW266262 -20.809   6.667 -27.936
21419SOL     OW66263   6.346   8.553  11.615
21419SOL    HW166264  17.419  19.520   0.521
21419SOL    HW266265   6.254   8.532  11.630
21420SOL     OW66266   9.745   1.559  -0.490
21420SOL    HW166267  -1.333   1.491  10.605
21420SOL    HW266268  42.788  34.723  10.512
21421SOL     OW66269   7.183  10.971   1.688
21421SOL    HW166270   7.118  -0.127   1.727
21421SOL    HW266271  -3.794  10.989  12.798
21422SOL     OW66272  -1.475   7.510   7.776
21422SOL    HW166273  42.735  -3.450   7.787
21422SOL    HW266274  20.579   7.511   7.684
21423SOL     OW66275   3.261   5.498   5.566
21423SOL    HW166276  25.347  16.580   5.651
21423SOL    HW266277   3.232   5.409   5.585
21424SOL     OW66278   5.867   3.107   8.482
21424SOL    HW166279   5.819   3.092   8.400
21424SOL    HW266280   5.829  14.228   8.516
21425SOL     OW66281   6.841   8.312  10.056
21425SOL    HW166282   6.912   8.307  10.119
21425SOL    HW266283   6.883  -2.705  21.013
21426SOL     OW66284   2.228   8.923  10.727
21426SOL    HW166285   2.323  -2.122  10.723
21426SOL    HW266286   2.208   9.016  10.713
21427SOL     OW66287   2.967   8.842   7.620
21427SOL    HW166288  13.941   8.865   7.554
21427SOL    HW266289   3.045   8.891   7.594
21428SOL     OW66290   8.152   7.781   8.165
21428SOL    HW166291  19.152 -36.317   8.229
21428SOL    HW266292   8.141 -14.384   8.205
21429SOL     OW66293   7.850   8.061   9.120
21429SOL    HW166294   7.795   8.104   9.186
21429SOL    HW266295   7.936  52.260   9.130
21430SOL     OW66296   5.947   5.420   0.758
21430SOL    HW166297 -16.078   5.345   0.732
21430SOL    HW266298   5.985   5.450   0.840
21431SOL     OW66299   7.839  10.048   5.842
21431SOL    HW166300   7.773  -1.002  27.852
21431SOL    HW266301   7.829  -1.069   5.897
21432SOL     OW66302   1.053   0.520  -0.828
21432SOL    HW166303  -9.936   0.462  21.193
21432SOL    HW266304   1.120   0.572  -0.783
21433SOL     OW66305  10.199   5.479   9.378
21433SOL    HW166306  -0.768   5.467   9.439
21433SOL    HW266307 -11.840   5.477   9.291
21434SOL     OW66308   7.792   5.851   3.848
21434SOL    HW166309  -3.235  27.906   3.940
21434SOL    HW266310  18.852  28.024  25.924
21435SOL     OW66311   8.503   1.578   9.055
21435SOL    HW166312   8.589   1.539   9.042
21435SOL    HW266313   8.476   1.548  -1.897
21436SOL     OW66314   8.219   2.558   1.858
21436SOL    HW166315 -24.935   2.615   1.790
21436SOL    HW266316 -13.848 -30.646   1.815
21437SOL     OW66317   7.076   0.969   4.581
21437SOL    HW166318   7.045   0.913   4.652
21437SOL    HW266319   7.008   1.037   4.573
21438SOL     OW66320   7.379   7.468   7.182
21438SOL    HW166321   7.325  -3.569   7.262
21438SOL    HW266322  29.522   7.399  18.238
21439SOL     OW66323   7.711   6.296   5.634
21439SOL    HW166324   7.752   6.378  38.781
21439SOL    HW266325  -3.391   6.275   5.703
21440SOL     OW66326   3.218   8.864   0.974
21440SOL    HW166327   3.147   8.868   0.909
21440SOL    HW266328   3.174   8.846  -9.983
21441SOL     OW66329   1.797   1.974   3.135
21441SOL    HW166330  34.963   2.006   3.212
21441SOL    HW266331   1.745  13.088   3.105
21442SOL     OW66332   1.910   6.385   9.325
21442SOL    HW166333   1.877  -4.650  -1.804
21442SOL    HW266334   1.952   6.300  -1.708
21443SOL     OW66335   3.568   4.278   2.524
21443SOL    HW166336   3.658 -28.845  13.531
21443SOL    HW266337   3.529  15.390   2.477
21444SOL     OW66338   3.161   6.026   4.117
21444SOL    HW166339  -7.913   5.945   4.156
21444SOL    HW266340   3.107   6.039   4.039
21445SOL     OW66341   9.959  12.215   6.318
21445SOL    HW166342 -12.109  12.253   6.405
21445SOL    HW266343   9.934  -9.791   6.262
21446SOL     OW66344   9.813   5.682   8.515
21446SOL    HW166345   9.847   5.654  -2.440
21446SOL    HW266346   9.794  16.814  19.565
21447SOL     OW66347   0.822   1.485   2.490
21447SOL    HW166348 -10.286   1.456   2.550
21447SOL    HW266349   0.893  12.555  -8.493
21448SOL     OW66350   2.083   5.056   9.363
21448SOL    HW166351   2.131   5.059   9.280
21448SOL    HW266352  13.101 -39.011   9.381
21449SOL     OW66353  -0.158   4.795   3.659
21449SOL    HW166354  -0.142  15.796  14.785
21449SOL    HW266355  10.808  26.933   3.673
21450SOL     OW66356   0.863   4.424   5.825
21450SOL    HW166357   0.780  15.424  49.956
21450SOL    HW266358   0.850   4.441   5.919
21451SOL     OW66359  10.664   6.828   0.931
21451SOL    HW166360  10.629   6.787   1.010
21451SOL    HW266361  10.610  -4.245 -10.180
21452SOL     OW66362   4.304  10.123   5.593
21452SOL    HW166363  26.344  -0.992   5.548
21452SOL    HW266364  -6.803  10.190  16.631
21453SOL     OW66365  12.802  10.255   2.756
21453SOL    HW166366   1.695  10.313   2.792
21453SOL    HW266367 -20.365  10.187   2.710
21454SOL     OW66368   6.694   4.100   7.386
21454SOL    HW166369   6.714  26.191   7.293
21454SOL    HW266370   6.779  37.225   7.430
21455SOL     OW66371   0.314   3.674   8.953
21455SOL    HW166372   0.384   3.719   8.907
21455SOL    HW266373   0.337   3.581   8.948
21456SOL     OW66374   4.206   6.364  -0.587
21456SOL    HW166375   4.233   6.346  21.402
21456SOL    HW266376 -17.965   6.338  -0.584
21457SOL     OW66377   2.400   6.916   8.941
21457SOL    HW166378   2.432 -26.256 -13.210
21457SOL    HW266379 -19.740   6.978  19.940
21458SOL     OW66380   5.946   3.437   6.784
21458SOL    HW166381   5.956   3.520  17.778
21458SOL    HW266382   5.852   3.419  -4.258
21459SOL     OW66383   7.902   7.760   7.641
21459SOL    HW166384  -3.072 -14.256   7.611
21459SOL    HW266385   7.828   7.814   7.670
21460SOL     OW66386   7.784   4.183   3.780
21460SOL    HW166387 -14.286   4.279   3.779
21460SOL    HW266388  -3.172   4.152   3.815
21461SOL     OW66389   7.675   5.444   7.040
21461SOL    HW166390   7.713 -16.565   6.986
21461SOL    HW266391  -3.451  16.517  18.104
21462SOL     OW66392   3.547   2.149   1.883
21462SOL    HW166393   3.623  -8.907   1.939
21462SOL    HW266394   3.478 -19.904 -20.135
21463SOL     OW66395   6.331   4.088   5.735
21463SOL    HW166396   6.330   4.156   5.667
21463SOL    HW266397   6.240   4.084   5.766
21464SOL     OW66398   1.134  10.645  13.569
21464SOL    HW166399   1.223  -0.374 -30.560
21464SOL    HW266400  23.218  10.555 -41.662
21465SOL     OW66401   3.456   4.161  10.267
21465SOL    HW166402   3.485   4.231  21.366
21465SOL    HW266403  14.407   4.187  10.242
21466SOL     OW66404  10.731   8.326   9.232
21466SOL    HW166405  10.688   8.288   9.155
21466SOL    HW266406  10.818   8.350   9.201
21467SOL     OW66407   2.006   9.660   9.980
21467SOL    HW166408   2.059 -12.467   9.917
21467SOL    HW266409   1.938 -12.481 -12.072
21468SOL     OW66410   0.684  10.673   2.678
21468SOL    HW166411 -10.356  10.713  13.631
21468SOL    HW266412   0.772  10.634  35.804
21469SOL     OW66413  10.508   0.093   9.181
21469SOL    HW166414  10.452  22.250   9.170
21469SOL    HW266415  10.590  22.206   9.215
21470SOL     OW66416   8.548   8.146   0.829
21470SOL    HW166417   8.503  19.269   0.811
21470SOL    HW266418   8.530  -2.947   0.752
21471SOL     OW66419   5.683   1.641   5.274
21471SOL    HW166420   5.680   1.599   5.360
21471SOL    HW266421   5.741  12.755   5.286
21472SOL     OW66422   2.058   3.404   4.009
21472SOL    HW166423 -19.971  -7.717  -7.032
21472SOL    HW266424   2.025  14.450  15.139
21473SOL     OW66425   8.696   6.611   7.965
21473SOL    HW166426   8.688   6.670   7.890
21473SOL    HW266427   8.787   6.620   7.993
21474SOL     OW66428   1.556   0.757   4.499
21474SOL    HW166429   1.568  11.835   4.586
21474SOL    HW266430   1.475   0.796   4.467
21475SOL     OW66431   2.870   3.619   7.634
21475SOL    HW166432   2.943   3.651 -14.499
21475SOL    HW266433 -19.173   3.618 -14.356
21476SOL     OW66434   3.673  12.266   3.290
21476SOL    HW166435   3.742   1.252  25.307
21476SOL    HW266436   3.599   1.282   3.267
21477SOL     OW66437   7.136   7.115   3.003
21477SOL    HW166438  40.257   7.195   2.949
21477SOL    HW266439   7.053  18.160  14.089
21478SOL     OW66440   1.716   7.792   2.542
21478SOL    HW166441 -20.380   7.755   2.629
21478SOL    HW266442   1.633   7.780   2.495
21479SOL     OW66443   5.621   7.509   2.827
21479SOL    HW166444  27.706   7.600   2.799
21479SOL    HW266445   5.678 -25.658   2.767
21480SOL     OW66446   3.809   4.845   3.840
21480SOL    HW166447   3.747   4.898   3.791
21480SOL    HW266448   3.878   4.824   3.777
21481SOL     OW66449   3.067   1.169   7.932
21481SOL    HW166450   3.098  12.197   8.022
21481SOL    HW266451   3.030  23.162   7.908
21482SOL     OW66452   1.064   2.884   5.167
21482SOL    HW166453   1.117   2.939   5.109
21482SOL    HW266454   0.982   2.872   5.120
21483SOL     OW66455   3.698   4.290   7.068
21483SOL    HW166456  -7.425   4.296  -3.925
21483SOL    HW266457   3.713   4.379   7.037
21484SOL     OW66458   2.914  10.300   6.024
21484SOL    HW166459   2.999  10.317   6.064
21484SOL    HW266460   2.851  -0.697  -4.958
21485SOL     OW66461   7.394   8.779   0.830
21485SOL    HW166462   7.480 -13.275   0.863
21485SOL    HW266463  -3.635 -13.391   0.801
21486SOL     OW66464   4.172   2.092   7.926
21486SOL    HW166465   4.255  -8.935  30.050
21486SOL    HW266466   4.186   2.014   7.871
21487SOL     OW66467   9.066   3.238   9.784
21487SOL    HW166468   9.017   3.319   9.796
21487SOL    HW266469   9.115   3.252  20.743
21488SOL     OW66470   7.686   6.277   6.937
21488SOL    HW166471  40.840  -4.792   7.020
21488SOL    HW266472   7.610  -4.818   6.921
21489SOL     OW66473   8.920   6.206   6.886
21489SOL    HW166474   8.854   6.273  17.911
21489SOL    HW266475   8.885   6.152   6.957
21490SOL     OW66476   5.847   4.299   7.875
21490SOL    HW166477   5.842   4.279   7.968
21490SOL    HW266478   5.853  -6.827   7.833
21491SOL     OW66479   2.048  10.077   7.471
21491SOL    HW166480  24.068  10.110   7.403
21491SOL    HW266481   2.004  10.095   7.553
21492SOL     OW66482   5.647   4.930   0.260
21492SOL    HW166483   5.723 -28.215   0.208
21492SOL    HW266484  -5.457   4.958   0.195
21493SOL     OW66485   3.062   8.316   6.329
21493SOL    HW166486  14.120   8.363   6.410
21493SOL    HW266487  36.255  19.376  -4.768
21494SOL     OW66488   6.372   4.548   8.785
21494SOL    HW166489   6.383   4.641  19.806
21494SOL    HW266490  17.387   4.544   8.877
21495SOL     OW66491   2.863   1.762   9.897
21495SOL    HW166492   2.772  34.899   9.873
21495SOL    HW266493   2.899   1.717   9.820
21496SOL     OW66494   2.499   0.830  10.292
21496SOL    HW166495   2.523  11.961  10.277
21496SOL    HW266496   2.404   0.828  10.281
21497SOL     OW66497   7.105   4.486   8.989
21497SOL    HW166498   7.080   4.568   9.032
21497SOL    HW266499   7.091   4.419   9.056
21498SOL     OW66500   4.094   3.181   9.886
21498SOL    HW166501   4.154   3.256   9.891
21498SOL    HW266502 -18.027 -18.889   9.800
21499SOL     OW66503   4.555   7.356   8.338
21499SOL    HW166504   4.600 -25.843   8.312
21499SOL    HW266505   4.615   7.426   8.309
21500SOL     OW66506   7.227   3.013   7.762
21500SOL    HW166507   7.222  25.058   7.851
21500SOL    HW266508   7.197 -18.976   7.768
21501SOL     OW66509   1.388   4.722   4.409
21501SOL    HW166510   1.327   4.650   4.393
21501SOL    HW266511  23.449   4.785   4.340
21502SOL     OW66512   4.219   2.094   7.151
21502SOL    HW166513   4.302  13.121  51.355
21502SOL    HW266514   4.190  13.221   7.177
21503SOL     OW66515   5.215   4.180   1.600
21503SOL    HW166516   5.241   4.116  23.746
21503SOL    HW266517   5.278   4.169   1.529
21504SOL     OW66518   8.819   4.691   2.778
21504SOL    HW166519 -24.305   4.597  -8.280
21504SOL    HW266520  -2.311   4.721   2.780
21505SOL     OW66521   8.595   9.384   6.954
21505SOL    HW166522   8.577   9.338  17.912
21505SOL    HW266523   8.514   9.431  -4.066
21506SOL     OW66524   6.656   0.999   5.118
21506SOL    HW166525   6.701   1.082 -16.951
21506SOL    HW266526   6.726  11.974 -16.969
21507SOL     OW66527   7.372  12.117   0.712
21507SOL    HW166528   7.342 -20.975   0.625
21507SOL    HW266529   7.292  12.115  11.805
21508SOL     OW66530  -0.821   5.206   0.913
21508SOL    HW166531  21.258   5.292   0.955
21508SOL    HW266532  -0.913  27.264  11.940
21509SOL     OW66533   7.068   8.197   2.895
21509SOL    HW166534   7.061   8.182  36.108
21509SOL    HW266535  18.097   8.110  13.896
21510SOL     OW66536   1.807   7.969   1.268
21510SOL    HW166537   1.855  -3.007   1.215
21510SOL    HW266538  -9.265  -3.019  12.382
21511SOL     OW66539   0.782   0.326   0.310
21511SOL    HW166540   0.862  11.364  11.403
21511SOL    HW266541 -10.295   0.413   0.325
21512SOL     OW66542   6.184   9.184   2.413
21512SOL    HW166543   6.133   9.158   2.490
21512SOL    HW266544   6.118   9.211   2.349
21513SOL     OW66545   9.278   2.738   7.213
21513SOL    HW166546   9.219   2.799  29.338
21513SOL    HW266547 -12.855  13.700   7.197
21514SOL     OW66548   5.873  11.233   7.609
21514SOL    HW166549  -5.141   0.144   7.687
21514SOL    HW266550 -16.220   0.126   7.542
21515SOL     OW66551   7.215   8.606  10.604
21515SOL    HW166552 -25.859  -2.502  -0.385
21515SOL    HW266553  18.223  19.707  10.670
21516SOL     OW66554   9.125  10.057   9.053
21516SOL    HW166555  20.085  10.106   9.071
21516SOL    HW266556  31.213  10.061  19.997
21517SOL     OW66557   2.166   6.629   7.124
21517SOL    HW166558   2.174   6.711  29.251
21517SOL    HW266559   2.101   6.578   7.173
21518SOL     OW66560   4.731   3.328   4.564
21518SOL    HW166561  -6.308   3.264  -6.404
21518SOL    HW266562  15.855   3.373   4.572
21519SOL     OW66563   0.036   4.404   0.285
21519SOL    HW166564  11.165   4.382   0.311
21519SOL    HW266565   0.034   4.386  22.270
21520SOL     OW66566   6.519   7.513   0.069
21520SOL    HW166567   6.614   7.512   0.086
21520SOL    HW266568   6.481   7.465   0.143
21521SOL     OW66569   7.143   0.976   7.954
21521SOL    HW166570   7.177   1.048   8.007
21521SOL    HW266571   7.150   0.900   8.011
21522SOL     OW66572   5.040   8.930   5.552
21522SOL    HW166573   4.992   8.847   5.545
21522SOL    HW266574   5.121   8.907   5.597
21523SOL     OW66575   8.960   5.308   0.470
21523SOL    HW166576   9.031   5.372   0.461
21523SOL    HW266577   8.910   5.338   0.546
21524SOL     OW66578   3.004   4.606   0.549
21524SOL    HW166579  14.101 -17.457   0.624
21524SOL    HW266580   3.063   4.598  33.593
21525SOL     OW66581  10.804   5.941   3.998
21525SOL    HW166582  10.709  28.020  -7.035
21525SOL    HW266583  10.822   5.901 -29.206
21526SOL     OW66584   9.150   4.151   4.412
21526SOL    HW166585   9.128   4.116   4.498
21526SOL    HW266586   9.238   4.188 -28.696
21527SOL     OW66587   3.367   1.006   0.073
21527SOL    HW166588   3.450 -10.079   0.088
21527SOL    HW266589  14.395   1.061   0.151
21528SOL     OW66590   7.091   2.570   3.326
21528SOL    HW166591   7.032   2.564  25.330
21528SOL    HW266592   7.162   2.509   3.305
21529SOL     OW66593   3.418   7.520   4.467
21529SOL    HW166594   3.495   7.515   4.523
21529SOL    HW266595   3.443 -25.644   4.387
21530SOL     OW66596   5.918  10.781   4.586
21530SOL    HW166597  16.970  -0.164   4.587
21530SOL    HW266598   5.952  -0.289   4.670
21531SOL     OW66599   9.601  -1.042   1.274
21531SOL    HW166600 -12.500  32.054  23.443
21531SOL    HW266601   9.554  20.972   1.221
21532SOL     OW66602   7.952   1.487   3.329
21532SOL    HW166603   7.879   1.486  -7.649
21532SOL    HW266604   8.023   1.531   3.377
21533SOL     OW66605   5.945  11.126   9.177
21533SOL    HW166606  -5.013  11.080   9.157
21533SOL    HW266607   5.877   0.032   9.139
21534SOL     OW66608   3.553   0.893   1.408
21534SOL    HW166609   3.575   0.908   1.500
21534SOL    HW266610   3.534   0.799   1.403
21535SOL     OW66611   6.403   6.866  10.153
21535SOL    HW166612   6.481   6.900  21.236
21535SOL    HW266613   6.388   6.782  10.196
21536SOL     OW66614   2.432   5.543   0.430
21536SOL    HW166615 -19.713   5.502  33.491
21536SOL    HW266616   2.473   5.609   0.375
21537SOL     OW66617   1.951  -0.154   2.553
21537SOL    HW166618  35.031  21.882   2.630
21537SOL    HW266619   1.877  21.959   2.504
21538SOL     OW66620   3.338   8.738   4.473
21538SOL    HW166621   3.394   8.767  15.584
21538SOL    HW266622   3.293   8.817   4.444
21539SOL     OW66623   3.073   2.142   9.973
21539SOL    HW166624  -8.053   2.122  10.009
21539SOL    HW266625   3.114  -8.841  21.077
21540SOL     OW66626   7.684   2.401   1.728
21540SOL    HW166627   7.719   2.413   1.640
21540SOL    HW266628   7.749   2.442   1.785
21541SOL     OW66629   1.295   5.667   3.511
21541SOL    HW166630   1.279  16.651  14.474
21541SOL    HW266631   1.226   5.733   3.508
21542SOL     OW66632  11.716  12.242   4.422
21542SOL    HW166633  11.685 -20.886  -6.528
21542SOL    HW266634 -21.476  -9.797   4.375
21543SOL     OW66635   7.801   0.006   6.494
21543SOL    HW166636   7.822  -0.044  28.495
21543SOL    HW266637  40.849   0.065   6.466
21544SOL     OW66638   9.442   8.388   9.124
21544SOL    HW166639   9.462   8.299   9.097
21544SOL    HW266640   9.425   8.382 -12.861
21545SOL     OW66641   4.564   9.447   8.573
21545SOL    HW166642   4.546 -12.716   8.530
21545SOL    HW266643   4.653  -1.601   8.605
21546SOL     OW66644   5.590   8.043   6.156
21546SOL    HW166645   5.670   7.991   6.162
21546SOL    HW266646   5.536   7.995   6.093
21547SOL     OW66647   7.728   6.713   4.081
21547SOL    HW166648  18.709   6.679  15.188
21547SOL    HW266649   7.718   6.652   4.008
21548SOL     OW66650   2.021   6.419   1.713
21548SOL    HW166651   2.024   6.357 -20.438
21548SOL    HW266652  -8.934   6.464   1.710
21549SOL     OW66653   5.335   3.914  10.401
21549SOL    HW166654   5.352   3.989  10.345
21549SOL    HW266655  16.283  14.961  10.425
21550SOL     OW66656   4.837   2.742  11.416
21550SOL    HW166657  15.971   2.730   0.385
21550SOL    HW266658  26.906   2.801   0.302
21551SOL     OW66659  10.386   3.773   1.628
21551SOL    HW166660  10.414   3.851   1.674
21551SOL    HW266661  10.385 -18.280   1.535
21552SOL     OW66662   1.731   8.786   5.021
21552SOL    HW166663   1.715   8.851   5.090
21552SOL    HW266664  -9.279  -2.203   4.946
21553SOL     OW66665   3.988   8.806   2.457
21553SOL    HW166666   3.898   8.809   2.489
21553SOL    HW266667   3.985   8.850   2.372
21554SOL     OW66668   0.431   3.806   0.601
21554SOL    HW166669   0.424  -7.211   0.693
21554SOL    HW266670   0.479  14.918   0.561
21555SOL     OW66671   7.458   2.793   2.036
21555SOL    HW166672   7.405   2.800  -8.924
21555SOL    HW266673  18.549   2.713   2.048
21556SOL     OW66674   3.297  -0.507   4.633
21556SOL    HW166675 -18.809  -0.454  -6.481
21556SOL    HW266676  25.467  10.559 -17.429
21557SOL     OW66677   6.930   0.823   3.755
21557SOL    HW166678   6.877   0.769   3.697
21557SOL    HW266679   6.936   0.773  -7.204
21558SOL     OW66680   8.930   9.345   5.605
21558SOL    HW166681  20.052   9.386   5.581
21558SOL    HW266682   8.881   9.341   5.523
21559SOL     OW66683   4.562   2.122   1.233
21559SOL    HW166684  15.545  24.277  23.300
21559SOL    HW266685  48.789   2.132   1.168
21560SOL     OW66686   5.341   6.982   2.795
21560SOL    HW166687  -5.738  -3.984   2.748
21560SOL    HW266688 -38.835   7.000  -8.153
21561SOL     OW66689   1.371   9.981   5.964
21561SOL    HW166690   1.363  20.976   6.048
21561SOL    HW266691   1.348  10.072   5.982
21562SOL     OW66692   6.688   0.766   7.533
21562SOL    HW166693   6.723   0.724  -3.428
21562SOL    HW266694   6.606   0.805  -3.478
21563SOL     OW66695   8.086   9.762   2.122
21563SOL    HW166696   8.153   9.760   2.054
21563SOL    HW266697   8.115   9.697  13.226
21564SOL     OW66698   8.428  10.097  -0.179
21564SOL    HW166699   8.416  10.177  -0.231
21564SOL    HW266700   8.481  10.040  21.844
21565SOL     OW66701   8.237   6.522   1.871
21565SOL    HW166702   8.208   6.431   1.864
21565SOL    HW266703   8.200  -4.487 -20.125
21566SOL     OW66704   8.650  -0.915   8.268
21566SOL    HW166705  19.632  -0.950   8.200
21566SOL    HW266706   8.604  21.241   8.301
21567SOL     OW66707   9.842   9.489   1.111
21567SOL    HW166708   9.897   9.517  45.341
21567SOL    HW266709  -1.165  20.441  12.128
21568SOL     OW66710   6.951  -0.587   6.009
21568SOL    HW166711   6.939  -0.679   5.986
21568SOL    HW266712   7.044  21.499   6.033
21569SOL     OW66713   3.970   7.095   3.953
21569SOL    HW166714 -18.106   7.046  15.075
21569SOL    HW266715   4.052   7.073 -18.170
21570SOL     OW66716   2.589   5.725   8.275
21570SOL    HW166717  -8.534   5.718   8.322
21570SOL    HW266718   2.565   5.712   8.183
21571SOL     OW66719   6.657   4.012   1.214
21571SOL    HW166720  -4.441   3.948   1.173
21571SOL    HW266721   6.598   4.071   1.262
21572SOL     OW66722   3.871   7.345   9.103
21572SOL    HW166723 -18.233   7.390 -12.895
21572SOL    HW266724   3.904  18.454   9.046
21573SOL     OW66725   2.079   4.724   0.914
21573SOL    HW166726   2.024   4.702  12.029
21573SOL    HW266727  13.058  -6.310 -21.239
21574SOL     OW66728   0.334   0.390   8.109
21574SOL    HW166729   0.277   0.462  -2.903
21574SOL    HW266730   0.323  22.465   8.014
21575SOL     OW66731   1.471  12.984   0.358
21575SOL    HW166732  -9.499  -9.137   0.308
21575SOL    HW266733   1.509 -42.197   0.444
21576SOL     OW66734   7.527   7.012   1.577
21576SOL    HW166735  29.536   6.996  12.680
21576SOL    HW266736  29.591   6.947  23.588
21577SOL     OW66737   8.206   6.733  11.445
21577SOL    HW166738   8.158  17.799   0.484
21577SOL    HW266739   8.287  28.773  11.479
21578SOL     OW66740   7.646   1.513  11.303
21578SOL    HW166741   7.600  -9.466 -10.718
21578SOL    HW266742  18.689  -9.608  11.352
21579SOL     OW66743   4.100   9.211   1.763
21579SOL    HW166744   4.107   9.133   1.708
21579SOL    HW266745   4.017   9.201   1.809
21580SOL     OW66746   1.653   1.880   7.399
21580SOL    HW166747   1.702   1.948   7.354
21580SOL    HW266748   1.694   1.798 -14.708
21581SOL     OW66749   4.419   1.341   3.919
21581SOL    HW166750   4.447  12.338 -18.079
21581SOL    HW266751   4.499  12.384   3.866
21582SOL     OW66752   5.559  10.023   7.243
21582SOL    HW166753   5.490  -1.073   7.276
21582SOL    HW266754  16.609   9.996   7.151
21583SOL     OW66755   2.355  -0.164   2.677
21583SOL    HW166756  13.406  10.832   2.761
21583SOL    HW266757  24.461  -0.230  -8.427
21584SOL     OW66758   6.958   3.519   6.491
21584SOL    HW166759   6.961  14.638   6.436
21584SOL    HW266760   6.890  14.505   6.451
21585SOL     OW66761   8.101   9.236   3.590
21585SOL    HW166762   8.132   9.250   3.501
21585SOL    HW266763   8.137   9.151   3.615
21586SOL     OW66764   7.165   3.955   1.488
21586SOL    HW166765  -3.845 -18.129   1.397
21586SOL    HW266766   7.154  15.089   1.504
21587SOL     OW66767   9.884  -0.109   0.946
21587SOL    HW166768   9.945  10.990   0.903
21587SOL    HW266769   9.937  -0.184   0.971
21588SOL     OW66770   9.711   6.821   7.187
21588SOL    HW166771   9.651   6.789  29.200
21588SOL    HW266772  -1.383   6.831 -14.813
21589SOL     OW66773  10.185   4.208  13.411
21589SOL    HW166774  10.180   4.222  -8.573
21589SOL    HW266775  10.232   4.285  -8.701
21590SOL     OW66776   1.892   6.813   6.084
21590SOL    HW166777   1.972  17.903   6.067
21590SOL    HW266778   1.899   6.788   6.176
21591SOL     OW66779   4.556   1.661   1.177
21591SOL    HW166780   4.472  -9.333   1.170
21591SOL    HW266781   4.575  -9.380   1.271
21592SOL     OW66782   2.759   1.612   0.247
21592SOL    HW166783   2.843  23.704  11.331
21592SOL    HW266784   2.755  34.636   0.230
21593SOL     OW66785  10.702   4.294  10.770
21593SOL    HW166786 -11.382  -6.712  10.680
21593SOL    HW266787  10.669  15.405  -0.216
21594SOL     OW66788   2.538   8.066   8.357
21594SOL    HW166789   2.525   8.145  19.449
21594SOL    HW266790   2.598   8.013  19.448
21595SOL     OW66791   0.601   1.058   0.935
21595SOL    HW166792   0.529  34.120 -10.080
21595SOL    HW266793   0.621   1.108   1.014
21596SOL     OW66794   8.235   8.460   7.219
21596SOL    HW166795   8.225  30.458  -3.770
21596SOL    HW266796   8.193   8.527   7.273
21597SOL     OW66797   0.435   6.450   0.024
21597SOL    HW166798   0.413  17.401   0.052
21597SOL    HW266799  11.551   6.474   0.075
21598SOL     OW66800   8.638   9.188   9.618
21598SOL    HW166801   8.654   9.255  -1.489
21598SOL    HW266802   8.622   9.239   9.698
21599SOL     OW66803   2.987   9.045   3.340
21599SOL    HW166804  25.153   9.085   3.335
21599SOL    HW266805  25.076   8.961   3.295
21600SOL     OW66806   2.807   1.545   2.404
21600SOL    HW166807  -8.301   1.540   2.471
21600SOL    HW266808   2.832  12.677   2.401
21601SOL     OW66809   3.962   6.566   3.155
21601SOL    HW166810   4.002  17.521  -7.906
21601SOL    HW266811   4.004   6.593  -7.804
21602SOL     OW66812   3.765   3.468   9.366
21602SOL    HW166813  -7.258  -7.663   9.347
21602SOL    HW266814   3.851   3.502   9.393
21603SOL     OW66815  10.929   2.914   8.881
21603SOL    HW166816  10.973   2.964 -13.267
21603SOL    HW266817  10.863   2.974   8.916
21604SOL     OW66818   4.778   1.266   2.976
21604SOL    HW166819   4.783   1.267   2.881
21604SOL    HW266820   4.804   1.177   3.001
21605SOL     OW66821   8.172   6.159  10.677
21605SOL    HW166822   8.212   6.233  10.724
21605SOL    HW266823  -2.905   6.105  10.747
21606SOL     OW66824   2.819  10.668   4.188
21606SOL    HW166825   2.725  10.656   4.176
21606SOL    HW266826  -8.197  10.607  15.298
21607SOL     OW66827   9.088  10.734  10.341
21607SOL    HW166828   9.164  -0.253  10.318
21607SOL    HW266829   9.090  10.661  21.319
21608SOL     OW66830   1.279   5.074   9.967
21608SOL    HW166831  12.410  27.182   9.964
21608SOL    HW266832   1.272  38.128   9.896
21609SOL     OW66833   2.984   6.677   0.277
21609SOL    HW166834  -8.111   6.623   0.334
21609SOL    HW266835   2.928   6.695  11.241
21610SOL     OW66836   5.572  11.718   9.995
21610SOL    HW166837   5.573   0.613  20.966
21610SOL    HW266838 -49.544   0.727  -1.056
21611SOL     OW66839   3.116   5.066   4.894
21611SOL    HW166840  14.112   5.147   4.866
21611SOL    HW266841   3.051   4.997  -6.164
21612SOL     OW66842   2.313   1.052   5.184
21612SOL    HW166843   2.307   1.146   5.199
21612SOL    HW266844   2.222  12.064   5.168
21613SOL     OW66845   2.288   3.615  10.200
21613SOL    HW166846 -19.744   3.555  21.297
21613SOL    HW266847   2.277   3.694  10.252
21614SOL     OW66848   8.135   2.318   5.949
21614SOL    HW166849   8.073   2.258   5.907
21614SOL    HW266850   8.187  -8.777   6.007
21615SOL     OW66851   5.815   9.686   6.792
21615SOL    HW166852   5.756 -12.446  28.924
21615SOL    HW266853   5.895 -23.427   6.844
21616SOL     OW66854   2.241   7.545  -2.219
21616SOL    HW166855  -8.725  18.525  30.910
21616SOL    HW266856  13.254   7.567   8.910
21617SOL     OW66857   6.980  10.215  10.979
21617SOL    HW166858   7.072  -0.850 -11.090
21617SOL    HW266859   6.956  10.252  11.064
21618SOL     OW66860   2.709  -0.354   6.079
21618SOL    HW166861  -8.241  32.796   6.093
21618SOL    HW266862   2.657  -0.307   6.144
21619SOL     OW66863   2.709   3.164   7.994
21619SOL    HW166864   2.697   3.086   8.048
21619SOL    HW266865   2.664   3.143   7.912
21620SOL     OW66866   3.926   2.342   9.822
21620SOL    HW166867   3.905   2.334   9.729
21620SOL    HW266868   3.962   2.257   9.846
21621SOL     OW66869   1.721   3.239   6.462
21621SOL    HW166870   1.792   3.227   6.525
21621SOL    HW266871  -9.293 -18.892   6.386
21622SOL     OW66872   9.164   8.782   1.012
21622SOL    HW166873   9.162   8.689  23.115
21622SOL    HW266874   9.161   8.782   0.916
21623SOL     OW66875   4.865   4.313  10.260
21623SOL    HW166876   4.773   4.340  10.268
21623SOL    HW266877   4.901   4.371  10.192
21624SOL     OW66878   8.649   1.204   0.666
21624SOL    HW166879  19.779   1.225   0.641
21624SOL    HW266880  19.683  12.267   0.758
21625SOL     OW66881   1.504   7.197   3.747
21625SOL    HW166882  23.661   7.203   3.804
21625SOL    HW266883  34.623  29.358  25.777
21626SOL     OW66884   6.176   3.050  -1.140
21626SOL    HW166885 -15.890  14.092  31.884
21626SOL    HW266886  39.382   3.063  -1.103
21627SOL     OW66887   7.026  11.344   0.038
21627SOL    HW166888   7.073 -10.684  22.183
21627SOL    HW266889   6.938 -10.695   0.036
21628SOL     OW66890   2.622   8.702   3.669
21628SOL    HW166891   2.608   8.681  -7.278
21628SOL    HW266892   2.619   8.797   3.666
21629SOL     OW66893   9.029   5.986   2.056
21629SOL    HW166894  20.043   6.074  13.121
21629SOL    HW266895  -2.013  16.975   2.138
21630SOL     OW66896   1.171   2.597   5.281
21630SOL    HW166897   1.198   2.541   5.354
21630SOL    HW266898   1.096   2.646   5.314
21631SOL     OW66899   9.713   4.424   3.668
21631SOL    HW166900   9.647  -6.626   3.600
21631SOL    HW266901  20.766   4.519   3.674
21632SOL     OW66902  -1.292  10.160   7.183
21632SOL    HW166903  -1.331  10.099  18.160
21632SOL    HW266904  31.810  -0.793   7.145
21633SOL     OW66905   9.121  10.958   4.792
21633SOL    HW166906   9.114  10.974   4.887
21633SOL    HW266907  20.211  -0.163   4.786
21634SOL     OW66908  13.589   2.301   7.354
21634SOL    HW166909 -41.621  -8.682   7.277
21634SOL    HW266910  13.598   2.213   7.318
21635SOL     OW66911   9.285   3.085   4.585
21635SOL    HW166912   9.207   3.042   4.622
21635SOL    HW266913  20.396   3.023   4.602
21636SOL     OW66914   1.454  13.413   0.539
21636SOL    HW166915  23.576   2.290   0.518
21636SOL    HW266916   1.405 -19.724   0.619
21637SOL     OW66917   7.571   8.831   1.965
21637SOL    HW166918   7.601   8.922   1.970
21637SOL    HW266919 -14.552   8.816   2.049
21638SOL     OW66920   9.942  11.076   2.580
21638SOL    HW166921   9.863   0.044  -8.406
21638SOL    HW266922   9.949  10.982  -8.478
21639SOL     OW66923   9.858   1.909   2.497
21639SOL    HW166924   9.911   1.879   2.424
21639SOL    HW266925  20.944   1.879   2.575
21640SOL     OW66926   9.850   3.730   0.829
21640SOL    HW166927  -1.106   3.684   0.833
21640SOL    HW266928   9.869   3.811   0.781
21641SOL     OW66929  10.685   2.795   1.230
21641SOL    HW166930  10.628  46.927   1.302
21641SOL    HW266931  10.758   2.840  -9.767
21642SOL     OW66932   6.994   0.111   8.410
21642SOL    HW166933   7.037   0.134   8.328
21642SOL    HW266934  17.941   0.134   8.396
21643SOL     OW66935  -0.306   2.866  -0.007
21643SOL    HW166936  21.842   2.919  22.031
21643SOL    HW266937  -0.380   2.872  -0.067
21644SOL     OW66938   0.805   8.524  10.271
21644SOL    HW166939   0.841   8.453  21.257
21644SOL    HW266940   0.836   8.505  -0.680
21645SOL     OW66941   0.549   4.683   2.743
21645SOL    HW166942   0.611  -6.313  -8.238
21645SOL    HW266943   0.515   4.610   2.795
21646SOL     OW66944   8.520  10.593   9.216
21646SOL    HW166945   8.579  10.668   9.226
21646SOL    HW266946  30.622  10.555   9.131
21647SOL     OW66947  10.692   0.420   7.780
21647SOL    HW166948  10.687  11.369   7.809
21647SOL    HW266949  10.631   0.425   7.706
21648SOL     OW66950   4.433   9.096   5.433
21648SOL    HW166951   4.503   9.098   5.367
21648SOL    HW266952   4.464   9.154   5.502
21649SOL     OW66953   1.360   4.650   8.697
21649SOL    HW166954   1.303   4.725   8.682
21649SOL    HW266955   1.324   4.608  -2.264
21650SOL     OW66956   3.160   0.226   9.692
21650SOL    HW166957   3.213  33.305  20.663
21650SOL    HW266958   3.197  11.353   9.703
21651SOL     OW66959   1.922   1.738   1.968
21651SOL    HW166960  13.028   1.698   1.911
21651SOL    HW266961   1.915   1.828  12.976
21652SOL     OW66962   8.138   0.206   5.417
21652SOL    HW166963  -2.829   0.259   5.384
21652SOL    HW266964  19.184  11.163   5.368
21653SOL     OW66965   4.722   9.447   4.381
21653SOL    HW166966   4.694   9.367   4.338
21653SOL    HW266967   4.818   9.445   4.375
21654SOL     OW66968  -0.667   8.986   5.425
21654SOL    HW166969  21.458   8.906   5.449
21654SOL    HW266970  -0.607   9.056   5.448
21655SOL     OW66971   9.150   8.795   0.752
21655SOL    HW166972   9.197   8.858   0.697
21655SOL    HW266973   9.177   8.710   0.718
21656SOL     OW66974  11.027   4.513  11.984
21656SOL    HW166975  10.980  26.659 -21.084
21656SOL    HW266976   0.080   4.534  11.996
21657SOL     OW66977   6.770   3.734   2.845
21657SOL    HW166978   6.752   3.652   2.891
21657SOL    HW266979   6.739   3.718   2.756
21658SOL     OW66980   8.553   0.898   1.914
21658SOL    HW166981  -2.496   0.821   1.858
21658SOL    HW266982   8.467   0.910  24.032
21659SOL     OW66983   1.257   3.714   1.619
21659SOL    HW166984  23.399 -29.476  -9.428
21659SOL    HW266985   1.308  -7.251   1.652
21660SOL     OW66986   6.503   6.322   9.454
21660SOL    HW166987   6.443  17.436   9.457
21660SOL    HW266988  17.620   6.352  20.541
21661SOL     OW66989  10.328  10.878   6.065
21661SOL    HW166990  10.422  10.867  17.098
21661SOL    HW266991 -11.786  10.841   5.984
21662SOL     OW66992   5.923   8.724   0.456
21662SOL    HW166993  28.032   8.780   0.385
21662SOL    HW266994   5.895  -2.255  11.565
21663SOL     OW66995   5.807   7.304   7.193
21663SOL    HW166996  38.988   7.342   7.132
21663SOL    HW266997  -5.268   7.228 -14.931
21664SOL     OW66998   3.250   8.921  10.246
21664SOL    HW166999   3.289   8.931  10.332
21664SOL    HW267000   3.178   8.859  10.258
21665SOL     OW67001  -0.558   6.038   7.712
21665SOL    HW167002  10.530   6.003  18.826
21665SOL    HW267003  -0.621   6.099   7.750
21666SOL     OW67004  10.479   7.444   2.440
21666SOL    HW167005 -11.588   7.473   2.530
21666SOL    HW267006  -0.475  18.495 -19.680
21667SOL     OW67007   6.019  10.816   6.895
21667SOL    HW167008  28.113  10.909  28.957
21667SOL    HW267009   6.102  10.774   6.870
21668SOL     OW67010   9.221   8.122   7.360
21668SOL    HW167011 -12.795   8.161   7.420
21668SOL    HW267012   9.213  41.304   7.288
21669SOL     OW67013   3.669   3.296   5.386
21669SOL    HW167014   3.584   3.262  16.453
21669SOL    HW267015   3.695   3.354  16.497
21670SOL     OW67016   0.675   3.405   8.832
21670SOL    HW167017   0.579   3.397   8.838
21670SOL    HW267018   0.689   3.493  30.876
21671SOL     OW67019  11.338  10.137   2.055
21671SOL    HW167020  11.307  10.210  13.147
21671SOL    HW267021   0.316  21.214  13.008
21672SOL     OW67022   6.539  10.787   1.130
21672SOL    HW167023   6.612  10.820   1.077
21672SOL    HW267024   6.514  10.860   1.185
21673SOL     OW67025   8.617   3.485   8.731
21673SOL    HW167026   8.528   3.521   8.725
21673SOL    HW267027  19.711   3.560   8.755
21674SOL     OW67028   2.022   8.965   9.995
21674SOL    HW167029   2.003   8.976  20.941
21674SOL    HW267030   2.038 -13.025  10.026
21675SOL     OW67031   7.941   5.148   8.248
21675SOL    HW167032   7.948   5.183   8.159
21675SOL    HW267033   7.923   5.224   8.302
21676SOL     OW67034   9.446   0.017  11.767
21676SOL    HW167035   9.498   0.008  11.847
21676SOL    HW267036   9.507  -0.007 -32.462
21677SOL     OW67037   3.824   4.970   2.605
21677SOL    HW167038   3.762   4.930   2.665
21677SOL    HW267039  36.953   5.060   2.637
21678SOL     OW67040   1.222   7.429   3.363
21678SOL    HW167041   1.240  40.634   3.400
21678SOL    HW267042   1.151   7.395   3.417
21679SOL     OW67043   6.527   6.181   1.037
21679SOL    HW167044   6.458   6.155  23.054
21679SOL    HW267045  39.683  28.339   0.998
21680SOL     OW67046   1.886   2.760  10.069
21680SOL    HW167047 -20.219   2.700  10.139
21680SOL    HW267048   1.961   2.808  10.105
21681SOL     OW67049   1.516  11.095   9.906
21681SOL    HW167050   1.450  11.157   9.876
21681SOL    HW267051   1.597   0.107   9.910
21682SOL     OW67052   4.535  10.066   3.457
21682SOL    HW167053   4.623  21.130   3.427
21682SOL    HW267054   4.492  10.150   3.474
21683SOL     OW67055   9.161  11.854  -0.389
21683SOL    HW167056   9.189  11.773  10.607
21683SOL    HW267057   9.127 -10.171  -0.460
21684SOL     OW67058  10.576   7.515   0.048
21684SOL    HW167059  10.489   7.554  11.094
21684SOL    HW267060  10.592   7.477   0.134
21685SOL     OW67061  10.545   1.877   3.587
21685SOL    HW167062  10.577  -9.252   3.596
21685SOL    HW267063  -0.416  12.971   3.595
21686SOL     OW67064   1.011   7.540   1.507
21686SOL    HW167065   1.008   7.587   1.423
21686SOL    HW267066  12.016   7.603  12.610
21687SOL     OW67067   3.874   9.080   5.608
21687SOL    HW167068   3.952   9.129   5.584
21687SOL    HW267069   3.870   9.009   5.544
21688SOL     OW67070  12.538   8.848   6.531
21688SOL    HW167071  -9.561   8.845   6.625
21688SOL    HW267072 -31.605   8.756  17.547
21689SOL     OW67073   0.946   7.366   9.263
21689SOL    HW167074   0.965  -3.580  -1.784
21689SOL    HW267075   0.874 -14.718   9.325
21690SOL     OW67076   5.832  10.124   9.668
21690SOL    HW167077   5.856  10.111  -1.280
21690SOL    HW267078   5.768  10.055  -1.390
21691SOL     OW67079  12.908   5.939   6.399
21691SOL    HW167080 -31.323   5.885   6.369
21691SOL    HW267081  12.986  16.937  17.402
21692SOL     OW67082   5.264   4.052  11.030
21692SOL    HW167083  16.367   3.996  10.986
21692SOL    HW267084   5.193  37.111  11.055
21693SOL     OW67085   2.064   1.771   4.855
21693SOL    HW167086   2.006   1.748   4.928
21693SOL    HW267087   2.104   1.854   4.882
21694SOL     OW67088   7.070   6.606   0.763
21694SOL    HW167089  40.121   6.660   0.723
21694SOL    HW267090   7.050  -4.431   0.857
21695SOL     OW67091   8.513   1.002   1.279
21695SOL    HW167092  -2.462  34.183  12.351
21695SOL    HW267093   8.541 -10.122   1.313
21696SOL     OW67094   4.203   6.920   5.221
21696SOL    HW167095  -6.848   6.842  16.205
21696SOL    HW267096   4.186  18.033   5.162
21697SOL     OW67097   0.757   6.022   7.813
21697SOL    HW167098   0.678   6.070   7.787
21697SOL    HW267099   0.735   5.930 -14.280
21698SOL     OW67100   6.126   5.463   0.349
21698SOL    HW167101   6.195   5.397  11.378
21698SOL    HW267102  -4.872   5.545   0.320
21699SOL     OW67103   2.651   7.573   0.417
21699SOL    HW167104   2.640  40.665   0.326
21699SOL    HW267105   2.619   7.498   0.468
21700SOL     OW67106   2.285   5.989   4.003
21700SOL    HW167107   2.332   5.923   3.953
21700SOL    HW267108   2.229   5.939   4.062
21701SOL     OW67109   0.384   3.897   9.735
21701SOL    HW167110   0.293  25.949   9.747
21701SOL    HW267111   0.385   3.944   9.652
21702SOL     OW67112   5.030  10.671  -0.468
21702SOL    HW167113   5.040  10.585  32.611
21702SOL    HW267114   5.059  10.659  10.663
21703SOL     OW67115   2.403   9.861   6.300
21703SOL    HW167116   2.450   9.944   6.290
21703SOL    HW267117   2.358   9.849 -15.862
21704SOL     OW67118   8.384   9.334   5.152
21704SOL    HW167119 -13.771   9.333   5.094
21704SOL    HW267120 -13.731  20.353   5.239
21705SOL     OW67121   4.782   1.757   0.069
21705SOL    HW167122   4.818  34.922   0.146
21705SOL    HW267123   4.850   1.694   0.046
21706SOL     OW67124   2.504   7.198  -0.750
21706SOL    HW167125  -8.595   7.257  10.243
21706SOL    HW267126   2.551   7.151  10.221
21707SOL     OW67127   0.236  10.375   4.119
21707SOL    HW167128   0.186  10.408   4.193
21707SOL    HW267129   0.170  10.350 -18.025
21708SOL     OW67130   9.341   4.582   9.946
21708SOL    HW167131  -1.609 -17.467   9.933
21708SOL    HW267132   9.296   4.656   9.987
21709SOL     OW67133  10.733  10.933   6.862
21709SOL    HW167134  10.658  10.977  -4.220
21709SOL    HW267135 -11.386  10.878   6.929
21710SOL     OW67136   7.911   6.607   6.115
21710SOL    HW167137  19.012   6.640  -4.859
21710SOL    HW267138   7.865  -4.354   6.084
21711SOL     OW67139   4.435   9.313   9.778
21711SOL    HW167140  15.515   9.244   9.831
21711SOL    HW267141  37.505 -12.814   9.710
21712SOL     OW67142   8.603   0.635   1.721
21712SOL    HW167143   8.679  11.696  34.785
21712SOL    HW267144   8.627   0.552   1.763
21713SOL     OW67145   6.150  10.582   2.666
21713SOL    HW167146   6.133  10.503   2.717
21713SOL    HW267147  17.104  10.622   2.653
21714SOL     OW67148   5.784   3.167   9.736
21714SOL    HW167149   5.724   3.125  31.877
21714SOL    HW267150   5.748  -7.785   9.723
21715SOL     OW67151  11.596  10.151   5.917
21715SOL    HW167152  11.577 -23.057   5.945
21715SOL    HW267153   0.610  -0.899  27.918
21716SOL     OW67154   7.664   6.540   0.666
21716SOL    HW167155   7.680   6.462   0.612
21716SOL    HW267156   7.731  -4.437   0.639
21717SOL     OW67157   4.049   7.358   1.986
21717SOL    HW167158 -18.082   7.438   1.997
21717SOL    HW267159  -6.976  -3.688   1.892
21718SOL     OW67160   7.637   1.456   4.168
21718SOL    HW167161   7.716   1.507   4.188
21718SOL    HW267162   7.654  12.459   4.081
21719SOL     OW67163   3.508   1.440  11.451
21719SOL    HW167164  14.500  23.561  11.522
21719SOL    HW267165   3.542   1.512   0.358
21720SOL     OW67166   6.752   7.331   7.252
21720SOL    HW167167   6.699   7.408   7.273
21720SOL    HW267168  39.905   7.302  18.375
21721SOL     OW67169   6.553   9.426   5.981
21721SOL    HW167170   6.516 -23.779   5.964
21721SOL    HW267171   6.590   9.454   5.897
21722SOL     OW67172   5.733   6.346   8.118
21722SOL    HW167173  16.685   6.308   8.115
21722SOL    HW267174   5.761  17.374   8.209
21723SOL     OW67175   6.361   0.722   7.081
21723SOL    HW167176   6.432   0.772   7.121
21723SOL    HW267177  39.426 -10.346   7.154
21724SOL     OW67178   1.638   3.992   3.854
21724SOL    HW167179   1.556   3.955   3.887
21724SOL    HW267180   1.678   3.922   3.803
21725SOL     OW67181   2.162  10.589  12.541
21725SOL    HW167182  -8.796 -11.540   1.491
21725SOL    HW267183   2.106  10.558 -20.649
21726SOL     OW67184   4.451   5.875   9.301
21726SOL    HW167185   4.448   5.779   9.301
21726SOL    HW267186   4.360   5.902   9.291
21727SOL     OW67187   3.073   2.484   7.946
21727SOL    HW167188   3.068 -19.672  -3.036
21727SOL    HW267189   3.163   2.513   7.953
21728SOL     OW67190   8.429   0.925   7.831
21728SOL    HW167191   8.489   0.999   7.839
21728SOL    HW267192   8.460   0.878   7.753
21729SOL     OW67193   5.230  -1.327   5.413
21729SOL    HW167194  -5.727   9.760  16.467
21729SOL    HW267195   5.237  20.674   5.468
21730SOL     OW67196   4.690   0.531   9.326
21730SOL    HW167197   4.638   0.470   9.377
21730SOL    HW267198   4.692   0.611   9.378
21731SOL     OW67199   1.307   5.838  10.955
21731SOL    HW167200 -20.851   5.788  10.976
21731SOL    HW267201   1.277   5.928  10.943
21732SOL     OW67202   3.362   3.123   8.054
21732SOL    HW167203   3.326   3.207 -25.092
21732SOL    HW267204   3.406 -30.030   7.976
21733SOL     OW67205   0.962   7.541   6.423
21733SOL    HW167206   1.032  18.646   6.417
21733SOL    HW267207   0.900   7.579  -4.554
21734SOL     OW67208   7.182   5.166   6.518
21734SOL    HW167209  18.236 -28.046 -15.574
21734SOL    HW267210   7.264 -16.881   6.555
21735SOL     OW67211   6.116   9.993   1.957
21735SOL    HW167212   6.035  -1.052  12.944
21735SOL    HW267213  17.144  10.071   2.010
21736SOL     OW67214  10.090   8.787   6.959
21736SOL    HW167215  10.046   8.708   6.927
21736SOL    HW267216  -0.857   8.773   6.936
21737SOL     OW67217   0.926   0.530   4.466
21737SOL    HW167218 -10.080   0.463   4.407
21737SOL    HW267219   0.980   0.607  15.486
21738SOL     OW67220  10.873   3.999   7.527
21738SOL    HW167221  10.909   3.981   7.614
21738SOL    HW267222  10.947  -7.050   7.467
21739SOL     OW67223  10.862   4.603   7.394
21739SOL    HW167224  10.885  -6.508   7.453
21739SOL    HW267225  -0.265  -6.408   7.422
21740SOL     OW67226   8.511  11.364   2.492
21740SOL    HW167227   8.442   0.374  13.488
21740SOL    HW267228   8.531  11.292   2.431
21741SOL     OW67229   5.951   4.417   9.694
21741SOL    HW167230  -5.085  -6.563   9.769
21741SOL    HW267231   5.968   4.330   9.732
21742SOL     OW67232   3.703   7.792   0.351
21742SOL    HW167233   3.700 -36.405   0.264
21742SOL    HW267234   3.797   7.800   0.371
21743SOL     OW67235   5.911   8.294   2.295
21743SOL    HW167236  -5.220   8.270   2.282
21743SOL    HW267237   5.912  19.430  24.371
21744SOL     OW67238   1.739   9.598   6.405
21744SOL    HW167239   1.663   9.649   6.377
21744SOL    HW267240   1.749   9.619  28.577
21745SOL     OW67241   5.070   9.333   6.242
21745SOL    HW167242   5.045   9.241  17.293
21745SOL    HW267243   5.106  -1.681   6.327
21746SOL     OW67244  10.404   9.423   5.704
21746SOL    HW167245  10.486 -12.676   5.660
21746SOL    HW267246  21.375   9.392   5.644
21747SOL     OW67247   1.504   1.370   1.559
21747SOL    HW167248   1.560   1.410   1.492
21747SOL    HW267249   1.512   1.429   1.634
21748SOL     OW67250  10.784   6.634   5.470
21748SOL    HW167251  -0.237   6.561   5.412
21748SOL    HW267252  -0.189   6.699  16.489
21749SOL     OW67253  -1.081   2.020  11.024
21749SOL    HW167254  32.095   1.965   0.039
21749SOL    HW267255  -1.132   1.957 -11.106
21750SOL     OW67256   1.348   3.272  -0.032
21750SOL    HW167257   1.373   3.363  11.021
21750SOL    HW267258  12.463   3.222  -0.002
21751SOL     OW67259   4.538   1.411  10.348
21751SOL    HW167260   4.462   1.444 -11.684
21751SOL    HW267261   4.502   1.366 -22.847
21752SOL     OW67262   0.075  12.091   8.503
21752SOL    HW167263  11.199   1.006 -13.573
21752SOL    HW267264   0.029   1.012   8.429
21753SOL     OW67265  13.211   9.145   7.383
21753SOL    HW167266  13.213  20.279   7.392
21753SOL    HW267267 -30.916   9.112   7.467
21754SOL     OW67268   3.683  11.782   1.877
21754SOL    HW167269  14.782  11.760  12.988
21754SOL    HW267270   3.595 -10.308   1.915
21755SOL     OW67271   5.187   9.763   6.081
21755SOL    HW167272   5.272   9.724   6.061
21755SOL    HW267273   5.126   9.720   6.022
21756SOL     OW67274   6.452   0.002   6.761
21756SOL    HW167275   6.414   0.049   6.835
21756SOL    HW267276   6.432  10.949   6.778
21757SOL     OW67277   0.702  -2.549   6.177
21757SOL    HW167278  11.701   8.577   6.173
21757SOL    HW267279   0.695  41.584   6.269
21758SOL     OW67280   5.421  -0.564  11.539
21758SOL    HW167281   5.386  -0.476  11.530
21758SOL    HW267282  27.438  10.431 -10.482
21759SOL     OW67283   6.881   1.814   6.776
21759SOL    HW167284  -4.170   1.907   6.794
21759SOL    HW267285   6.792   1.778   6.777
21760SOL     OW67286   8.664   9.388   4.537
21760SOL    HW167287   8.627  20.387   4.458
21760SOL    HW267288   8.588  -1.619   4.585
21761SOL     OW67289  10.010   1.628   4.639
21761SOL    HW167290  10.020   1.720  26.742
21761SOL    HW267291  -0.993   1.580   4.714
21762SOL     OW67292   7.748   1.629  10.531
21762SOL    HW167293   7.704   1.595  10.453
21762SOL    HW267294   7.830   1.580  10.534
21763SOL     OW67295   2.698   6.640   3.844
21763SOL    HW167296   2.664  -4.392   3.933
21763SOL    HW267297   2.686  -4.492   3.821
21764SOL     OW67298   2.436   3.071  10.818
21764SOL    HW167299   2.364   3.133  10.811
21764SOL    HW267300   2.415   3.002  10.756
21765SOL     OW67301  -0.083   4.141   9.759
21765SOL    HW167302  10.874   4.106   9.727
21765SOL    HW267303  -0.016  -6.951   9.715
21766SOL     OW67304   9.307  -2.461   0.320
21766SOL    HW167305   9.375  19.659   0.374
21766SOL    HW267306   9.335  19.635  33.349
21767SOL     OW67307   2.326   9.258   8.334
21767SOL    HW167308   2.363   9.340  19.407
21767SOL    HW267309   2.390   9.230   8.268
21768SOL     OW67310   6.536   3.600   0.682
21768SOL    HW167311   6.528   3.624   0.590
21768SOL    HW267312  17.491 -18.517   0.704
21769SOL     OW67313   4.991  -0.326   4.564
21769SOL    HW167314   5.021  32.702  -6.471
21769SOL    HW267315   5.067 -11.314 -17.486
21770SOL     OW67316  11.271   7.463  10.907
21770SOL    HW167317 -21.852 -14.581  10.996
21770SOL    HW267318  11.179   7.454  10.881
21771SOL     OW67319   4.582   9.952   5.336
21771SOL    HW167320   4.620 -12.142  27.502
21771SOL    HW267321  -6.407  -1.014   5.301
21772SOL     OW67322   7.266   6.141  -2.231
21772SOL    HW167323  40.335   6.196  64.067
21772SOL    HW267324   7.211   6.065  -2.246
21773SOL     OW67325   9.701   6.149   8.309
21773SOL    HW167326  -1.406   6.081   8.321
21773SOL    HW267327   9.666   6.205   8.240
21774SOL     OW67328   4.032   6.820   3.327
21774SOL    HW167329   3.992   6.861  -7.789
21774SOL    HW267330   3.982   6.855   3.401
21775SOL     OW67331   4.401   3.049  10.892
21775SOL    HW167332   4.330   2.985  10.905
21775SOL    HW267333   4.456   3.011 -11.255
21776SOL     OW67334  10.251   4.466   8.332
21776SOL    HW167335  10.253   4.512   8.248
21776SOL    HW267336  21.353   4.515   8.386
21777SOL     OW67337   7.789   9.098  11.763
21777SOL    HW167338   7.835   9.059   0.649
21777SOL    HW267339   7.783   9.191 -10.338
21778SOL     OW67340   8.744   5.970   1.221
21778SOL    HW167341  -2.374   5.940   1.267
21778SOL    HW267342   8.816   5.939  -9.764
21779SOL     OW67343   1.666   9.398   1.405
21779SOL    HW167344   1.656  31.572   1.402
21779SOL    HW267345   1.721   9.377   1.329
21780SOL     OW67346   9.428  10.702   9.445
21780SOL    HW167347   9.333  10.695   9.453
21780SOL    HW267348  20.492  10.773   9.505
21781SOL     OW67349   2.845   1.501  10.821
21781SOL    HW167350   2.772   1.440  10.815
21781SOL    HW267351   2.846  12.586  -0.303
21782SOL     OW67352  -0.392   3.369   8.734
21782SOL    HW167353  -0.307  -7.653 -13.386
21782SOL    HW267354  10.602   3.453   8.730
21783SOL     OW67355   4.766   3.871   1.335
21783SOL    HW167356   4.706 -18.135   1.319
21783SOL    HW267357   4.768   3.822   1.252
21784SOL     OW67358   0.397  10.561   4.725
21784SOL    HW167359   0.414  -0.389   4.696
21784SOL    HW267360  11.453  10.507  -6.392
21785SOL     OW67361   1.911   5.859   2.114
21785SOL    HW167362   1.839  16.955   2.084
21785SOL    HW267363   1.922  -5.245   2.044
21786SOL     OW67364  10.499   3.747   0.085
21786SOL    HW167365  10.579  25.875   0.101
21786SOL    HW267366  10.515   3.699   0.004
21787SOL     OW67367   8.836   9.148   2.714
21787SOL    HW167368   8.926   9.114 -19.362
21787SOL    HW267369   8.784   9.081  -8.279
21788SOL     OW67370  10.092   7.733   1.623
21788SOL    HW167371  10.069   7.642  12.646
21788SOL    HW267372  10.183  29.819  23.675
21789SOL     OW67373   1.921  -1.644   0.564
21789SOL    HW167374  35.035  42.600   0.522
21789SOL    HW267375  12.891   9.397  11.670
21790SOL     OW67376   6.991   1.487   8.660
21790SOL    HW167377   6.959   1.574   8.684
21790SOL    HW267378  18.012  -9.606   8.737
21791SOL     OW67379  10.179   2.514   3.824
21791SOL    HW167380  10.106   2.517   3.761
21791SOL    HW267381  21.180 -19.539  -7.133
21792SOL     OW67382   6.849   6.972   8.169
21792SOL    HW167383   6.795  18.074  19.160
21792SOL    HW267384   6.789   6.900   8.191
21793SOL     OW67385   8.522  -0.540  10.300
21793SOL    HW167386   8.495  -0.626  10.332
21793SOL    HW267387  19.649  10.485  21.303
21794SOL     OW67388   3.284   4.808   8.135
21794SOL    HW167389  -7.742   4.734  -2.963
21794SOL    HW267390  -7.669  15.886   8.147
21795SOL     OW67391   4.564   1.598   3.948
21795SOL    HW167392   4.605   1.563 -18.210
21795SOL    HW267393  -6.479   1.693   3.934
21796SOL     OW67394   0.423   3.488   8.230
21796SOL    HW167395   0.510 -18.578   8.270
21796SOL    HW267396  11.442   3.573 -13.888
21797SOL     OW67397   6.728   5.969   1.459
21797SOL    HW167398   6.790   6.023   1.508
21797SOL    HW267399   6.725   6.008   1.372
21798SOL     OW67400  11.396   4.140   1.482
21798SOL    HW167401  11.368 -17.852 -20.570
21798SOL    HW267402   0.449 -17.943   1.507
21799SOL     OW67403   9.218   6.387   0.237
21799SOL    HW167404  20.187 -37.816   0.286
21799SOL    HW267405   9.224  -4.701   0.155
21800SOL     OW67406   0.693   6.481   6.861
21800SOL    HW167407  11.727   6.554  17.962
21800SOL    HW267408   0.786   6.456   6.862
21801SOL     OW67409   0.553   3.085   4.683
21801SOL    HW167410   0.621   3.018  15.716
21801SOL    HW267411   0.524  -7.958   4.774
21802SOL     OW67412   6.341   3.280   9.348
21802SOL    HW167413 -37.781 -18.859   9.283
21802SOL    HW267414   6.330  14.267 -12.652
21803SOL     OW67415   5.958   0.737   5.251
21803SOL    HW167416   5.868   0.765   5.269
21803SOL    HW267417   6.007 -10.279   5.330
21804SOL     OW67418   2.228   3.233   8.197
21804SOL    HW167419  -8.892   3.262  19.194
21804SOL    HW267420   2.260 -18.768  -2.797
21805SOL     OW67421   7.489  11.061   1.439
21805SOL    HW167422   7.414   0.068  12.443
21805SOL    HW267423   7.552  11.130  12.502
21806SOL     OW67424   9.237   2.324  10.515
21806SOL    HW167425   9.222   2.299  10.424
21806SOL    HW267426  -1.880   2.374  -0.499
21807SOL     OW67427   7.905   5.767   0.106
21807SOL    HW167428   7.976  -5.254   0.045
21807SOL    HW267429  29.909  -5.225   0.071
21808SOL     OW67430   4.476   3.506  10.719
21808SOL    HW167431   4.452   3.476  10.631
21808SOL    HW267432   4.402   3.481  10.774
21809SOL     OW67433   1.824   1.823   8.200
21809SOL    HW167434  12.790   1.834  -2.779
21809SOL    HW267435  12.867   1.905   8.150
21810SOL     OW67436   8.919  10.483   5.666
21810SOL    HW167437   8.860  10.557   5.679
21810SOL    HW267438   8.980  10.487   5.740
21811SOL     OW67439   6.973   3.864   9.877
21811SOL    HW167440   6.950   3.909   9.796
21811SOL    HW267441   6.930   3.915  -1.094
21812SOL     OW67442   4.461   8.658   8.295
21812SOL    HW167443 -17.579   8.660  41.326
21812SOL    HW267444  -6.508   8.686   8.354
21813SOL     OW67445   5.922   4.127   9.793
21813SOL    HW167446  17.040   4.073  -1.234
21813SOL    HW267447  27.979   4.158   9.881
21814SOL     OW67448   2.063   3.285   7.128
21814SOL    HW167449  13.155   3.287   7.048
21814SOL    HW267450  13.033  -7.818   7.110
21815SOL     OW67451   5.416   3.915   5.298
21815SOL    HW167452   5.478  -7.103  16.267
21815SOL    HW267453   5.444 -18.110   5.372
21816SOL     OW67454   0.733   6.694   9.027
21816SOL    HW167455   0.691   6.780 -24.100
21816SOL    HW267456 -10.214   6.711   9.007
21817SOL     OW67457   5.183   5.353   2.509
21817SOL    HW167458   5.269   5.332   2.546
21817SOL    HW267459  38.258  16.308   2.501
21818SOL     OW67460   1.949   0.037   7.368
21818SOL    HW167461   1.866   0.052   7.412
21818SOL    HW267462   1.928  -0.020  18.333
21819SOL     OW67463   8.425   2.242   4.788
21819SOL    HW167464 -13.658   2.312   4.854
21819SOL    HW267465  19.427   2.282  15.749
21820SOL     OW67466   5.266   3.764   0.671
21820SOL    HW167467  16.268   3.852   0.665
21820SOL    HW267468  -5.680   3.778   0.689
21821SOL     OW67469   0.561   4.182   7.680
21821SOL    HW167470  22.633   4.086   7.685
21821SOL    HW267471 -10.548  15.253   7.738
21822SOL     OW67472   3.679   5.329   9.927
21822SOL    HW167473   3.583  -5.707  -1.113
21822SOL    HW267474   3.700 -16.836  -1.149
21823SOL     OW67475   2.333   3.984   0.513
21823SOL    HW167476   2.428  -7.049  22.586
21823SOL    HW267477   2.311   4.023   0.598
21824SOL     OW67478   1.545  10.903   0.763
21824SOL    HW167479  12.622  10.988  11.779
21824SOL    HW267480  12.625  10.882 -10.192
21825SOL     OW67481   1.011   5.843   5.574
21825SOL    HW167482   0.990   5.796  49.813
21825SOL    HW267483   1.098  16.921  27.670
21826SOL     OW67484   4.952   4.528   7.156
21826SOL    HW167485   4.977  15.478   7.179
21826SOL    HW267486  26.936   4.526  29.227
21827SOL     OW67487   9.698   9.243   2.585
21827SOL    HW167488   9.717   9.206  13.538
21827SOL    HW267489   9.647   9.176   2.629
21828SOL     OW67490   9.947   8.381   9.534
21828SOL    HW167491   9.985 -24.690   9.460
21828SOL    HW267492  -1.174   8.345  -1.539
21829SOL     OW67493   7.506   7.698   6.386
21829SOL    HW167494  18.573   7.606 -15.693
21829SOL    HW267495   7.509   7.723   6.478
21830SOL     OW67496   4.160  11.991   6.732
21830SOL    HW167497   4.230  11.943   6.688
21830SOL    HW267498  26.274 -10.069   6.819
21831SOL     OW67499   7.166   3.695   5.988
21831SOL    HW167500   7.207   3.734  -5.129
21831SOL    HW267501  -3.965   3.723  -5.057
21832SOL     OW67502   8.021   9.785   0.728
21832SOL    HW167503   7.997   9.735  11.846
21832SOL    HW267504   7.970   9.867   0.735
21833SOL     OW67505   2.842   9.180   4.670
21833SOL    HW167506   2.783  20.295   4.675
21833SOL    HW267507   2.874  20.207   4.759
21834SOL     OW67508   4.136   1.533  10.861
21834SOL    HW167509   4.229   1.534  10.838
21834SOL    HW267510 -17.985  -9.557 -22.327
21835SOL     OW67511   7.167   1.350  10.031
21835SOL    HW167512   7.145  12.308   9.986
21835SOL    HW267513   7.262  -9.682  10.022
21836SOL     OW67514   4.122  11.288   5.673
21836SOL    HW167515   4.211  11.265  38.766
21836SOL    HW267516 -40.092 -21.896  16.670
21837SOL     OW67517   1.553   2.837   0.742
21837SOL    HW167518   1.600   2.848   0.660
21837SOL    HW267519   1.491   2.766 -10.314
21838SOL     OW67520   8.043   2.469   6.951
21838SOL    HW167521   8.005  -8.652   6.985
21838SOL    HW267522  -2.956   2.511   7.027
21839SOL     OW67523  -0.936   9.021   1.152
21839SOL    HW167524  21.161   9.026   1.058
21839SOL    HW267525  -0.883   8.948  -9.857
21840SOL     OW67526   5.705   1.327   5.731
21840SOL    HW167527   5.697  12.302   5.660
21840SOL    HW267528   5.619   1.330   5.771
21841SOL     OW67529   1.848   3.109   5.494
21841SOL    HW167530   1.789   3.179   5.467
21841SOL    HW267531  12.829   3.036   5.515
21842SOL     OW67532   5.544   3.026   0.680
21842SOL    HW167533   5.591   2.975   0.615
21842SOL    HW267534   5.552   3.117   0.650
21843SOL     OW67535   5.944   4.041   7.824
21843SOL    HW167536   5.927   3.974  -3.149
21843SOL    HW267537  16.953   4.002  -3.297
21844SOL     OW67538   5.839   4.480   1.735
21844SOL    HW167539   5.837   4.440   1.648
21844SOL    HW267540  -5.290   4.471 -20.312
21845SOL     OW67541   2.778   9.874   5.729
21845SOL    HW167542   2.874   9.871   5.732
21845SOL    HW267543  13.790   9.825  -5.233
21846SOL     OW67544   8.624   7.768   2.666
21846SOL    HW167545   8.700  -3.214   2.676
21846SOL    HW267546   8.575   7.778  -8.293
21847SOL     OW67547   5.474  10.903   1.065
21847SOL    HW167548   5.515  10.831   1.017
21847SOL    HW267549  -5.520  10.981   1.034
21848SOL     OW67550   0.965   1.472   3.114
21848SOL    HW167551   0.933  -9.564  14.243
21848SOL    HW267552   1.060   1.482  36.241
21849SOL     OW67553  13.649   7.851   7.812
21849SOL    HW167554   2.609 -14.241   7.717
21849SOL    HW267555 -30.456   7.929  29.905
21850SOL     OW67556   8.819   4.660  10.478
21850SOL    HW167557   8.758  15.653  10.421
21850SOL    HW267558   8.811  37.735  10.563
21851SOL     OW67559   2.413   9.320   9.622
21851SOL    HW167560   2.491   9.313  20.717
21851SOL    HW267561   2.367 -12.842   9.635
21852SOL     OW67562   1.736   2.861   8.226
21852SOL    HW167563  12.799   2.940   8.275
21852SOL    HW267564  12.748   2.798  -2.748
21853SOL     OW67565   5.276   1.254   9.489
21853SOL    HW167566   5.256   1.196   9.563
21853SOL    HW267567   5.266   1.198  -1.628
21854SOL     OW67568   0.014   5.743   9.561
21854SOL    HW167569  -0.062   5.796   9.583
21854SOL    HW267570   0.021  -5.292   9.466
21855SOL     OW67571   6.485   1.109   7.122
21855SOL    HW167572   6.568   1.157   7.122
21855SOL    HW267573   6.505 -10.014   7.081
21856SOL     OW67574   4.004   3.776   5.761
21856SOL    HW167575 -18.027   3.693   5.759
21856SOL    HW267576   3.997  -7.242   5.854
21857SOL     OW67577   0.647   5.764   9.021
21857SOL    HW167578   0.705   5.726   8.955
21857SOL    HW267579 -10.342   5.835   9.059
21858SOL     OW67580   4.144   3.204   6.830
21858SOL    HW167581  15.169   3.248  -4.293
21858SOL    HW267582   4.234   3.170   6.824
21859SOL     OW67583   5.462   9.230   8.721
21859SOL    HW167584   5.456   9.326   8.716
21859SOL    HW267585 -16.707  -1.840  19.749
21860SOL     OW67586   6.588   6.751  11.583
21860SOL    HW167587   6.592  -4.295   0.639
21860SOL    HW267588   6.525   6.684  11.558
21861SOL     OW67589   8.240   5.758   0.964
21861SOL    HW167590   8.315   5.706   0.991
21861SOL    HW267591   8.272   5.848   0.964
21862SOL     OW67592   4.646   6.549   7.652
21862SOL    HW167593   4.655 -15.462   7.585
21862SOL    HW267594 -50.586   6.473   7.604
21863SOL     OW67595   0.834   5.484  10.245
21863SOL    HW167596 -10.167   5.462  21.369
21863SOL    HW267597   0.798   5.572  10.257
21864SOL     OW67598   9.668   0.097   6.544
21864SOL    HW167599  -1.284   0.135   6.538
21864SOL    HW267600   9.614  22.246   6.581
21865SOL     OW67601   1.754   4.040   7.300
21865SOL    HW167602  -9.332   4.109  -3.692
21865SOL    HW267603   1.778   4.080   7.217
21866SOL     OW67604   8.147   9.400  11.952
21866SOL    HW167605   8.098   9.480 -21.152
21866SOL    HW267606   8.156   9.394  11.856
21867SOL     OW67607   4.487   6.844   7.716
21867SOL    HW167608   4.430  17.825   7.666
21867SOL    HW267609 -28.574   6.785  18.805
21868SOL     OW67610   1.070  10.259   0.869
21868SOL    HW167611   1.084  10.165   0.880
21868SOL    HW267612   1.081  10.274  33.894
21869SOL     OW67613   9.558   2.140   2.803
21869SOL    HW167614   9.650  35.283 -19.291
21869SOL    HW267615   9.545   2.064   2.746
21870SOL     OW67616   6.832   6.668   9.102
21870SOL    HW167617  17.885 -26.356   9.103
21870SOL    HW267618   6.776   6.650   9.177
21871SOL     OW67619   4.371   3.095   5.714
21871SOL    HW167620 -17.637   3.149  16.718
21871SOL    HW267621   4.358  25.105   5.649
21872SOL     OW67622   4.085   9.346   7.551
21872SOL    HW167623   3.999   9.306   7.557
21872SOL    HW267624   4.071   9.427   7.501
21873SOL     OW67625   8.602   3.286  10.612
21873SOL    HW167626   8.513   3.284  10.576
21873SOL    HW267627   8.590  14.338  10.706
21874SOL     OW67628   5.396   1.068   1.392
21874SOL    HW167629   5.472   1.102   1.344
21874SOL    HW267630   5.434   1.021   1.466
21875SOL     OW67631   9.130   3.428   7.139
21875SOL    HW167632   9.093  14.538   7.193
21875SOL    HW267633   9.133 -29.654   7.051
21876SOL     OW67634   8.881   9.400   6.206
21876SOL    HW167635 -13.278  -1.691 -37.947
21876SOL    HW267636   8.869 -23.648  -4.770
21877SOL     OW67637   4.921   5.281   7.426
21877SOL    HW167638   4.992 -27.776   7.443
21877SOL    HW267639   4.844   5.319  18.507
21878SOL     OW67640   1.578   9.088   0.863
21878SOL    HW167641  12.601  20.174  11.820
21878SOL    HW267642   1.528   9.137   0.928
21879SOL     OW67643   4.373   3.118   9.195
21879SOL    HW167644   4.363  -7.943  -1.937
21879SOL    HW267645   4.429   3.195   9.196
21880SOL     OW67646  -0.669   3.912   4.422
21880SOL    HW167647  10.386  15.016   4.353
21880SOL    HW267648  10.384   3.961   4.504
21881SOL     OW67649   7.232  10.447   6.093
21881SOL    HW167650   7.289  10.380   6.132
21881SOL    HW267651  18.299  10.528   6.136
21882SOL     OW67652   4.013   5.853   2.131
21882SOL    HW167653   3.941   5.865   2.193
21882SOL    HW267654  15.107  -5.109   2.140
21883SOL     OW67655  -1.026   6.941   8.151
21883SOL    HW167656  21.035  18.004   8.060
21883SOL    HW267657  -1.072  18.046   8.203
21884SOL     OW67658   6.535  10.243   1.483
21884SOL    HW167659   6.520  21.288  -9.463
21884SOL    HW267660   6.572  10.328   1.459
21885SOL     OW67661  10.076   9.689   8.293
21885SOL    HW167662  10.140   9.702  -2.676
21885SOL    HW267663  10.001  -1.392   8.335
21886SOL     OW67664   1.320   8.014   3.932
21886SOL    HW167665   1.353   7.924  14.962
21886SOL    HW267666   1.277   8.015  15.057
21887SOL     OW67667   1.772   3.815   4.869
21887SOL    HW167668   1.684   3.776   4.874
21887SOL    HW267669   1.823  -7.271   4.934
21888SOL     OW67670   1.092  10.500   9.414
21888SOL    HW167671  34.261  10.492   9.333
21888SOL    HW267672   1.001  10.490  31.467
21889SOL     OW67673   6.063  10.271   1.488
21889SOL    HW167674  -4.915  10.206   1.523
21889SOL    HW267675   5.977  10.234  34.625
21890SOL     OW67676  -0.185   1.985   4.665
21890SOL    HW167677  -0.247  46.214   4.645
21890SOL    HW267678  10.898  13.006   4.582
21891SOL     OW67679   9.028   5.091   2.630
21891SOL    HW167680   9.072   5.030   2.690
21891SOL    HW267681   8.935   5.075   2.644
21892SOL     OW67682   0.424  10.869   0.299
21892SOL    HW167683   0.416  10.856   0.393
21892SOL    HW267684  11.554  10.897   0.286
21893SOL     OW67685   7.278   1.510   3.761
21893SOL    HW167686   7.280   1.604  -7.260
21893SOL    HW267687   7.245 -20.575   3.672
21894SOL     OW67688   5.573   9.431   4.312
21894SOL    HW167689   5.668   9.441   4.308
21894SOL    HW267690  -5.501   9.509   4.268
21895SOL     OW67691   2.569   7.149   8.393
21895SOL    HW167692   2.555   7.217   8.459
21895SOL    HW267693  24.564   7.103   8.388
21896SOL     OW67694   8.168   2.291   9.620
21896SOL    HW167695  -2.903   2.378   9.593
21896SOL    HW267696  -2.776   2.301  -1.414
21897SOL     OW67697   1.932   1.167  10.562
21897SOL    HW167698  -9.096   1.139  -0.568
21897SOL    HW267699   1.992   1.112  -0.427
21898SOL     OW67700  10.254   6.436   1.425
21898SOL    HW167701  10.277   6.433   1.332
21898SOL    HW267702  10.313   6.373  12.506
21899SOL     OW67703   1.650   1.634   2.938
21899SOL    HW167704   1.612   1.593   2.860
21899SOL    HW267705  12.728  12.755  36.024
21900SOL     OW67706   8.115   7.776   4.439
21900SOL    HW167707   8.132   7.819   4.523
21900SOL    HW267708   8.075   7.693   4.462
21901SOL     OW67709   5.467   5.054   0.113
21901SOL    HW167710   5.420 -16.984   0.185
21901SOL    HW267711   5.418 -28.038   0.035
21902SOL     OW67712   5.568   3.890   9.741
21902SOL    HW167713  -5.419   3.955   9.694
21902SOL    HW267714  27.620  26.015   9.821
21903SOL     OW67715   3.543   9.103  10.313
21903SOL    HW167716   3.560   9.070  21.440
21903SOL    HW267717  14.504  -1.883  10.323
21904SOL     OW67718   1.644   6.189   0.721
21904SOL    HW167719   1.666  39.373 -10.252
21904SOL    HW267720   1.721  -4.907   0.716
21905SOL     OW67721   3.354   7.310   3.947
21905SOL    HW167722   3.272   7.335   3.991
21905SOL    HW267723  14.380   7.335   3.856
21906SOL     OW67724   1.290   2.308   8.790
21906SOL    HW167725   1.334   2.381 -13.245
21906SOL    HW267726 -20.826   2.256 -13.217
21907SOL     OW67727   2.513   8.212   4.201
21907SOL    HW167728   2.525  19.272   4.108
21907SOL    HW267729   2.435   8.262   4.227
21908SOL     OW67730   6.177   3.239   5.174
21908SOL    HW167731   6.119   3.238   5.098
21908SOL    HW267732 -26.935  36.267  27.281
21909SOL     OW67733   1.765   2.940   4.949
21909SOL    HW167734   1.826   2.866   4.955
21909SOL    HW267735   1.819   3.016   4.970
21910SOL     OW67736   4.907   6.768   7.214
21910SOL    HW167737   4.959   6.692   7.239
21910SOL    HW267738  27.048   6.827   7.170
21911SOL     OW67739   1.357   8.791   3.561
21911SOL    HW167740  45.534   8.703   3.527
21911SOL    HW267741   1.384  -2.253   3.653
21912SOL     OW67742  11.424   9.157   9.602
21912SOL    HW167743   0.413   9.247   9.587
21912SOL    HW267744  11.505  20.147   9.612
21913SOL     OW67745   6.964  10.705  10.307
21913SOL    HW167746   6.970  10.753 -11.855
21913SOL    HW267747   7.055  -0.339  10.338
21914SOL     OW67748   8.165   4.296   2.044
21914SOL    HW167749  -2.963   4.321   2.017
21914SOL    HW267750   8.152   4.244  13.163
21915SOL     OW67751   3.241  11.631   7.459
21915SOL    HW167752   3.176   0.532   7.423
21915SOL    HW267753   3.191  11.704   7.494
21916SOL     OW67754   9.188   9.874   2.856
21916SOL    HW167755   9.151   9.797   2.898
21916SOL    HW267756  -1.884  20.910  24.845
21917SOL     OW67757   4.592  -0.474   7.820
21917SOL    HW167758   4.498  -0.465  29.882
21917SOL    HW267759   4.629  21.575   7.736
21918SOL     OW67760   2.291   3.475   1.098
21918SOL    HW167761   2.233   3.550  23.162
21918SOL    HW267762  -8.799   3.416  23.232
21919SOL     OW67763   8.356  10.918   6.595
21919SOL    HW167764   8.358  10.919   6.690
21919SOL    HW267765  19.306  10.941   6.572
21920SOL     OW67766   9.753   0.755   7.657
21920SOL    HW167767   9.794   0.679   7.616
21920SOL    HW267768   9.659   0.745   7.639
21921SOL     OW67769   1.606   8.250   4.916
21921SOL    HW167770  12.557  -2.755   4.927
21921SOL    HW267771   1.662 -13.769  16.005
21922SOL     OW67772   7.721   8.394   4.784
21922SOL    HW167773  29.789   8.413  26.956
21922SOL    HW267774   7.708   8.300   4.777
21923SOL     OW67775   8.029  10.810   0.721
21923SOL    HW167776   8.031  -0.301 -10.383
21923SOL    HW267777  19.157  -0.227   0.757
21924SOL     OW67778   0.223   3.886   2.908
21924SOL    HW167779   0.295   3.844   2.861
21924SOL    HW267780   0.145   3.838   2.880
21925SOL     OW67781  -0.654   0.524   7.179
21925SOL    HW167782  21.399  11.529   7.093
21925SOL    HW267783  10.307 -10.520  18.271
21926SOL     OW67784   2.231   6.039   6.433
21926SOL    HW167785   2.280   6.013   6.355
21926SOL    HW267786 -19.897   6.117  -4.633
21927SOL     OW67787  -0.898  -0.659  11.169
21927SOL    HW167788  21.160  -0.618   0.046
21927SOL    HW267789  -0.860  21.491  11.221
21928SOL     OW67790   5.091   7.726   9.370
21928SOL    HW167791   5.009  -3.314   9.418
21928SOL    HW267792   5.156   7.693   9.433
21929SOL     OW67793   9.286   4.200   3.113
21929SOL    HW167794  -1.729   4.169   3.200
21929SOL    HW267795   9.293   4.123   3.056
21930SOL     OW67796   5.094   5.596   4.744
21930SOL    HW167797   5.052   5.515   4.715
21930SOL    HW267798   5.057  -5.376  26.767
21931SOL     OW67799   3.949   1.474   5.868
21931SOL    HW167800   3.925  -9.482   5.827
21931SOL    HW267801   4.023   1.443  16.855
21932SOL     OW67802   8.133   9.604   7.668
21932SOL    HW167803   8.093   9.563  18.784
21932SOL    HW267804  -2.882  20.570  18.651
21933SOL     OW67805   6.343   9.865  -1.827
21933SOL    HW167806  17.397   9.873  31.197
21933SOL    HW267807   6.310   9.951  -1.801
21934SOL     OW67808   5.921   5.679   8.750
21934SOL    HW167809   5.925   5.759  -2.342
21934SOL    HW267810  -5.209   5.650   8.743
21935SOL     OW67811   9.504   2.944   5.418
21935SOL    HW167812  -1.451  24.987   5.445
21935SOL    HW267813   9.505   3.035 -16.630
21936SOL     OW67814   1.387   5.176   5.573
21936SOL    HW167815   1.401  27.337  16.659
21936SOL    HW267816   1.317   5.133   5.622
21937SOL     OW67817  10.153   5.761   9.078
21937SOL    HW167818  21.278   5.768   9.037
21937SOL    HW267819  10.170  -5.267 -12.907
21938SOL     OW67820   7.184   9.740   4.422
21938SOL    HW167821   7.255   9.761   4.482
21938SOL    HW267822   7.130   9.818   4.421
21939SOL     OW67823   5.614  11.032   7.953
21939SOL    HW167824   5.525  11.013   7.922
21939SOL    HW267825   5.670  10.970  18.945
21940SOL     OW67826   6.359   7.817   1.815
21940SOL    HW167827  17.322   7.781  -9.270
21940SOL    HW267828   6.348   7.789  -9.134
21941SOL     OW67829   3.394   1.985   8.379
21941SOL    HW167830   3.369   2.064   8.427
21941SOL    HW267831   3.421   1.923   8.448
21942SOL     OW67832   5.472   3.549  10.843
21942SOL    HW167833  27.549  14.667  -0.251
21942SOL    HW267834   5.544   3.564  -0.136
21943SOL     OW67835   9.452   6.793   5.034
21943SOL    HW167836   9.415 -15.225   5.098
21943SOL    HW267837  -1.652  17.761   5.029
21944SOL     OW67838   1.518   2.135   7.444
21944SOL    HW167839  -9.447   2.101   7.395
21944SOL    HW267840  -9.559   2.059   7.488
21945SOL     OW67841   9.397   8.685   7.536
21945SOL    HW167842  20.481  19.643   7.511
21945SOL    HW267843   9.450   8.720   7.608
21946SOL     OW67844   0.511   7.623  10.110
21946SOL    HW167845   0.535  -3.466  10.187
21946SOL    HW267846   0.567  18.629  10.040
21947SOL     OW67847   3.911   1.294   9.052
21947SOL    HW167848   3.883  -9.688   9.124
21947SOL    HW267849   3.855   1.217   9.060
21948SOL     OW67850   5.585   8.938   9.060
21948SOL    HW167851   5.550  20.067   9.061
21948SOL    HW267852   5.594   8.914   9.152
21949SOL     OW67853   9.392   3.907   3.798
21949SOL    HW167854   9.338   3.849   3.852
21949SOL    HW267855   9.463  14.890   3.766
21950SOL     OW67856   3.710   4.467   9.400
21950SOL    HW167857   3.616   4.448   9.411
21950SOL    HW267858   3.720   4.485  20.346
21951SOL     OW67859   0.655   3.992   3.571
21951SOL    HW167860   0.596   3.959   3.639
21951SOL    HW267861   0.706  -7.123   3.543
21952SOL     OW67862   9.543   0.475   6.072
21952SOL    HW167863   9.514   0.402   6.018
21952SOL    HW267864 -12.465  11.555   6.022
21953SOL     OW67865   9.427   5.421   6.530
21953SOL    HW167866   9.382   5.502  17.548
21953SOL    HW267867 -12.717   5.353   6.516
21954SOL     OW67868   2.619   3.616   2.317
21954SOL    HW167869  13.620   3.635  13.442
21954SOL    HW267870   2.550  -7.467   2.268
21955SOL     OW67871  12.188   5.556   6.762
21955SOL    HW167872  12.095   5.544   6.783
21955SOL    HW267873 -31.930   5.581   6.846
21956SOL     OW67874   0.651   3.754   2.697
21956SOL    HW167875   0.711   3.700   2.646
21956SOL    HW267876   0.662   3.842   2.662
21957SOL     OW67877   1.653   4.069  11.487
21957SOL    HW167878   1.671  26.195   0.529
21957SOL    HW267879   1.591  15.165  11.440
21958SOL     OW67880   3.445   5.462  13.400
21958SOL    HW167881   3.431  -5.501 -41.743
21958SOL    HW267882   3.506  -5.632  -8.630
21959SOL     OW67883   6.604   0.249   1.141
21959SOL    HW167884   6.508   0.248   1.140
21959SOL    HW267885   6.629   0.236   1.049
21960SOL     OW67886   6.599   3.525   7.990
21960SOL    HW167887   6.521   3.570   8.022
21960SOL    HW267888  -4.376   3.594   7.978
21961SOL     OW67889   5.886   7.614   3.001
21961SOL    HW167890   5.814   7.607   3.063
21961SOL    HW267891   5.881   7.533   2.949
21962SOL     OW67892  -0.384   7.300  -3.052
21962SOL    HW167893  -0.466   7.345  30.045
21962SOL    HW267894  10.711   7.368  30.104
21963SOL     OW67895   2.201  10.699   4.288
21963SOL    HW167896   2.194  -0.422   4.238
21963SOL    HW267897  13.159  10.702   4.338
21964SOL     OW67898   9.506  11.485   3.072
21964SOL    HW167899  -1.514 -10.519   3.016
21964SOL    HW267900  20.505  11.523   3.150
21965SOL     OW67901   8.580   9.493   9.563
21965SOL    HW167902   8.615   9.447   9.486
21965SOL    HW267903  -2.528   9.550  31.607
21966SOL     OW67904   2.092   1.304   7.822
21966SOL    HW167905   2.116   1.249 -14.331
21966SOL    HW267906  13.164   1.391   7.799
21967SOL     OW67907   6.537   4.257  10.053
21967SOL    HW167908   6.623  -6.769  10.092
21967SOL    HW267909 -37.603  15.270   9.963
21968SOL     OW67910   5.979   6.421   2.361
21968SOL    HW167911   6.018   6.375  13.327
21968SOL    HW267912   6.052   6.436   2.422
21969SOL     OW67913   5.199   4.454   8.627
21969SOL    HW167914   5.128   4.435   8.566
21969SOL    HW267915  -5.852   4.392  19.738
21970SOL     OW67916   7.619   8.966  10.403
21970SOL    HW167917   7.545 -35.247  21.416
21970SOL    HW267918   7.689  31.021  10.343
21971SOL     OW67919   9.982   0.499   9.840
21971SOL    HW167920   9.912   0.546  -1.243
21971SOL    HW267921   9.997   0.548   9.922
21972SOL     OW67922  10.987  11.866   6.962
21972SOL    HW167923  10.917  11.907   7.013
21972SOL    HW267924  11.046 -10.250   7.027
21973SOL     OW67925  -0.550   6.604   4.299
21973SOL    HW167926  10.446  -4.358   4.333
21973SOL    HW267927  -0.500   6.570  15.413
21974SOL     OW67928   7.380   9.585  -0.049
21974SOL    HW167929   7.392   9.680  10.980
21974SOL    HW267930  18.449   9.567   0.040
21975SOL     OW67931   2.381   1.958   8.722
21975SOL    HW167932   2.468   1.970   8.684
21975SOL    HW267933  -8.718   1.957   8.647
21976SOL     OW67934   5.565   5.449   2.563
21976SOL    HW167935  38.733   5.476   2.641
21976SOL    HW267936  16.660  38.502  13.561
21977SOL     OW67937   8.770   7.660   4.179
21977SOL    HW167938  -2.238   7.598   4.112
21977SOL    HW267939  -2.300  18.775  -6.911
21978SOL     OW67940   3.643   6.962   2.814
21978SOL    HW167941  -7.360   6.972   2.902
21978SOL    HW267942   3.623   6.869   2.807
21979SOL     OW67943   6.128  10.069  -0.283
21979SOL    HW167944   6.154   9.977  10.750
21979SOL    HW267945  28.286  10.115  10.783
21980SOL     OW67946   7.766   3.612   5.132
21980SOL    HW167947  -3.215   3.608  -5.831
21980SOL    HW267948   7.798   3.543  27.153
21981SOL     OW67949   6.664   3.797   3.462
21981SOL    HW167950   6.628   3.886   3.453
21981SOL    HW267951  -4.373  -7.257  14.597
21982SOL     OW67952  -1.807   2.850   7.820
21982SOL    HW167953  31.326  13.851   7.734
21982SOL    HW267954  -1.730   2.905  18.875
21983SOL     OW67955  10.956   7.085   4.479
21983SOL    HW167956  10.938   7.061   4.570
21983SOL    HW267957 -22.232   7.146  -6.584
21984SOL     OW67958  11.170   6.745   2.823
21984SOL    HW167959  11.226  17.716  46.944
21984SOL    HW267960   0.095  17.830  13.786
21985SOL     OW67961  10.394   4.004   9.326
21985SOL    HW167962  21.343   4.011   9.356
21985SOL    HW267963  10.440  15.000   9.398
21986SOL     OW67964   0.888   6.789   7.659
21986SOL    HW167965   0.850  39.834   7.611
21986SOL    HW267966  34.039   6.848   7.591
21987SOL     OW67967  10.380   3.098   1.324
21987SOL    HW167968  -0.738  14.186   1.348
21987SOL    HW267969  10.450   3.164   1.327
21988SOL     OW67970   6.370   6.276   4.865
21988SOL    HW167971   6.318 -15.829  -6.251
21988SOL    HW267972  -4.673   6.372   4.865
21989SOL     OW67973   3.766   2.996   5.344
21989SOL    HW167974   3.816   3.058  16.331
21989SOL    HW267975   3.675   3.023   5.331
21990SOL     OW67976   9.386   1.491   6.765
21990SOL    HW167977   9.467   1.444   6.782
21990SOL    HW267978  -1.720   1.443   6.814
21991SOL     OW67979   4.795   1.300   7.615
21991SOL    HW167980  26.946   1.274   7.557
21991SOL    HW267981  26.797   1.258   7.576
21992SOL     OW67982   2.330   7.870   2.825
21992SOL    HW167983   2.381   7.808   2.877
21992SOL    HW267984  -8.713  29.910  -8.302
21993SOL     OW67985   4.855   8.033   8.993
21993SOL    HW167986  -6.127  -3.044  20.099
21993SOL    HW267987  15.811  -3.051   9.004
21994SOL     OW67988   3.405   1.681  11.147
21994SOL    HW167989   3.438   1.651  11.232
21994SOL    HW267990  36.432   1.653   0.106
21995SOL     OW67991   5.877   4.247   2.896
21995SOL    HW167992  16.868   4.175   2.856
21995SOL    HW267993 -16.178   4.304   2.823
21996SOL     OW67994   3.702   9.764   0.630
21996SOL    HW167995   3.634   9.827   0.609
21996SOL    HW267996 -18.299   9.798   0.586
21997SOL     OW67997  10.843   6.821   1.515
21997SOL    HW167998  10.928   6.837   1.474
21997SOL    HW267999 -11.224  -4.302   1.561
21998SOL     OW68000   7.601   3.720  11.476
21998SOL    HW168001  29.732  -7.240 -32.685
21998SOL    HW268002  18.550  -7.290  11.476
21999SOL     OW68003  10.366   2.246   7.198
21999SOL    HW168004  10.365   2.341   7.182
21999SOL    HW268005  21.468  35.331   7.133
22000SOL     OW68006   2.477  10.978   5.819
22000SOL    HW168007   2.538  11.019   5.880
22000SOL    HW268008   2.481  10.885   5.841
22001SOL     OW68009   1.545  -0.473   3.083
22001SOL    HW168010   1.526  21.520  14.159
22001SOL    HW268011   1.503  -0.412  14.182
22002SOL     OW68012   6.098   9.490   4.449
22002SOL    HW168013   6.056   9.545  -6.524
22002SOL    HW268014   6.038  31.496   4.437
22003SOL     OW68015   8.903   1.395   6.176
22003SOL    HW168016   8.976   1.433  17.266
22003SOL    HW268017  -2.143   1.449  17.138
22004SOL     OW68018   8.613   9.327   3.954
22004SOL    HW168019   8.622  -1.771   3.879
22004SOL    HW268020   8.612  20.308  -7.010
22005SOL     OW68021  10.999   7.037   9.705
22005SOL    HW168022  11.093   7.027   9.688
22005SOL    HW268023  10.961   7.047   9.617
22006SOL     OW68024   0.504   6.153   2.696
22006SOL    HW168025   0.556  17.137   2.639
22006SOL    HW268026   0.415   6.147   2.660
22007SOL     OW68027  10.303   4.741   8.255
22007SOL    HW168028  -0.752   4.778   8.341
22007SOL    HW268029  -0.641 -17.338   8.246
22008SOL     OW68030   2.050  10.284  -0.054
22008SOL    HW168031   2.066  10.220  10.916
22008SOL    HW268032   1.970  10.329  -0.082
22009SOL     OW68033   5.555   4.723  11.475
22009SOL    HW168034 -16.516   4.784  11.402
22009SOL    HW268035   5.610   4.760   0.504
22010SOL     OW68036   4.388   9.263   6.365
22010SOL    HW168037   4.365   9.346   6.324
22010SOL    HW268038 -39.682   9.244  17.372
22011SOL     OW68039   6.651   8.244   4.621
22011SOL    HW168040   6.585   8.176  -6.430
22011SOL    HW268041   6.629   8.311   4.556
22012SOL     OW68042   7.060   0.735   9.119
22012SOL    HW168043   7.085   0.646   9.144
22012SOL    HW268044 -14.950   0.790   9.158
22013SOL     OW68045   8.999   6.373   9.771
22013SOL    HW168046  -1.999   6.445   9.725
22013SOL    HW268047   9.024   6.383 -12.217
22014SOL     OW68048   7.845   2.780   6.484
22014SOL    HW168049  18.892   2.697   6.438
22014SOL    HW268050   7.859   2.847   6.417
22015SOL     OW68051   0.451  10.257   2.458
22015SOL    HW168052   0.413 -11.827 -19.534
22015SOL    HW268053   0.444  10.349   2.434
22016SOL     OW68054   4.024   7.817   6.375
22016SOL    HW168055  15.010   7.857  28.386
22016SOL    HW268056   4.108   7.863  17.410
22017SOL     OW68057  10.199   1.852   0.082
22017SOL    HW168058  10.211   1.803   0.164
22017SOL    HW268059  10.232   1.793   0.014
22018SOL     OW68060   8.472   4.062   7.851
22018SOL    HW168061  30.601   4.023   7.923
22018SOL    HW268062   8.426   3.987  40.929
22019SOL     OW68063   5.835   1.536  -0.993
22019SOL    HW168064   5.842   1.618  21.134
22019SOL    HW268065   5.749   1.539  -1.035
22020SOL     OW68066   9.295   7.251   4.193
22020SOL    HW168067  20.332 -14.824 -17.790
22020SOL    HW268068 -12.863   7.298   4.165
22021SOL     OW68069   5.273   0.850   5.372
22021SOL    HW168070   5.342   0.784   5.369
22021SOL    HW268071   5.192   0.800  16.424
22022SOL     OW68072  -0.523   3.557   2.506
22022SOL    HW168073  10.450   3.619  13.515
22022SOL    HW268074  -0.527  14.602   2.602
22023SOL     OW68075   5.286  10.430   9.716
22023SOL    HW168076   5.191  10.430   9.716
22023SOL    HW268077   5.310  10.392   9.801
22024SOL     OW68078   4.539   7.167   4.412
22024SOL    HW168079   4.473   7.113   4.455
22024SOL    HW268080   4.497   7.252   4.400
22025SOL     OW68081   9.418   5.039  10.114
22025SOL    HW168082  -1.545   4.993  10.147
22025SOL    HW268083   9.392   4.989  10.036
22026SOL     OW68084   3.976   7.285   5.314
22026SOL    HW168085  -7.155   7.312 -27.806
22026SOL    HW268086   3.973   7.190   5.320
22027SOL     OW68087   8.317   4.253   1.133
22027SOL    HW168088  30.368  -6.874   1.158
22027SOL    HW268089  19.375   4.298   1.215
22028SOL     OW68090  -0.563   1.642   5.016
22028SOL    HW168091  -0.508  12.605   5.035
22028SOL    HW268092  10.393   1.623   5.059
22029SOL     OW68093  -0.536   6.348   4.806
22029SOL    HW168094  -0.516   6.313   4.892
22029SOL    HW268095  10.588   6.352   4.761
22030SOL     OW68096   7.424   2.041   4.598
22030SOL    HW168097   7.480   1.967   4.619
22030SOL    HW268098 -25.783  24.084  15.637
22031SOL     OW68099   3.238   7.660   1.539
22031SOL    HW168100 -18.855   7.732   1.601
22031SOL    HW268101  -7.765   7.702   1.461
22032SOL     OW68102  -0.141   1.004   2.510
22032SOL    HW168103  55.128   0.954  -8.569
22032SOL    HW268104  10.924  12.135 -30.620
22033SOL     OW68105   9.067   4.940   6.201
22033SOL    HW168106   9.018  15.900   6.181
22033SOL    HW268107  -1.939  27.049   6.117
22034SOL     OW68108   0.080   2.276   6.956
22034SOL    HW168109  22.099  -8.831  -4.052
22034SOL    HW268110   0.069   2.275  -4.179
22035SOL     OW68111   6.221   0.892   2.625
22035SOL    HW168112   6.256   0.968   2.671
22035SOL    HW268113   6.151   0.928  -8.470
22036SOL     OW68114   8.858   3.513   2.628
22036SOL    HW168115   8.938   3.519   2.680
22036SOL    HW268116   8.881 -18.528   2.544
22037SOL     OW68117   2.780   1.303   4.403
22037SOL    HW168118   2.865   1.275   4.370
22037SOL    HW268119   2.786  12.329   4.498
22038SOL     OW68120   6.997   4.604   6.531
22038SOL    HW168121   6.909   4.568  28.603
22038SOL    HW268122   7.034  15.635   6.443
22039SOL     OW68123   2.947   1.805   4.579
22039SOL    HW168124  13.962   1.747  -6.389
22039SOL    HW268125  13.911  -9.235   4.520
22040SOL     OW68126   7.357   3.014   1.512
22040SOL    HW168127  -3.617  -7.996   1.575
22040SOL    HW268128   7.367   3.073  23.517
22041SOL     OW68129   2.738   2.323   3.328
22041SOL    HW168130   2.758  -8.714  36.353
22041SOL    HW268131   2.824   2.313  14.410
22042SOL     OW68132   7.612   3.836   6.052
22042SOL    HW168133  29.624   3.772  39.150
22042SOL    HW268134  29.658  -7.121 -16.063
22043SOL     OW68135   5.401  10.430   7.524
22043SOL    HW168136   5.370 -11.635  29.514
22043SOL    HW268137   5.347 -11.720  18.598
22044SOL     OW68138   5.233  10.219   4.218
22044SOL    HW168139   5.320  10.237   4.254
22044SOL    HW268140   5.190 -11.774   4.215
22045SOL     OW68141   4.280   1.816   8.829
22045SOL    HW168142  15.404   1.774   8.811
22045SOL    HW268143   4.268   1.880   8.759
22046SOL     OW68144   8.088   9.140   8.771
22046SOL    HW168145   8.110   9.185  -2.350
22046SOL    HW268146   8.127   9.053   8.761
22047SOL     OW68147   4.600   9.668   9.330
22047SOL    HW168148   4.620   9.737   9.393
22047SOL    HW268149  26.761  20.658   9.322
22048SOL     OW68150   4.504  11.035   5.235
22048SOL    HW168151   4.426  11.009   5.284
22048SOL    HW268152 -28.616  11.131   5.236
22049SOL     OW68153   5.585   1.472   6.889
22049SOL    HW168154   5.609   1.564   6.883
22049SOL    HW268155   5.655  12.472  29.022
22050SOL     OW68156   7.211   6.102   7.504
22050SOL    HW168157   7.292   6.072   7.462
22050SOL    HW268158   7.157   6.023   7.510
22051SOL     OW68159   4.945  11.404   2.867
22051SOL    HW168160   4.994   0.285   2.883
22051SOL    HW268161   4.855  11.374   2.850
22052SOL     OW68162   6.134   0.224   3.404
22052SOL    HW168163   6.175   0.174  -7.706
22052SOL    HW268164   6.095   0.157 -18.618
22053SOL     OW68165   3.221  -0.472  10.979
22053SOL    HW168166   3.140  32.657  10.931
22053SOL    HW268167  -7.837 -11.579  11.044
22054SOL     OW68168   6.244   5.492   4.200
22054SOL    HW168169   6.265  16.624   4.188
22054SOL    HW268170  -4.791   5.478   4.294
22055SOL     OW68171  11.307   6.738   8.268
22055SOL    HW168172  11.221   6.720   8.306
22055SOL    HW268173 -21.774   6.651   8.251
22056SOL     OW68174  10.156   3.232   0.267
22056SOL    HW168175  10.238  25.358   0.285
22056SOL    HW268176  10.181   3.140   0.268
22057SOL     OW68177  -0.221   8.349   4.026
22057SOL    HW168178  21.824   8.417   4.085
22057SOL    HW268179  -0.147   8.390  26.061
22058SOL     OW68180   9.602   8.239   6.922
22058SOL    HW168181   9.681  -2.755   6.892
22058SOL    HW268182  20.662   8.212   7.011
22059SOL     OW68183   8.927   6.328   3.877
22059SOL    HW168184   8.959   6.352  15.003
22059SOL    HW268185  -2.170   6.253   3.893
22060SOL     OW68186   4.328  11.521   6.124
22060SOL    HW168187  -6.746  11.452   6.067
22060SOL    HW268188   4.414   0.449   6.152
22061SOL     OW68189   7.049   5.468   2.004
22061SOL    HW168190  29.141   5.551   1.960
22061SOL    HW268191   6.969  16.519  -8.985
22062SOL     OW68192   2.073   7.029  10.710
22062SOL    HW168193   2.115   6.967  10.650
22062SOL    HW268194   2.142 -15.029  -0.266
22063SOL     OW68195   6.666   6.433   6.712
22063SOL    HW168196  -4.353   6.527   6.705
22063SOL    HW268197  -4.293   6.389   6.685
22064SOL     OW68198   2.392   4.924   8.787
22064SOL    HW168199   2.471  -6.070   8.759
22064SOL    HW268200  -8.706   4.994  19.856
22065SOL     OW68201   4.416   3.131   6.861
22065SOL    HW168202   4.470   3.144   6.783
22065SOL    HW268203   4.397   3.037   6.862
22066SOL     OW68204   0.950  10.450   1.217
22066SOL    HW168205 -10.036  10.393  -9.767
22066SOL    HW268206  12.050 -11.563   1.185
22067SOL     OW68207  10.219   1.917   1.092
22067SOL    HW168208 -11.785   1.951   1.043
22067SOL    HW268209 -33.953   1.829  12.096
22068SOL     OW68210  10.162   0.817   3.273
22068SOL    HW168211  10.228  11.876   3.206
22068SOL    HW268212  10.196   0.858   3.353
22069SOL     OW68213   7.141   4.261  11.904
22069SOL    HW168214  29.197  -6.763 -10.267
22069SOL    HW268215  18.106  15.334   0.914
22070SOL     OW68216   5.860   1.402   2.960
22070SOL    HW168217  -5.183  23.440  14.085
22070SOL    HW268218  39.010   1.333   2.901
22071SOL     OW68219   7.988   7.991  10.409
22071SOL    HW168220   7.905  -3.042  10.456
22071SOL    HW268221   8.051   7.962  -0.564
22072SOL     OW68222   1.383   0.279   4.601
22072SOL    HW168223   1.377   0.341  15.569
22072SOL    HW268224   1.449  22.294   4.573
22073SOL     OW68225  10.397   6.906   7.429
22073SOL    HW168226  10.364   6.877  18.553
22073SOL    HW268227  10.476  29.035   7.450
22074SOL     OW68228   8.753   4.889   7.019
22074SOL    HW168229   8.715   4.809   6.981
22074SOL    HW268230   8.712   4.896   7.105
22075SOL     OW68231   2.983   6.741   5.606
22075SOL    HW168232  14.055   6.657   5.575
22075SOL    HW268233   3.037 -15.317   5.683
22076SOL     OW68234   4.543   8.158   9.637
22076SOL    HW168235  -6.573  -2.856   9.687
22076SOL    HW268236   4.573  19.117   9.680
22077SOL     OW68237   5.284  12.752   5.020
22077SOL    HW168238   5.370  12.793   5.031
22077SOL    HW268239  16.330 -20.414   4.937
22078SOL     OW68240   7.966   9.346   5.947
22078SOL    HW168241   8.010 -12.818   5.943
22078SOL    HW268242 -25.228   9.337 -16.190
22079SOL     OW68243   1.062   5.011   6.369
22079SOL    HW168244   1.049 -17.148   6.319
22079SOL    HW268245   1.116   5.066  28.391
22080SOL     OW68246  12.465   6.469   6.999
22080SOL    HW168247 -20.623   6.459   6.908
22080SOL    HW268248  12.531   6.525   7.040
22081SOL     OW68249   9.846   9.784   8.130
22081SOL    HW168250  31.945 -12.345  19.249
22081SOL    HW268251  -1.211   9.717  41.182
22082SOL     OW68252   8.856  10.147  11.003
22082SOL    HW168253   8.771  10.143  22.087
22082SOL    HW268254   8.920  10.128   0.032
22083SOL     OW68255   4.103   0.942   1.699
22083SOL    HW168256 -18.022   1.023   1.723
22083SOL    HW268257   4.035   0.875  12.738
22084SOL     OW68258   1.279   8.452  10.078
22084SOL    HW168259  23.388   8.524  10.133
22084SOL    HW268260   1.310   8.373  10.122
22085SOL     OW68261   1.588   9.149   3.317
22085SOL    HW168262   1.543   9.119   3.396
22085SOL    HW268263   1.675   9.109   3.323
22086SOL     OW68264   8.291   6.460   8.029
22086SOL    HW168265  -2.815   6.528   8.040
22086SOL    HW268266  -2.677   6.487   8.088
22087SOL     OW68267   3.258   1.637   0.863
22087SOL    HW168268  -7.808   1.552   0.898
22087SOL    HW268269   3.285   1.687   0.940
22088SOL     OW68270   1.954   4.944   8.447
22088SOL    HW168271  12.948   5.011   8.396
22088SOL    HW268272   1.904   4.864  19.470
22089SOL     OW68273   3.319   6.693   3.914
22089SOL    HW168274   3.282   6.605  -7.127
22089SOL    HW268275   3.354  -4.333 -18.253
22090SOL     OW68276   4.432   1.760   5.250
22090SOL    HW168277  -6.635 -20.260  16.360
22090SOL    HW268278  -6.540   1.809   5.202
22091SOL     OW68279   5.916   3.827   3.223
22091SOL    HW168280   5.854   3.761   3.254
22091SOL    HW268281   5.896   3.838   3.131
22092SOL     OW68282   7.875   4.796   3.363
22092SOL    HW168283   7.833   4.711   3.376
22092SOL    HW268284   7.968   4.775   3.353
22093SOL     OW68285   7.021   2.156   5.720
22093SOL    HW168286  -4.061   2.192   5.798
22093SOL    HW268287   7.035   2.231   5.664
22094SOL     OW68288   2.392   0.305   2.447
22094SOL    HW168289  24.554   0.349  -8.571
22094SOL    HW268290   2.325   0.371   2.464
22095SOL     OW68291  -0.144   7.272   2.171
22095SOL    HW168292  -0.186  29.355 -19.994
22095SOL    HW268293  10.977   7.224  -8.884
22096SOL     OW68294   0.702   2.458   9.939
22096SOL    HW168295   0.712   2.417   9.853
22096SOL    HW268296   0.658   2.392   9.992
22097SOL     OW68297   2.093   8.712  10.636
22097SOL    HW168298   2.144   8.782  10.677
22097SOL    HW268299   2.002   8.737  10.652
22098SOL     OW68300   7.229  10.965   8.792
22098SOL    HW168301   7.305  10.975   8.735
22098SOL    HW268302   7.154 -11.122   8.732
22099SOL     OW68303   2.536   5.355   2.627
22099SOL    HW168304  24.650  38.386   2.611
22099SOL    HW268305   2.542   5.399   2.542
22100SOL     OW68306   4.504   3.199   8.830
22100SOL    HW168307  15.609 -29.977   8.790
22100SOL    HW268308   4.485  -7.775 -13.316
22101SOL     OW68309   1.154   1.569   6.273
22101SOL    HW168310   1.157  12.676   6.341
22101SOL    HW268311   1.131   1.617   6.193
22102SOL     OW68312   5.203   4.549   0.788
22102SOL    HW168313  16.225  -6.461  22.778
22102SOL    HW268314   5.235   4.628  22.912
22103SOL     OW68315   1.828   4.977   0.484
22103SOL    HW168316   1.881  15.949   0.442
22103SOL    HW268317   1.743  -6.069   0.442
22104SOL     OW68318   3.510   1.102   4.224
22104SOL    HW168319 -18.474  34.218   4.217
22104SOL    HW268320   3.479  34.221   4.134
22105SOL     OW68321  10.891   3.592   5.991
22105SOL    HW168322  10.952   3.560  28.137
22105SOL    HW268323  -0.093   3.613   5.916
22106SOL     OW68324   9.317  10.087   4.528
22106SOL    HW168325   9.350  10.004   4.563
22106SOL    HW268326   9.287  10.066   4.440
22107SOL     OW68327  10.803   5.255   2.357
22107SOL    HW168328  -0.257   5.326   2.295
22107SOL    HW268329  10.802  16.337   2.442
22108SOL     OW68330   2.186   8.278   6.877
22108SOL    HW168331  -8.868   8.267   6.783
22108SOL    HW268332   2.193  30.268   6.911
22109SOL     OW68333   1.801   4.050   6.139
22109SOL    HW168334  12.762   3.998   6.158
22109SOL    HW268335  -9.166   3.988   6.144
22110SOL     OW68336   0.048   6.786   1.374
22110SOL    HW168337  -0.015   6.785   1.302
22110SOL    HW268338   0.130   6.814   1.334
22111SOL     OW68339   3.987   9.222   6.986
22111SOL    HW168340  -6.987   9.161   6.952
22111SOL    HW268341   4.035  -1.735   6.998
22112SOL     OW68342  11.735   9.166   5.842
22112SOL    HW168343 -10.377  20.201  16.972
22112SOL    HW268344   0.662   9.086  16.840
22113SOL     OW68345   0.006   1.743   4.409
22113SOL    HW168346  10.968   1.798   4.423
22113SOL    HW268347  22.150   1.804  15.412
22114SOL     OW68348   1.661  11.839  10.617
22114SOL    HW168349  12.643 -32.330  10.541
22114SOL    HW268350  12.782 -32.362  10.592
22115SOL     OW68351   7.051   6.876   2.839
22115SOL    HW168352  18.159  17.963   2.887
22115SOL    HW268353   6.969   6.906   2.877
22116SOL     OW68354  10.555   8.370  10.831
22116SOL    HW168355 -11.514 -13.618  10.805
22116SOL    HW268356  10.525 -35.833  10.751
22117SOL     OW68357   9.484  12.116   8.782
22117SOL    HW168358   9.517   1.063   8.693
22117SOL    HW268359   9.542  -9.898  19.859
22118SOL     OW68360   5.686  11.341   5.974
22118SOL    HW168361  -5.308  11.381   6.048
22118SOL    HW268362   5.751   0.300   5.904
22119SOL     OW68363   4.616   3.504   6.823
22119SOL    HW168364 -28.500   3.410   6.838
22119SOL    HW268365  26.756  25.620   6.887
22120SOL     OW68366   8.436   6.364   2.311
22120SOL    HW168367  -2.669  28.394  13.301
22120SOL    HW268368 -13.693   6.409   2.379
22121SOL     OW68369  10.721   4.578   9.339
22121SOL    HW168370  10.678   4.654  20.338
22121SOL    HW268371  10.779   4.544   9.271
22122SOL     OW68372   3.795   3.527   7.606
22122SOL    HW168373   3.852  -7.569   7.659
22122SOL    HW268374   3.854   3.592   7.569
22123SOL     OW68375  11.916   8.982   5.576
22123SOL    HW168376 -10.074  -2.076   5.605
22123SOL    HW268377  11.861  -2.084   5.650
22124SOL     OW68378   9.403  11.718   9.255
22124SOL    HW168379  -1.729  11.740 -12.838
22124SOL    HW268380  -1.636 -10.455   9.271
22125SOL     OW68381   0.394   3.710   5.057
22125SOL    HW168382   0.329   3.664   5.109
22125SOL    HW268383   0.438   3.768   5.118
22126SOL     OW68384   2.992   9.424   0.331
22126SOL    HW168385   3.007   9.428  11.276
22126SOL    HW268386   3.006   9.332   0.354
22127SOL     OW68387   9.202   1.390   6.953
22127SOL    HW168388   9.268  12.436   7.023
22127SOL    HW268389   9.145  12.505   6.968
22128SOL     OW68390   7.410   9.183   4.190
22128SOL    HW168391   7.392  20.269   4.108
22128SOL    HW268392   7.464   9.108   4.165
22129SOL     OW68393   9.993   7.472   1.605
22129SOL    HW168394   9.926   7.409   1.580
22129SOL    HW268395   9.994   7.470   1.701
22130SOL     OW68396   7.603   0.791   4.368
22130SOL    HW168397  29.735   0.714  26.468
22130SOL    HW268398   7.587   0.785  -6.765
22131SOL     OW68399   2.809  10.681   5.086
22131SOL    HW168400   2.733  -0.388 -17.042
22131SOL    HW268401   2.805  -0.263 -16.998
22132SOL     OW68402   2.080   5.983   5.009
22132SOL    HW168403   2.160   6.009   5.056
22132SOL    HW268404  13.139   6.003   4.918
22133SOL     OW68405   2.008  10.898   3.348
22133SOL    HW168406  13.040  10.861   3.436
22133SOL    HW268407   2.071  10.969   3.357
22134SOL     OW68408   9.441   4.027   6.438
22134SOL    HW168409   9.518   4.070   6.474
22134SOL    HW268410   9.376 -17.983   6.430
22135SOL     OW68411   6.587   0.279  10.003
22135SOL    HW168412   6.500   0.246  10.027
22135SOL    HW268413   6.587  11.316   9.907
22136SOL     OW68414   1.245   1.610   9.613
22136SOL    HW168415   1.153   1.582   9.607
22136SOL    HW268416   1.280 -20.523   9.685
22137SOL     OW68417   8.543   3.496   6.500
22137SOL    HW168418   8.599   3.419   6.490
22137SOL    HW268419   8.574   3.557   6.433
22138SOL     OW68420   6.431   8.768  10.016
22138SOL    HW168421   6.440   8.863  -1.021
22138SOL    HW268422   6.507  19.775 -12.015
22139SOL     OW68423   4.579   0.111   6.756
22139SOL    HW168424  -6.541   0.068   6.784
22139SOL    HW268425   4.553  11.204   6.681
22140SOL     OW68426  -0.072   1.916  10.489
22140SOL    HW168427  10.992  12.918  10.573
22140SOL    HW268428  -0.168  23.998  -0.548
22141SOL     OW68429   6.956   4.391   1.041
22141SOL    HW168430   6.957   4.486   1.037
22141SOL    HW268431  28.949 -17.714   1.008
22142SOL     OW68432   9.087  10.190   9.672
22142SOL    HW168433   8.999  10.159   9.655
22142SOL    HW268434  31.156  10.257  20.779
22143SOL     OW68435   6.232   1.116   6.300
22143SOL    HW168436   6.188   1.076   6.375
22143SOL    HW268437  17.287  12.246   6.327
22144SOL     OW68438   0.184   9.225   1.641
22144SOL    HW168439   0.228   9.192   1.720
22144SOL    HW268440   0.144   9.308   1.669
22145SOL     OW68441   4.288   4.316   3.522
22145SOL    HW168442   4.375   4.318   3.482
22145SOL    HW268443  -6.811   4.332   3.449
22146SOL     OW68444   2.347  10.099   4.608
22146SOL    HW168445  24.359  10.030  26.691
22146SOL    HW268446   2.400  -0.955   4.687
22147SOL     OW68447   6.348   2.755   9.260
22147SOL    HW168448   6.310  -8.237   9.187
22147SOL    HW268449   6.330   2.663   9.241
22148SOL     OW68450   5.630   8.102   8.951
22148SOL    HW168451  27.710  -3.000   9.023
22148SOL    HW268452  38.743  -2.852   8.992
22149SOL     OW68453   3.094  -0.038   1.271
22149SOL    HW168454  36.291  -0.088  12.286
22149SOL    HW268455  14.161  11.054 -20.733
22150SOL     OW68456   7.300   3.709   4.327
22150SOL    HW168457 -36.871   3.628  26.455
22150SOL    HW268458 -14.867   3.745   4.318
22151SOL     OW68459  10.093   5.338   7.990
22151SOL    HW168460  10.158   5.275  30.100
22151SOL    HW268461 -11.977   5.338 -14.184
22152SOL     OW68462  10.438   0.518   6.692
22152SOL    HW168463  10.355   0.522   6.644
22152SOL    HW268464  10.501   0.488   6.626
22153SOL     OW68465   1.982   1.882  10.421
22153SOL    HW168466   1.954   1.934  10.497
22153SOL    HW268467   2.065   1.844  -0.592
22154SOL     OW68468   3.129   2.223   0.239
22154SOL    HW168469   3.192  -8.801   0.169
22154SOL    HW268470  14.083   2.230   0.197
22155SOL     OW68471   8.276   3.861   2.154
22155SOL    HW168472 -13.769 -18.172  13.270
22155SOL    HW268473  19.279  -7.260   2.190
22156SOL     OW68474   0.105   5.961   3.749
22156SOL    HW168475   0.025   5.962   3.696
22156SOL    HW268476   0.079   6.004  14.871
22157SOL     OW68477   9.310  10.249   1.144
22157SOL    HW168478   9.396 -44.964  23.184
22157SOL    HW268479   9.248  10.213   1.081
22158SOL     OW68480   9.010   1.616   6.313
22158SOL    HW168481   9.016  12.750   6.326
22158SOL    HW268482   9.087   1.594 -15.818
22159SOL     OW68483   6.074   9.875   3.769
22159SOL    HW168484   6.062   9.887   3.675
22159SOL    HW268485   6.130   9.947   3.795
22160SOL     OW68486   1.053   2.311   5.283
22160SOL    HW168487   1.119 -30.875  -5.777
22160SOL    HW268488   1.087  24.433  -5.678
22161SOL     OW68489   4.992  12.152   0.408
22161SOL    HW168490   4.980  12.062   0.438
22161SOL    HW268491  -6.137  -9.895   0.390
22162SOL     OW68492   3.343   8.362   5.156
22162SOL    HW168493  14.474   8.379  16.219
22162SOL    HW268494   3.348   8.290   5.093
22163SOL     OW68495   2.192   7.264  10.551
22163SOL    HW168496  35.350 -25.910  -0.422
22163SOL    HW268497  -8.922   7.306  10.595
22164SOL     OW68498   6.968   9.076   4.781
22164SOL    HW168499  -4.141   9.113   4.727
22164SOL    HW268500   6.923   9.031   4.852
22165SOL     OW68501   7.657   1.245   2.321
22165SOL    HW168502 -25.395   1.177   2.320
22165SOL    HW268503 -25.487  -9.783  35.348
22166SOL     OW68504   4.047   2.723   0.417
22166SOL    HW168505  26.175   2.772   0.482
22166SOL    HW268506  26.163   2.635   0.420
22167SOL     OW68507   8.942   2.149   9.493
22167SOL    HW168508   8.880   2.087   9.455
22167SOL    HW268509   9.025   2.130  -1.590
22168SOL     OW68510   0.799   4.564   8.677
22168SOL    HW168511   0.813  15.574   8.767
22168SOL    HW268512   0.776   4.656   8.685
22169SOL     OW68513   0.031   8.208   7.626
22169SOL    HW168514   0.103  19.214   7.573
22169SOL    HW268515  -0.039 -13.937  -3.422
22170SOL     OW68516   8.556   3.417   7.555
22170SOL    HW168517   8.484 -18.719  -3.457
22170SOL    HW268518  -2.500   3.433   7.462
22171SOL     OW68519  10.642  12.458   5.091
22171SOL    HW168520  10.664   1.437   5.182
22171SOL    HW268521  10.725 -20.686   5.050
22172SOL     OW68522   5.404   8.980   0.541
22172SOL    HW168523 -27.801   8.943   0.559
22172SOL    HW268524   5.424   9.031   0.619
22173SOL     OW68525   5.166   4.718   3.615
22173SOL    HW168526   5.229   4.731  14.583
22173SOL    HW268527  16.215  15.836  14.709
22174SOL     OW68528   5.876   1.947  -0.642
22174SOL    HW168529   5.860   2.020  21.378
22174SOL    HW268530  16.966   1.985  -0.570
22175SOL     OW68531   0.896   0.618   0.258
22175SOL    HW168532   0.849   0.616   0.174
22175SOL    HW268533   0.986   0.594   0.235
22176SOL     OW68534  -0.582   8.467   5.827
22176SOL    HW168535  -0.540 -13.556 -27.227
22176SOL    HW268536  10.501   8.489   5.744
22177SOL     OW68537   5.356   6.763   0.576
22177SOL    HW168538   5.270   6.807   0.579
22177SOL    HW268539   5.368   6.738   0.485
22178SOL     OW68540   5.469   8.301   1.233
22178SOL    HW168541   5.462  -2.705   1.143
22178SOL    HW268542   5.436   8.211   1.226
22179SOL     OW68543  10.308   9.824   9.320
22179SOL    HW168544  10.385 -12.221  20.316
22179SOL    HW268545  10.326   9.836   9.413
22180SOL     OW68546   3.722  10.324  11.241
22180SOL    HW168547   3.699  10.329   0.294
22180SOL    HW268548 -18.342  10.231  11.225
22181SOL     OW68549   2.688   1.020   6.408
22181SOL    HW168550   2.607   1.051   6.367
22181SOL    HW268551   2.758   1.058   6.355
22182SOL     OW68552   0.096   9.740   7.707
22182SOL    HW168553  44.237   9.791   7.628
22182SOL    HW268554  44.190   9.772   7.770
22183SOL     OW68555   3.997   5.686   5.033
22183SOL    HW168556   4.020  38.845   4.949
22183SOL    HW268557   4.020   5.751  16.138
22184SOL     OW68558   7.584   6.764   2.145
22184SOL    HW168559   7.556   6.679  -8.859
22184SOL    HW268560   7.513  28.903  24.247
22185SOL     OW68561   8.597  -1.347   7.227
22185SOL    HW168562  -2.531  -1.352   7.265
22185SOL    HW268563   8.652  31.726   7.291
22186SOL     OW68564   4.229   6.006   9.564
22186SOL    HW168565   4.211   5.980   9.473
22186SOL    HW268566   4.144 -27.085   9.598
22187SOL     OW68567   2.382   2.176   3.775
22187SOL    HW168568   2.411   2.128 -29.266
22187SOL    HW268569   2.421   2.263 -18.295
22188SOL     OW68570   9.594   3.116   4.079
22188SOL    HW168571   9.546   3.034   4.081
22188SOL    HW268572   9.575   3.153   3.992
22189SOL     OW68573   4.628   6.594   4.960
22189SOL    HW168574   4.670   6.675  27.067
22189SOL    HW268575   4.559   6.579   5.025
22190SOL     OW68576  10.629   3.681  -2.401
22190SOL    HW168577  10.635   3.776  -2.389
22190SOL    HW268578  10.618   3.669  41.663
22191SOL     OW68579   3.288  10.512   4.176
22191SOL    HW168580  14.392  10.506  15.145
22191SOL    HW268581  14.249  10.546   4.133
22192SOL     OW68582   3.148  11.449  -1.744
22192SOL    HW168583   3.184  11.530  31.337
22192SOL    HW268584   3.079   0.439  -1.685
22193SOL     OW68585   3.706   8.806   9.831
22193SOL    HW168586   3.643  19.777 -12.271
22193SOL    HW268587  -7.260  19.799   9.871
22194SOL     OW68588   1.727   9.939   7.410
22194SOL    HW168589   1.765 -23.102   7.450
22194SOL    HW268590   1.676   9.898  -3.560
22195SOL     OW68591   4.342   5.976   5.633
22195SOL    HW168592   4.333   6.026   5.551
22195SOL    HW268593   4.427  -5.106   5.626
22196SOL     OW68594   1.370  10.030   6.902
22196SOL    HW168595  12.414   9.945  17.984
22196SOL    HW268596   1.312  10.017   6.827
22197SOL     OW68597   3.398   6.209   1.883
22197SOL    HW168598   3.429  17.282   1.799
22197SOL    HW268599   3.303  17.250   1.876
22198SOL     OW68600   7.750  10.177   0.225
22198SOL    HW168601   7.773  10.085   0.239
22198SOL    HW268602   7.811  10.225  22.359
22199SOL     OW68603   8.873   4.264   2.359
22199SOL    HW168604 -24.280  15.322   2.446
22199SOL    HW268605  -2.233   4.297  13.339
22200SOL     OW68606   2.815   8.345   7.295
22200SOL    HW168607   2.778   8.409  18.396
22200SOL    HW268608   2.877   8.396   7.243
22201SOL     OW68609  10.181   2.244  10.854
22201SOL    HW168610  10.111   2.183  10.876
22201SOL    HW268611  -0.858   2.306  -0.113
22202SOL     OW68612   0.607   2.456  10.238
22202SOL    HW168613   0.676  24.477  21.246
22202SOL    HW268614   0.557   2.402  10.299
22203SOL     OW68615   7.957   9.308   4.088
22203SOL    HW168616   7.959  -1.826   4.069
22203SOL    HW268617   7.920  -1.692   4.009
22204SOL     OW68618   5.323   4.305   5.046
22204SOL    HW168619   5.414  15.359   5.020
22204SOL    HW268620   5.281   4.270   4.968
22205SOL     OW68621   2.745   2.686   5.104
22205SOL    HW168622   2.683  -8.398  27.125
22205SOL    HW268623  -8.272  13.806   5.057
22206SOL     OW68624   7.633  12.389   5.370
22206SOL    HW168625   7.562  12.445   5.401
22206SOL    HW268626 -14.399 -20.676   5.306
22207SOL     OW68627  -0.112   5.321   8.679
22207SOL    HW168628  10.908   5.252  19.781
22207SOL    HW268629  -0.197   5.348   8.644
22208SOL     OW68630  10.563   5.987   5.058
22208SOL    HW168631  10.616   6.063   5.082
22208SOL    HW268632  10.621  -5.127  16.109
22209SOL     OW68633   6.976   2.693   0.350
22209SOL    HW168634  17.941  -8.392 -10.729
22209SOL    HW268635   6.981  -8.264  11.342
22210SOL     OW68636   6.220   2.106   6.447
22210SOL    HW168637  17.341   2.137   6.407
22210SOL    HW268638   6.168   2.185  17.500
22211SOL     OW68639   6.452   9.033   3.474
22211SOL    HW168640   6.498   9.032   3.390
22211SOL    HW268641   6.504   8.975   3.530
22212SOL     OW68642  -0.353   7.180   3.877
22212SOL    HW168643  -0.388   7.164   3.789
22212SOL    HW268644  32.720   7.117   3.933
22213SOL     OW68645   1.882   8.465   5.584
22213SOL    HW168646   1.969 -24.693  -5.466
22213SOL    HW268647  -9.162   8.490   5.676
22214SOL     OW68648   2.210  10.521   1.163
22214SOL    HW168649   2.115  10.525  -9.866
22214SOL    HW268650 -19.839  10.609   1.186
22215SOL     OW68651   7.247  -0.413   8.383
22215SOL    HW168652  -3.866  -0.364   8.346
22215SOL    HW268653   7.207  10.558   8.437
22216SOL     OW68654   8.992   8.024   7.191
22216SOL    HW168655   9.039   8.046  -3.768
22216SOL    HW268656   9.023   8.088   7.127
22217SOL     OW68657  10.023   8.720   9.955
22217SOL    HW168658  10.023   8.700  21.088
22217SOL    HW268659   9.984   8.643   9.914
22218SOL     OW68660   6.580   1.622   2.594
22218SOL    HW168661  -4.452   1.553   2.529
22218SOL    HW268662   6.584   1.703   2.543
22219SOL     OW68663  -1.206   6.541   0.842
22219SOL    HW168664  31.821  17.554   0.847
22219SOL    HW268665   9.835   6.609   0.774
22220SOL     OW68666  10.703   1.642   3.314
22220SOL    HW168667  -0.369  -9.325  -7.778
22220SOL    HW268668  10.794  12.670   3.286
22221SOL     OW68669   7.640   8.712  12.015
22221SOL    HW168670   7.694  30.869 -21.115
22221SOL    HW268671   7.639  19.736  12.109
22222SOL     OW68672   6.846   5.887   5.231
22222SOL    HW168673  17.889  -5.165  -5.904
22222SOL    HW268674   6.935  16.952   5.255
22223SOL     OW68675   5.424   5.359   9.719
22223SOL    HW168676  -5.575  16.320  20.721
22223SOL    HW268677  -5.698  16.368   9.756
22224SOL     OW68678   9.885  10.278   1.481
22224SOL    HW168679   9.844  10.258  12.436
22224SOL    HW268680  20.974  10.358  -9.575
22225SOL     OW68681   8.219   0.687   1.447
22225SOL    HW168682 -13.836   0.640  23.606
22225SOL    HW268683   8.284  11.796   1.439
22226SOL     OW68684   6.146   6.611  11.381
22226SOL    HW168685  28.230  50.805  11.293
22226SOL    HW268686 -49.134   6.644   0.377
22227SOL     OW68687   0.060   6.913   6.861
22227SOL    HW168688  -0.031   6.917  17.929
22227SOL    HW268689  11.114  28.899   6.840
22228SOL     OW68690   2.623   0.760   3.069
22228SOL    HW168691   2.539 -10.267  14.063
22228SOL    HW268692  13.725   0.739   2.999
22229SOL     OW68693   2.781   7.253   1.298
22229SOL    HW168694   2.742  18.261   1.216
22229SOL    HW268695   2.853   7.310   1.270
22230SOL     OW68696   3.108   3.694  10.261
22230SOL    HW168697   3.136  -7.331  10.352
22230SOL    HW268698  -8.026   3.707  10.263
22231SOL     OW68699   3.014  10.262   2.717
22231SOL    HW168700   2.981  10.292  -8.238
22231SOL    HW268701   2.937  10.225   2.673
22232SOL     OW68702   4.739   8.453  10.125
22232SOL    HW168703   4.808   8.408  10.174
22232SOL    HW268704   4.709   8.387  10.062
22233SOL     OW68705   3.514   5.350   5.582
22233SOL    HW168706   3.429  27.387  16.609
22233SOL    HW268707   3.497  -5.597  27.642
22234SOL     OW68708   7.281   6.811   3.066
22234SOL    HW168709   7.223 -26.307   3.141
22234SOL    HW268710   7.294   6.719   3.046
22235SOL     OW68711   2.147   1.669   3.660
22235SOL    HW168712   2.099  -9.313   3.601
22235SOL    HW268713   2.119   1.580   3.636
22236SOL     OW68714   8.179   5.892   7.590
22236SOL    HW168715   8.117   5.929   7.527
22236SOL    HW268716   8.254   5.951 -14.491
22237SOL     OW68717   6.606   9.126   5.643
22237SOL    HW168718   6.532   9.186  16.692
22237SOL    HW268719   6.680  20.210  16.723
22238SOL     OW68720   0.006   6.030   1.618
22238SOL    HW168721   0.013   6.047   1.712
22238SOL    HW268722  -0.043   6.105 -20.495
22239SOL     OW68723   8.902  10.163   1.721
22239SOL    HW168724   8.897  10.067   1.729
22239SOL    HW268725   8.840  -0.855 -20.428
22240SOL     OW68726   9.209  10.343  10.953
22240SOL    HW168727  20.272  10.434  10.934
22240SOL    HW268728   9.196  10.340  11.047
22241SOL     OW68729   6.377   9.131   7.350
22241SOL    HW168730   6.460 -12.926   7.309
22241SOL    HW268731   6.320   9.205 -14.749
22242SOL     OW68732   3.561   2.825   2.146
22242SOL    HW168733  25.607   2.753   2.093
22242SOL    HW268734 -29.590   2.807   2.234
22243SOL     OW68735   9.426   6.428   7.546
22243SOL    HW168736   9.406   6.481   7.623
22243SOL    HW268737   9.514   6.455   7.520
22244SOL     OW68738  11.033   9.391   2.963
22244SOL    HW168739  11.049   9.324  14.069
22244SOL    HW268740  11.031   9.473   3.012
22245SOL     OW68741   8.847   1.108   9.230
22245SOL    HW168742   8.847   1.149   9.316
22245SOL    HW268743  -2.103   1.118   9.197
22246SOL     OW68744   6.501   3.769   4.512
22246SOL    HW168745   6.482  14.722   4.475
22246SOL    HW268746   6.586   3.793   4.475
22247SOL     OW68747   7.138  10.582   5.777
22247SOL    HW168748   7.077  10.513   5.803
22247SOL    HW268749   7.084  10.661   5.770
22248SOL     OW68750  11.411   7.317   6.238
22248SOL    HW168751   0.406   7.231   6.213
22248SOL    HW268752  11.347   7.338  -4.870
22249SOL     OW68753  10.663   8.921   2.925
22249SOL    HW168754  21.721   8.977   2.849
22249SOL    HW268755  -0.451   8.962   2.968
22250SOL     OW68756   8.313   2.173   2.839
22250SOL    HW168757   8.360  13.156  24.855
22250SOL    HW268758 -13.792   2.113   2.909
22251SOL     OW68759  -0.079   7.395   5.446
22251SOL    HW168760  -0.057   7.443  27.446
22251SOL    HW268761  10.891  -3.705   5.420
22252SOL     OW68762   0.672   7.210   7.395
22252SOL    HW168763  11.721   7.156   7.316
22252SOL    HW268764  11.626   7.187   7.430
22253SOL     OW68765   9.637   2.855   7.579
22253SOL    HW168766   9.555   2.902   7.593
22253SOL    HW268767 -12.464   2.784   7.519
22254SOL     OW68768   6.493   9.065   1.770
22254SOL    HW168769   6.575   9.113   1.756
22254SOL    HW268770  -4.538   8.986   1.716
22255SOL     OW68771   7.710   2.794  11.024
22255SOL    HW168772   7.662   2.867  10.984
22255SOL    HW268773   7.795   2.795  10.980
22256SOL     OW68774  10.784   2.497   1.959
22256SOL    HW168775  -0.174   2.448   1.952
22256SOL    HW268776  10.784  -8.486   1.882
22257SOL     OW68777   1.133   6.249   7.667
22257SOL    HW168778   1.083  28.315  18.787
22257SOL    HW268779   1.198   6.178  18.706
22258SOL     OW68780  10.350   4.225   1.131
22258SOL    HW168781  10.409   4.152  23.196
22258SOL    HW268782  10.403   4.303   1.115
22259SOL     OW68783   8.886  11.042   8.374
22259SOL    HW168784   8.862 -33.204  19.384
22259SOL    HW268785   8.971  11.031  19.457
22260SOL     OW68786  11.242   5.759   4.720
22260SOL    HW168787 -10.872   5.691   4.777
22260SOL    HW268788  11.184  -5.281   4.643
22261SOL     OW68789   9.758   3.687   7.574
22261SOL    HW168790  -1.340   3.689   7.650
22261SOL    HW268791   9.777   3.594   7.561
22262SOL     OW68792   3.363  11.592   1.714
22262SOL    HW168793   3.321   0.629   1.676
22262SOL    HW268794   3.386   0.580   1.803
22263SOL     OW68795   1.851  10.769   0.690
22263SOL    HW168796   1.933  -0.248   0.646
22263SOL    HW268797   1.857  10.813   0.775
22264SOL     OW68798   8.269  11.507   2.320
22264SOL    HW168799  19.316   0.431 -30.887
22264SOL    HW268800  19.219  11.488   2.346
22265SOL     OW68801  12.560   3.909   3.254
22265SOL    HW168802 -20.586   3.986   3.305
22265SOL    HW268803   1.516   3.836   3.316
22266SOL     OW68804   8.332   3.956   9.381
22266SOL    HW168805   8.274   3.884   9.406
22266SOL    HW268806  19.312  -7.012   9.357
22267SOL     OW68807   9.580   4.145   5.387
22267SOL    HW168808  -1.409   4.216  -5.613
22267SOL    HW268809 -12.439   4.101  -5.711
22268SOL     OW68810   2.271   4.263   0.000
22268SOL    HW168811   2.282   4.238  22.172
22268SOL    HW268812   2.286   4.357  33.118
22269SOL     OW68813   0.447   8.998  -0.358
22269SOL    HW168814  11.464   8.952  21.640
22269SOL    HW268815   0.366   8.997  -0.307
22270SOL     OW68816   5.174   1.722   0.062
22270SOL    HW168817   5.188   1.649   0.123
22270SOL    HW268818   5.258   1.732  11.057
22271SOL     OW68819   4.927   9.624   9.548
22271SOL    HW168820   4.999   9.587   9.598
22271SOL    HW268821   4.849  31.686   9.600
22272SOL     OW68822   0.748   7.894   2.699
22272SOL    HW168823   0.682  29.986   2.766
22272SOL    HW268824  22.902   7.857  -8.294
22273SOL     OW68825  10.254   5.628  -0.471
22273SOL    HW168826  10.310   5.673  21.672
22273SOL    HW268827  10.239   5.542  -0.432
22274SOL     OW68828  -0.062   0.705   5.801
22274SOL    HW168829  -0.031   0.761   5.872
22274SOL    HW268830  10.932   0.633   5.846
22275SOL     OW68831   2.375   6.130   5.741
22275SOL    HW168832  13.319   6.141  -5.297
22275SOL    HW268833   2.388   6.037   5.723
22276SOL     OW68834   3.380   6.905   0.996
22276SOL    HW168835   3.299  17.915   0.953
22276SOL    HW268836   3.407   6.981   0.946
22277SOL     OW68837   5.635   5.482   0.946
22277SOL    HW168838   5.714   5.456  22.977
22277SOL    HW268839   5.587   5.538   0.885
22278SOL     OW68840   1.345  10.819   9.460
22278SOL    HW168841   1.423  10.798   9.510
22278SOL    HW268842   1.274  10.773  20.545
22279SOL     OW68843   3.742   5.832   6.618
22279SOL    HW168844  14.740   5.773  -4.358
22279SOL    HW268845   3.695   5.815  -4.503
22280SOL     OW68846   0.821  10.799   4.679
22280SOL    HW168847   0.896  10.859   4.678
22280SOL    HW268848   0.850  -0.315   4.626
22281SOL     OW68849   4.959  12.719   6.428
22281SOL    HW168850   4.923  -9.408   6.503
22281SOL    HW268851   4.986   1.611   6.367
22282SOL     OW68852   7.930   3.249   4.968
22282SOL    HW168853  30.039   3.165  27.011
22282SOL    HW268854  -3.094 -18.838   5.062
22283SOL     OW68855   9.346  -0.728   0.772
22283SOL    HW168856   9.417  10.308   0.707
22283SOL    HW268857   9.379  10.261   0.846
22284SOL     OW68858   1.483  10.308   3.139
22284SOL    HW168859  23.622  10.240   3.108
22284SOL    HW268860   1.460  10.281   3.227
22285SOL     OW68861   8.707   0.355   2.702
22285SOL    HW168862   8.682   0.424  -8.276
22285SOL    HW268863   8.632   0.346  24.723
22286SOL     OW68864   9.120   3.886   9.881
22286SOL    HW168865   9.191   3.847   9.830
22286SOL    HW268866   9.141 -29.254   9.972
22287SOL     OW68867   4.941   6.984   6.760
22287SOL    HW168868   4.976  73.150 -26.305
22287SOL    HW268869  15.967   7.056  -4.219
22288SOL     OW68870   2.907   8.111   6.821
22288SOL    HW168871  24.938   8.183   6.862
22288SOL    HW268872   2.983   8.153   6.780
22289SOL     OW68873   4.714   9.727   0.107
22289SOL    HW168874   4.744  -1.403   0.116
22289SOL    HW268875   4.761 -12.319   0.031
22290SOL     OW68876  -0.473  11.400   5.058
22290SOL    HW168877  -0.550  11.456  16.087
22290SOL    HW268878  32.687 -21.687   5.138
22291SOL     OW68879   1.775   5.661   2.893
22291SOL    HW168880   1.680  16.687   2.896
22291SOL    HW268881   1.794  27.764   2.803
22292SOL     OW68882   3.944   3.731   0.481
22292SOL    HW168883  14.965   3.818   0.448
22292SOL    HW268884  15.079   3.726   0.486
22293SOL     OW68885   6.955   1.529  11.019
22293SOL    HW168886  17.986   1.580  -0.102
22293SOL    HW268887  18.089   1.521  -0.008
22294SOL     OW68888   9.731   8.242   3.909
22294SOL    HW168889  -1.349   8.248   3.996
22294SOL    HW268890 -12.283 -13.767   3.909
22295SOL     OW68891   3.718  10.561   9.175
22295SOL    HW168892 -18.424 -22.543  20.143
22295SOL    HW268893   3.801  10.545 -12.948
22296SOL     OW68894  10.723   4.334   7.858
22296SOL    HW168895  10.776   4.395  29.988
22296SOL    HW268896  10.729  -6.675   7.768
22297SOL     OW68897   6.744   1.139   3.587
22297SOL    HW168898   6.810   1.072  14.644
22297SOL    HW268899   6.795   1.219   3.569
22298SOL     OW68900  10.777   7.621  -0.106
22298SOL    HW168901  10.784 -14.368  -0.073
22298SOL    HW268902  10.691  -3.448  10.962
22299SOL     OW68903   9.020   7.933   1.712
22299SOL    HW168904 -24.099   7.981   1.795
22299SOL    HW268905 -13.015   7.851   1.731
22300SOL     OW68906   7.601   7.167  -1.294
22300SOL    HW168907   7.673   7.204  20.734
22300SOL    HW268908   7.633   7.169   9.836
22301SOL     OW68909   3.082   9.253   8.062
22301SOL    HW168910  14.213   9.263  19.128
22301SOL    HW268911  14.078   9.215   8.138
22302SOL     OW68912   9.415   6.277   8.783
22302SOL    HW168913   9.358  -4.704  -2.206
22302SOL    HW268914   9.430  17.363  -2.339
22303SOL     OW68915   2.476  10.597   2.012
22303SOL    HW168916   2.437  10.511  35.114
22303SOL    HW268917  -8.623 -11.442  13.115
22304SOL     OW68918   8.055   8.361   1.521
22304SOL    HW168919   8.024   8.361   1.431
22304SOL    HW268920   8.009   8.435   1.562
22305SOL     OW68921   4.279   7.242   5.237
22305SOL    HW168922   4.300   7.166   5.184
22305SOL    HW268923   4.363   7.285   5.252
22306SOL     OW68924   5.410   4.429   4.717
22306SOL    HW168925   5.488   4.384   4.685
22306SOL    HW268926   5.436   4.521   4.723
22307SOL     OW68927   3.071   4.746   5.025
22307SOL    HW168928   3.006 -17.401   5.042
22307SOL    HW268929  -8.013   4.810   4.970
22308SOL     OW68930   2.355   2.763   5.064
22308SOL    HW168931  -8.618  24.780  16.074
22308SOL    HW268932   2.309  13.756  27.213
22309SOL     OW68933   8.950   8.462   5.666
22309SOL    HW168934   8.970   8.432  49.736
22309SOL    HW268935  19.913   8.412  16.732
22310SOL     OW68936   9.726   7.721   1.142
22310SOL    HW168937   9.693   7.796  -9.848
22310SOL    HW268938   9.808  -3.342   1.186
22311SOL     OW68939   4.547  10.049   9.050
22311SOL    HW168940   4.494  10.086   9.121
22311SOL    HW268941   4.504  10.080   8.970
22312SOL     OW68942   0.898   8.341   2.976
22312SOL    HW168943   0.888   8.409   3.042
22312SOL    HW268944   0.810 -13.751   2.942
22313SOL     OW68945   4.483   6.874   4.861
22313SOL    HW168946   4.461   6.807  15.835
22313SOL    HW268947  26.649   6.905   4.834
22314SOL     OW68948   1.941   9.179   8.092
22314SOL    HW168949   1.895   9.262  19.123
22314SOL    HW268950  -9.062 -12.917  19.044
22315SOL     OW68951   1.012   4.488   5.485
22315SOL    HW168952  12.079  15.584  -5.482
22315SOL    HW268953  23.171  26.525   5.455
22316SOL     OW68954   7.575  10.343   2.897
22316SOL    HW168955   7.548  10.435  -8.134
22316SOL    HW268956   7.619  10.339   2.812
22317SOL     OW68957   8.254   8.365   3.575
22317SOL    HW168958   8.239   8.363   3.480
22317SOL    HW268959   8.349  -2.663   3.584
22318SOL     OW68960  10.634   1.661   4.220
22318SOL    HW168961  10.609   1.740   4.172
22318SOL    HW268962 -11.383  12.732   4.286
22319SOL     OW68963   6.319   4.139   9.394
22319SOL    HW168964   6.333 -17.919   9.486
22319SOL    HW268965  -4.641  -6.948   9.368
22320SOL     OW68966   0.509   1.111   9.128
22320SOL    HW168967   0.583   1.052   9.138
22320SOL    HW268968   0.485   1.136 -23.902
22321SOL     OW68969   4.660  10.009   9.911
22321SOL    HW168970   4.698   9.950   9.846
22321SOL    HW268971   4.606  10.069   9.860
22322SOL     OW68972   2.756   1.776   1.474
22322SOL    HW168973   2.818   1.713  -9.601
22322SOL    HW268974   2.720   1.821   1.397
22323SOL     OW68975   7.049   8.356   8.245
22323SOL    HW168976  -3.990  19.306   8.280
22323SOL    HW268977   6.987   8.354 -13.907
22324SOL     OW68978   5.306   3.410   2.771
22324SOL    HW168979   5.250 -18.746   2.759
22324SOL    HW268980  27.399   3.416   2.866
22325SOL     OW68981   1.644   5.382   8.884
22325SOL    HW168982   1.702 -27.812   8.897
22325SOL    HW268983   1.588   5.356   8.811
22326SOL     OW68984   1.060   4.640   5.711
22326SOL    HW168985  34.132   4.565   5.748
22326SOL    HW268986  23.225   4.638  27.832
22327SOL     OW68987   7.480   0.346   0.207
22327SOL    HW168988   7.402   0.399  11.234
22327SOL    HW268989   7.460   0.262   0.166
22328SOL     OW68990  11.253   5.508   2.622
22328SOL    HW168991   0.300   5.549 -19.466
22328SOL    HW268992  11.197 -16.501   2.657
22329SOL     OW68993   3.024   3.868   0.406
22329SOL    HW168994   3.111   3.828  11.441
22329SOL    HW268995   2.964   3.794   0.409
22330SOL     OW68996   2.041   2.881   1.814
22330SOL    HW168997   2.118  36.056   1.823
22330SOL    HW268998  13.052   2.895   1.724
22331SOL     OW68999   8.541   7.952   4.312
22331SOL    HW169000   8.596  -3.133 -17.704
22331SOL    HW269001   8.545   8.044   4.338
22332SOL     OW69002   3.496   5.413  10.987
22332SOL    HW169003  14.442   5.422  11.008
22332SOL    HW269004   3.500   5.429  10.892
22333SOL     OW69005   8.586   0.117   5.598
22333SOL    HW169006  19.591   0.032   5.570
22333SOL    HW269007   8.628   0.153   5.520
22334SOL     OW69008   9.487  10.133   4.087
22334SOL    HW169009   9.508  10.075   4.014
22334SOL    HW269010  31.631 -33.956   4.082
22335SOL     OW69011   4.896   8.472   3.584
22335SOL    HW169012   4.856  -2.533  14.544
22335SOL    HW269013   4.830 -13.667   3.620
22336SOL     OW69014   1.824   6.336   9.610
22336SOL    HW169015   1.856   6.411   9.660
22336SOL    HW269016  12.858   6.368   9.520
22337SOL     OW69017  11.321   3.508  10.385
22337SOL    HW169018  11.393   3.480  10.328
22337SOL    HW269019   0.210   3.448  10.364
22338SOL     OW69020   4.837   4.306   6.132
22338SOL    HW169021 -28.364  -6.758  17.129
22338SOL    HW269022   4.811   4.370   6.199
22339SOL     OW69023   7.999   0.902   9.467
22339SOL    HW169024   8.051   0.833   9.426
22339SOL    HW269025   8.062   0.951   9.520
22340SOL     OW69026   9.642   1.172   2.888
22340SOL    HW169027 -45.581  23.313  -8.082
22340SOL    HW269028   9.643  -9.953  13.971
22341SOL     OW69029   7.687   9.392   3.189
22341SOL    HW169030   7.728   9.383   3.103
22341SOL    HW269031  -3.348   9.485   3.208
22342SOL     OW69032   3.537   6.663   2.919
22342SOL    HW169033   3.570   6.645   2.831
22342SOL    HW269034   3.462   6.605  13.969
22343SOL     OW69035   1.628  11.250   2.581
22343SOL    HW169036   1.579   0.180   2.657
22343SOL    HW269037  23.788  11.286  13.657
22344SOL     OW69038   0.048   5.834   0.891
22344SOL    HW169039   0.047  16.790   0.844
22344SOL    HW269040   0.108   5.820  12.004
22345SOL     OW69041   0.980   5.591   1.025
22345SOL    HW169042   0.963   5.596   0.931
22345SOL    HW269043   0.893   5.594   1.065
22346SOL     OW69044   5.413   4.899  -1.508
22346SOL    HW169045   5.337   4.949  31.580
22346SOL    HW269046  -5.561   4.965  -1.487
22347SOL     OW69047   0.709   1.793   1.559
22347SOL    HW169048 -10.274   1.864   1.528
22347SOL    HW269049   0.763   1.715  34.672
22348SOL     OW69050   1.460   0.596  11.988
22348SOL    HW169051   1.534   0.644 -10.127
22348SOL    HW269052 -20.681  11.704 -10.065
22349SOL     OW69053  10.759   5.705   7.963
22349SOL    HW169054 -11.356   5.748  -2.999
22349SOL    HW269055  10.751   5.770   7.894
22350SOL     OW69056   1.996   7.848   4.933
22350SOL    HW169057  -9.021  18.924  16.058
22350SOL    HW269058   1.924   7.903   4.901
22351SOL     OW69059  10.257  10.405   6.504
22351SOL    HW169060  10.177  10.457   6.498
22351SOL    HW269061  -0.719  10.464  -4.495
22352SOL     OW69062   3.845   8.517  10.407
22352SOL    HW169063   3.908   8.552  -0.695
22352SOL    HW269064  14.872  19.466  10.380
22353SOL     OW69065   1.744   8.361   0.154
22353SOL    HW169066   1.652   8.337   0.140
22353SOL    HW269067   1.751  -2.588   0.124
22354SOL     OW69068   9.811   7.895   7.120
22354SOL    HW169069   9.802  18.936   7.025
22354SOL    HW269070   9.724   7.869   7.152
22355SOL     OW69071   0.100   4.316   5.204
22355SOL    HW169072   0.156   4.280   5.272
22355SOL    HW269073   0.065   4.239   5.158
22356SOL     OW69074  10.021   7.693  10.010
22356SOL    HW169075  10.001  -3.381   9.923
22356SOL    HW269076  10.093   7.754   9.996
22357SOL     OW69077   4.767   4.526   9.431
22357SOL    HW169078  15.804   4.529 -34.822
22357SOL    HW269079  15.753   4.599 -23.659
22358SOL     OW69080   8.877   3.231   2.561
22358SOL    HW169081   8.878  -7.714   2.570
22358SOL    HW269082  -2.082 -18.869   2.513
22359SOL     OW69083  10.750   9.076   2.698
22359SOL    HW169084  10.761   9.171  24.790
22359SOL    HW269085  10.736   9.066   2.604
22360SOL     OW69086   3.278   6.228  10.474
22360SOL    HW169087   3.371   6.208  10.480
22360SOL    HW269088   3.263  17.331  10.544
22361SOL     OW69089   5.086   6.263   1.515
22361SOL    HW169090   5.110  -4.751   1.425
22361SOL    HW269091   5.145  17.230   1.535
22362SOL     OW69092   1.455   6.956   7.563
22362SOL    HW169093   1.386   6.891   7.577
22362SOL    HW269094   1.409   7.033   7.530
22363SOL     OW69095   0.936   5.237   9.030
22363SOL    HW169096 -21.076  -5.742   9.000
22363SOL    HW269097  22.946 -16.838   8.964
22364SOL     OW69098  -0.311   9.150   3.939
22364SOL    HW169099 -11.338   9.079  14.915
22364SOL    HW269100  32.782   9.225  25.966
22365SOL     OW69101   9.652   6.582   4.614
22365SOL    HW169102  -1.353   6.546   4.695
22365SOL    HW269103   9.557   6.587  -6.411
22366SOL     OW69104   0.673   9.159   6.742
22366SOL    HW169105   0.719  20.124   6.782
22366SOL    HW269106 -10.403   9.207   6.816
22367SOL     OW69107   4.726   5.429   5.825
22367SOL    HW169108   4.746   5.520  -5.193
22367SOL    HW269109   4.799  -5.638 -16.310
22368SOL     OW69110   2.694   0.593   2.670
22368SOL    HW169111 -19.342   0.678   2.657
22368SOL    HW269112   2.647   0.578   2.588
22369SOL     OW69113   1.854  10.240   9.074
22369SOL    HW169114   1.948  10.259  31.148
22369SOL    HW269115   1.824  10.245   8.984
22370SOL     OW69116   2.305   1.933   3.599
22370SOL    HW169117   2.373   1.877   3.636
22370SOL    HW269118  -8.743  -9.035  14.702
22371SOL     OW69119   9.826   5.216  10.779
22371SOL    HW169120   9.782   5.182  10.856
22371SOL    HW269121   9.802   5.309  10.777
22372SOL     OW69122   5.081   6.902   9.994
22372SOL    HW169123 -17.023   6.993  10.012
22372SOL    HW269124   5.163 -15.169   9.945
22373SOL     OW69125   3.045   1.909   7.076
22373SOL    HW169126   2.953   1.901   7.053
22373SOL    HW269127  -7.993  -9.135   7.172
22374SOL     OW69128   7.700   3.788   4.080
22374SOL    HW169129   7.675   3.862 -18.055
22374SOL    HW269130 -14.311   3.743   4.031
22375SOL     OW69131   6.568  10.393   1.977
22375SOL    HW169132 -15.591  10.392 -31.088
22375SOL    HW269133  -4.404  10.359   2.035
22376SOL     OW69134   5.427   5.800   4.458
22376SOL    HW169135   5.445   5.709   4.479
22376SOL    HW269136   5.514  16.881   4.453
22377SOL     OW69137   4.819   2.883   1.308
22377SOL    HW169138   4.773   2.831   1.242
22377SOL    HW269139   4.750   2.910   1.369
22378SOL     OW69140  10.127   6.446   3.769
22378SOL    HW169141  10.168 -15.711   3.732
22378SOL    HW269142  -0.873   6.455   3.856
22379SOL     OW69143   1.778   6.733   4.038
22379SOL    HW169144   1.693  17.809 -18.016
22379SOL    HW269145  -9.235   6.681   4.114
22380SOL     OW69146   0.490   4.528  11.344
22380SOL    HW169147  11.494   4.517   0.216
22380SOL    HW269148  11.564 -17.462  11.345
22381SOL     OW69149   1.720   5.498   7.037
22381SOL    HW169150  12.739  16.587   6.958
22381SOL    HW269151   1.640   5.451   7.058
22382SOL     OW69152   5.206   4.730   5.252
22382SOL    HW169153   5.122  -6.331  27.290
22382SOL    HW269154   5.182   4.773   5.334
22383SOL     OW69155   4.660   2.374   5.793
22383SOL    HW169156   4.733   2.332 -16.241
22383SOL    HW269157   4.635  13.351   5.724
22384SOL     OW69158   0.010   4.259  10.918
22384SOL    HW169159   0.021  15.268  10.828
22384SOL    HW269160   0.063   4.339  10.923
22385SOL     OW69161   6.818   9.291   4.259
22385SOL    HW169162  17.939  -1.734   4.211
22385SOL    HW269163   6.792   9.378   4.290
22386SOL     OW69164  11.584   7.614   2.579
22386SOL    HW169165 -10.474   7.687   2.521
22386SOL    HW269166   0.579   7.639   2.664
22387SOL     OW69167  -0.643  -1.387   4.993
22387SOL    HW169168  21.391  -1.469   5.013
22387SOL    HW269169  -0.564  31.704   4.946
22388SOL     OW69170   8.544   6.315   7.114
22388SOL    HW169171   8.461  17.320   7.147
22388SOL    HW269172   8.541  17.335   7.020
22389SOL     OW69173   4.295  10.893   5.574
22389SOL    HW169174   4.229  10.859   5.635
22389SOL    HW269175   4.318  10.979   5.608
22390SOL     OW69176  11.524   1.446  -2.102
22390SOL    HW169177 -10.632  -9.609  31.072
22390SOL    HW269178   0.551  -9.654   8.972
22391SOL     OW69179   5.109   6.785   0.669
22391SOL    HW169180   5.021   6.777   0.633
22391SOL    HW269181   5.098   6.771   0.763
22392SOL     OW69182   3.059   3.536   4.236
22392SOL    HW169183   3.009 -18.467  -6.834
22392SOL    HW269184   3.046   3.535   4.330
22393SOL     OW69185   7.729   8.706   6.793
22393SOL    HW169186   7.744   8.726  -4.155
22393SOL    HW269187   7.815   8.713  -4.288
22394SOL     OW69188   8.256   1.582   0.548
22394SOL    HW169189  19.365 -20.440  11.619
22394SOL    HW269190   8.199   1.568   0.624
22395SOL     OW69191   6.667   2.592   5.380
22395SOL    HW169192   6.762   2.595   5.393
22395SOL    HW269193   6.633   2.659  16.480
22396SOL     OW69194   9.462   4.219   6.933
22396SOL    HW169195   9.386 -17.907 -15.112
22396SOL    HW269196   9.532  -6.886  -4.111
22397SOL     OW69197   4.417   9.078  11.456
22397SOL    HW169198   4.389   9.046 -10.538
22397SOL    HW269199   4.512   9.088  11.464
22398SOL     OW69200   5.128   5.371   0.763
22398SOL    HW169201   5.034  16.425   0.753
22398SOL    HW269202   5.138   5.335   0.851
22399SOL     OW69203   0.129   4.040   5.826
22399SOL    HW169204   0.106   4.064  50.074
22399SOL    HW269205  22.170   4.109   5.772
22400SOL     OW69206   4.418   0.698   2.055
22400SOL    HW169207   4.439   0.790   2.041
22400SOL    HW269208   4.356   0.676   1.986
22401SOL     OW69209  10.462   2.967   9.223
22401SOL    HW169210  10.428  13.925  20.299
22401SOL    HW269211  10.426   3.036   9.279
22402SOL     OW69212   2.072   7.894   1.392
22402SOL    HW169213   2.001   7.836   1.363
22402SOL    HW269214  -8.991  -3.122  12.521
22403SOL     OW69215   2.902   5.697   1.688
22403SOL    HW169216   2.954  16.803   1.644
22403SOL    HW269217 -30.301  27.819   1.705
22404SOL     OW69218   4.805   7.125   6.399
22404SOL    HW169219   4.869  -3.986   6.405
22404SOL    HW269220  37.967   7.200  -4.602
22405SOL     OW69221   1.182   4.811   7.071
22405SOL    HW169222   1.186   4.716 -15.002
22405SOL    HW269223   1.090   4.831   7.054
22406SOL     OW69224   5.060   1.998   4.049
22406SOL    HW169225   5.086   1.988   3.958
22406SOL    HW269226  -6.007   1.910  26.156
22407SOL     OW69227   0.551   0.857  10.071
22407SOL    HW169228  33.582  34.011  21.101
22407SOL    HW269229   0.539   0.762 -12.014
22408SOL     OW69230   2.575   1.862   3.696
22408SOL    HW169231   2.559  -9.256   3.749
22408SOL    HW269232   2.628   1.918   3.753
22409SOL     OW69233   6.675   9.894   5.102
22409SOL    HW169234  -4.441   9.840   5.083
22409SOL    HW269235   6.745   9.832   5.121
22410SOL     OW69236   5.079  10.366   4.550
22410SOL    HW169237   5.133  10.419   4.608
22410SOL    HW269238   5.140  -0.735   4.510
22411SOL     OW69239   7.672  -0.659   8.903
22411SOL    HW169240   7.587  -0.694  19.917
22411SOL    HW269241   7.733  21.348   8.891
22412SOL     OW69242   2.018   1.691   7.033
22412SOL    HW169243   1.966  12.732   6.952
22412SOL    HW269244   2.055  34.722   7.036
22413SOL     OW69245   2.628   1.497   8.947
22413SOL    HW169246 -19.394  12.522   9.023
22413SOL    HW269247  -8.421   1.592   8.942
22414SOL     OW69248   7.371   6.171   4.427
22414SOL    HW169249  51.439  28.248   4.459
22414SOL    HW269250   7.413   6.096   4.469
22415SOL     OW69251   7.779   7.935   2.874
22415SOL    HW169252   7.691  30.046   2.857
22415SOL    HW269253   7.774   7.841  24.939
22416SOL     OW69254   4.882   4.915   4.630
22416SOL    HW169255   4.899   4.936  37.840
22416SOL    HW269256   4.933   4.979  -6.459
22417SOL     OW69257   0.281   7.373   6.862
22417SOL    HW169258   0.224   7.351   6.935
22417SOL    HW269259   0.222   7.393  -4.250
22418SOL     OW69260   5.349   2.995  10.143
22418SOL    HW169261   5.409   2.960  10.209
22418SOL    HW269262   5.264   2.996  -0.853
22419SOL     OW69263   5.772   5.406   8.393
22419SOL    HW169264   5.773   5.431   8.485
22419SOL    HW269265  16.734   5.349  -2.655
22420SOL     OW69266   5.667   2.698   3.181
22420SOL    HW169267   5.600   2.688 -18.965
22420SOL    HW269268   5.622   2.740   3.254
22421SOL     OW69269   7.078  10.144   6.695
22421SOL    HW169270   7.031  10.221  17.768
22421SOL    HW269271   7.104  10.169   6.606
22422SOL     OW69272   3.550  10.148   2.359
22422SOL    HW169273   3.626  10.205  -8.688
22422SOL    HW269274   3.565  10.078  -8.744
22423SOL     OW69275   8.957   6.649   4.818
22423SOL    HW169276  -2.144   6.708   4.862
22423SOL    HW269277  19.947   6.568   4.807
22424SOL     OW69278   5.607   4.011   6.593
22424SOL    HW169279  16.577   4.068   6.560
22424SOL    HW269280  16.683   3.970   6.514
22425SOL     OW69281   3.432   7.128   4.135
22425SOL    HW169282 -18.679   7.161   4.051
22425SOL    HW269283   3.401 -26.081   4.138
22426SOL     OW69284   2.932   7.459   4.683
22426SOL    HW169285   2.900  -3.491 -17.408
22426SOL    HW269286   3.016   7.458   4.637
22427SOL     OW69287   3.139   3.483   1.175
22427SOL    HW169288  -7.850   3.555   1.138
22427SOL    HW269289   3.160   3.408   1.119
22428SOL     OW69290   8.203   0.908   6.217
22428SOL    HW169291  19.218   0.818   6.241
22428SOL    HW269292 -13.827   0.940  -4.747
22429SOL     OW69293   9.414   5.329   0.760
22429SOL    HW169294   9.481   5.268  11.830
22429SOL    HW269295  -1.665   5.363 -10.199
22430SOL     OW69296   1.896   8.666   6.760
22430SOL    HW169297   1.969  -2.371   6.822
22430SOL    HW269298   1.886 -13.506   6.739
22431SOL     OW69299   1.493   7.299   6.070
22431SOL    HW169300   1.490   7.380   6.020
22431SOL    HW269301   1.431   7.312   6.142
22432SOL     OW69302   7.567   8.558  -1.812
22432SOL    HW169303   7.480  30.616  -1.844
22432SOL    HW269304   7.625  19.581  31.232
22433SOL     OW69305   6.328   4.112   0.053
22433SOL    HW169306   6.243  15.118  11.064
22433SOL    HW269307   6.316   4.207   0.058
22434SOL     OW69308   5.563   9.891   1.287
22434SOL    HW169309  16.622  31.888   1.331
22434SOL    HW269310  16.671  -1.089  -9.725
22435SOL     OW69311   0.932   4.712  10.963
22435SOL    HW169312   0.841  -6.353  10.979
22435SOL    HW269313 -10.112   4.776  10.892
22436SOL     OW69314   2.409   4.874   5.324
22436SOL    HW169315   2.371  -6.080   5.306
22436SOL    HW269316   2.379  -6.187   5.412
22437SOL     OW69317  10.051   5.072  10.786
22437SOL    HW169318 -34.090   5.084  -0.160
22437SOL    HW269319   9.960   5.098  10.774
22438SOL     OW69320  11.423   9.471   7.064
22438SOL    HW169321  11.419   9.564  -3.995
22438SOL    HW269322   0.319  -1.582  18.173
22439SOL     OW69323   3.186   3.094  10.564
22439SOL    HW169324   3.247   3.023 -11.536
22439SOL    HW269325  -7.889  14.160  -0.560
22440SOL     OW69326   6.020  10.355   7.110
22440SOL    HW169327  -4.956  10.424  18.132
22440SOL    HW269328   5.982  10.334   7.025
22441SOL     OW69329   8.534   6.391   1.544
22441SOL    HW169330   8.596  -4.589  -9.538
22441SOL    HW269331  19.608   6.303  -9.514
22442SOL     OW69332   5.112  10.094  10.614
22442SOL    HW169333   5.024  10.119  -0.397
22442SOL    HW269334   5.118 -11.952  -0.515
22443SOL     OW69335   7.883  10.844   1.954
22443SOL    HW169336 -14.169  10.819   2.042
22443SOL    HW269337   7.817  10.912  13.007
22444SOL     OW69338   0.001   5.662   7.297
22444SOL    HW169339  10.949   5.689 -14.770
22444SOL    HW269340   0.031   5.714   7.223
22445SOL     OW69341   6.367  10.620  10.627
22445SOL    HW169342  28.476 -33.535  10.536
22445SOL    HW269343  17.312  -0.404  10.622
22446SOL     OW69344   2.700   7.148  11.519
22446SOL    HW169345   2.772   7.102  11.561
22446SOL    HW269346   2.696   7.232   0.524
22447SOL     OW69347   2.658  -0.315   8.715
22447SOL    HW169348   2.602  10.663   8.763
22447SOL    HW269349   2.695  -0.367  19.683
22448SOL     OW69350  10.540   6.543   3.928
22448SOL    HW169351  10.466  -4.441   3.904
22448SOL    HW269352  10.600   6.601  -7.065
22449SOL     OW69353   1.068  10.581   6.321
22449SOL    HW169354  -9.997  10.618   6.405
22449SOL    HW269355   1.054 -11.428   6.258
22450SOL     OW69356  13.472   5.717   0.164
22450SOL    HW169357   2.491  -5.356  33.214
22450SOL    HW269358 -30.761   5.658   0.162
22451SOL     OW69359   0.451   6.278   0.512
22451SOL    HW169360   0.515   6.211   0.537
22451SOL    HW269361   0.390 -15.847  33.573
22452SOL     OW69362   2.373   1.994   9.353
22452SOL    HW169363   2.465   2.019   9.350
22452SOL    HW269364  13.394 -31.132   9.447
22453SOL     OW69365   2.378   7.350   0.294
22453SOL    HW169366  -8.687  18.315   0.240
22453SOL    HW269367   2.421   7.410  11.273
22454SOL     OW69368  10.983   9.428   7.315
22454SOL    HW169369  11.047   9.494   7.344
22454SOL    HW269370  -0.120  20.518   7.264
22455SOL     OW69371   4.708  12.542   9.292
22455SOL    HW169372   4.699  -9.508  -1.838
22455SOL    HW269373   4.777   1.559  20.368
22456SOL     OW69374   6.365   8.754   2.602
22456SOL    HW169375   6.351   8.810  35.644
22456SOL    HW269376   6.454  19.814  13.670
22457SOL     OW69377   4.839   1.763  12.210
22457SOL    HW169378   4.821  -9.207   1.106
22457SOL    HW269379   4.772   1.697  -9.887
22458SOL     OW69380   2.978   8.558  11.350
22458SOL    HW169381  13.953   8.562  11.279
22458SOL    HW269382   3.013   8.647   0.316
22459SOL     OW69383   7.520   1.899   3.350
22459SOL    HW169384   7.513   1.963   3.421
22459SOL    HW269385   7.490  34.935   3.388
22460SOL     OW69386  10.989   0.406  11.073
22460SOL    HW169387  -0.115   0.469 -11.038
22460SOL    HW269388  -0.020  11.400 -11.084
22461SOL     OW69389   2.079  10.042   8.212
22461SOL    HW169390   2.172  10.019  -2.831
22461SOL    HW269391   2.034   9.958   8.199
22462SOL     OW69392  12.091   3.941  10.589
22462SOL    HW169393   0.970   3.917  10.546
22462SOL    HW269394   1.120   3.901  10.535
22463SOL     OW69395  11.659   8.980  10.307
22463SOL    HW169396   0.679  19.969  10.362
22463SOL    HW269397 -10.507   8.948  10.331
22464SOL     OW69398   7.224   7.481  -1.151
22464SOL    HW169399   7.254   7.557   9.939
22464SOL    HW269400   7.162   7.437   9.947
22465SOL     OW69401   2.017   2.888   9.700
22465SOL    HW169402   1.984  13.842  -1.311
22465SOL    HW269403   1.939   2.939 -12.399
22466SOL     OW69404   4.455   6.180   9.525
22466SOL    HW169405   4.389   6.167  -1.445
22466SOL    HW269406   4.499   6.095   9.519
22467SOL     OW69407   1.328   5.384   5.334
22467SOL    HW169408  23.453 -16.635  -5.647
22467SOL    HW269409   1.264   5.439  27.368
22468SOL     OW69410  11.031   9.781   0.812
22468SOL    HW169411  10.988   9.702  22.923
22468SOL    HW269412  10.959   9.844  33.921
22469SOL     OW69413   3.856   4.533   2.650
22469SOL    HW169414  -7.220   4.621   2.638
22469SOL    HW269415   3.926  15.566   2.585
22470SOL     OW69416   1.082   0.743   4.419
22470SOL    HW169417  12.102   0.817   4.477
22470SOL    HW269418  -9.901   0.780   4.351
22471SOL     OW69419   2.068   4.648   5.391
22471SOL    HW169420  13.112   4.573  -5.589
22471SOL    HW269421   2.140  -6.405   5.330
22472SOL     OW69422  -0.158   5.175   4.981
22472SOL    HW169423  -0.080  38.345   5.002
22472SOL    HW269424  10.916  27.179  27.012
22473SOL     OW69425   2.272   6.827   2.969
22473SOL    HW169426   2.180   6.822  25.022
22473SOL    HW269427   2.269   6.861  14.098
22474SOL     OW69428  10.072  11.144   6.213
22474SOL    HW169429  10.005 -11.004   6.214
22474SOL    HW269430  10.069   0.142 -15.778
22475SOL     OW69431   9.480   1.022  10.822
22475SOL    HW169432  20.434   1.021  10.865
22475SOL    HW269433  20.571   1.085  10.873
22476SOL     OW69434  10.068   2.494   5.600
22476SOL    HW169435  10.099  24.559   5.689
22476SOL    HW269436 -12.095  24.528   5.596
22477SOL     OW69437   0.220   1.317   8.848
22477SOL    HW169438  33.304   1.278  19.808
22477SOL    HW269439 -21.791   1.377   8.818
22478SOL     OW69440  -2.798   1.296   4.815
22478SOL    HW169441  30.256  12.266   4.825
22478SOL    HW269442  19.341   1.285   4.889
22479SOL     OW69443   6.869   9.359  -1.105
22479SOL    HW169444   6.825   9.304  -1.170
22479SOL    HW269445   6.921   9.298  32.066
22480SOL     OW69446   8.608   1.800   0.068
22480SOL    HW169447   8.578  23.789   0.053
22480SOL    HW269448  19.743  45.950  11.111
22481SOL     OW69449   8.465  11.005   5.911
22481SOL    HW169450   8.377  11.017  -5.166
22481SOL    HW269451  -2.535 -22.182   5.858
22482SOL     OW69452  10.569  -0.554   6.869
22482SOL    HW169453  10.514  10.448  -4.102
22482SOL    HW269454  -0.389  -0.605   6.873
22483SOL     OW69455   3.715   3.193   3.373
22483SOL    HW169456   3.649   3.261   3.382
22483SOL    HW269457  -7.373  47.276   3.338
22484SOL     OW69458   1.188   1.138  -0.415
22484SOL    HW169459   1.194   1.150  -0.510
22484SOL    HW269460   1.226   1.218  10.661
22485SOL     OW69461   8.911   7.534   3.723
22485SOL    HW169462   8.923  -3.601 -29.393
22485SOL    HW269463   8.870   7.555   3.807
22486SOL     OW69464   2.932   5.317   7.087
22486SOL    HW169465  13.901   5.296  -4.014
22486SOL    HW269466   2.956  16.447   7.068
22487SOL     OW69467   2.460  10.244   8.188
22487SOL    HW169468 -30.592  10.193   8.235
22487SOL    HW269469  13.483 -11.885   8.108
22488SOL     OW69470   3.313   8.206   7.310
22488SOL    HW169471   3.396   8.182   7.352
22488SOL    HW269472   3.269   8.123   7.294
22489SOL     OW69473   0.642  11.268  -0.247
22489SOL    HW169474   0.640 -10.818  10.697
22489SOL    HW269475   0.731  22.283  -0.223
22490SOL     OW69476   9.445   7.206   3.378
22490SOL    HW169477   9.378  29.333  -7.613
22490SOL    HW269478   9.399   7.133 -29.781
22491SOL     OW69479   2.397   8.344   5.755
22491SOL    HW169480  -8.702   8.386  -5.347
22491SOL    HW269481   2.422   8.414  -5.224
22492SOL     OW69482   2.076   9.033   7.159
22492SOL    HW169483   1.999   9.087  -3.898
22492SOL    HW269484   2.129   9.086 -14.860
22493SOL     OW69485   8.794   9.018  12.232
22493SOL    HW169486   8.766   9.056   1.276
22493SOL    HW269487   8.796  19.963  -9.831
22494SOL     OW69488   3.300   9.686   6.946
22494SOL    HW169489   3.275   9.608   6.897
22494SOL    HW269490   3.388  -1.374  -4.059
22495SOL     OW69491   9.778   3.579  -0.468
22495SOL    HW169492   9.808   3.550  -0.555
22495SOL    HW269493   9.858   3.604  21.657
22496SOL     OW69494   2.462   2.834   4.373
22496SOL    HW169495   2.401   2.901   4.404
22496SOL    HW269496   2.488   2.786   4.452
22497SOL     OW69497   7.915   6.133   4.253
22497SOL    HW169498   7.979   6.061   4.254
22497SOL    HW269499   7.840  17.136  -6.834
22498SOL     OW69500   2.017   5.143   7.843
22498SOL    HW169501   1.946  16.230   7.887
22498SOL    HW269502   2.016  16.095   7.883
22499SOL     OW69503   0.061   6.349   8.709
22499SOL    HW169504   0.152   6.376   8.707
22499SOL    HW269505  11.081   6.336   8.802
22500SOL     OW69506   0.796   5.050  10.987
22500SOL    HW169507   0.797  -5.899  10.954
22500SOL    HW269508  11.894 -28.116  -0.112
22501SOL     OW69509   7.880   7.170  10.185
22501SOL    HW169510   7.950   7.206  10.240
22501SOL    HW269511   7.867  18.120  10.218
22502SOL     OW69512  10.036   1.381   0.528
22502SOL    HW169513   9.958  23.469   0.473
22502SOL    HW269514 -34.156   1.355  22.692
22503SOL     OW69515   8.043   8.615   6.443
22503SOL    HW169516   8.025   8.692 -15.690
22503SOL    HW269517  19.150   8.644  -4.535
22504SOL     OW69518   3.539   3.010   6.509
22504SOL    HW169519   3.477   3.082   6.505
22504SOL    HW269520   3.510 -19.130   6.440
22505SOL     OW69521   6.805   2.579   5.687
22505SOL    HW169522   6.742  -8.533   5.693
22505SOL    HW269523   6.752   2.656   5.670
22506SOL     OW69524  11.565   5.807   6.363
22506SOL    HW169525 -21.570   5.871   6.294
22506SOL    HW269526 -54.722  27.809   6.336
22507SOL     OW69527   5.483   7.298   1.815
22507SOL    HW169528 -16.581   7.391   1.834
22507SOL    HW269529   5.421   7.298 -20.337
22508SOL     OW69530   6.095   9.574   7.655
22508SOL    HW169531   6.081   9.481  29.748
22508SOL    HW269532  -4.850   9.586  18.702
22509SOL     OW69533   6.241   1.029   9.767
22509SOL    HW169534   6.247   1.007   9.860
22509SOL    HW269535   6.328  12.051   9.732
22510SOL     OW69536   6.179   8.085   5.301
22510SOL    HW169537   6.263  30.119   5.291
22510SOL    HW269538   6.182   8.156   5.236
22511SOL     OW69539   5.789   9.851   7.970
22511SOL    HW169540   5.821   9.856  19.099
22511SOL    HW269541   5.869  -1.187   7.916
22512SOL     OW69542  10.540   7.960   8.749
22512SOL    HW169543  10.488 -25.149   8.829
22512SOL    HW269544  10.620 -25.203   8.779
22513SOL     OW69545   9.331   7.473   6.673
22513SOL    HW169546   9.298  -3.476   6.673
22513SOL    HW269547   9.422  -3.559   6.644
22514SOL     OW69548  10.294   1.268   2.438
22514SOL    HW169549  21.250   1.280   2.482
22514SOL    HW269550  10.304   1.346 -19.696
22515SOL     OW69551   0.694   3.134   5.648
22515SOL    HW169552   0.701   3.151  16.594
22515SOL    HW269553  11.695   3.213  16.724
22516SOL     OW69554   6.340   1.906   7.322
22516SOL    HW169555   6.268   1.944   7.372
22516SOL    HW269556   6.386   1.982   7.285
22517SOL     OW69557   8.130   5.379   4.706
22517SOL    HW169558   8.155   5.325  -6.259
22517SOL    HW269559   8.133   5.469  -6.300
22518SOL     OW69560   1.187   4.623   3.677
22518SOL    HW169561   1.254   4.610   3.610
22518SOL    HW269562   1.220  26.774   3.730
22519SOL     OW69563   2.423   4.195   4.216
22519SOL    HW169564  13.446  15.143  -6.844
22519SOL    HW269565   2.398   4.204  -6.732
22520SOL     OW69566   4.344  10.421   7.160
22520SOL    HW169567   4.281  10.355  18.228
22520SOL    HW269568  -6.638  10.434   7.235
22521SOL     OW69569   8.651   9.255   6.240
22521SOL    HW169570  -2.393   9.185  17.344
22521SOL    HW269571   8.603   9.328   6.281
22522SOL     OW69572   3.041   7.763   4.599
22522SOL    HW169573   3.063 -14.268   4.679
22522SOL    HW269574   3.099  29.766  15.640
22523SOL     OW69575   6.906   9.000   8.784
22523SOL    HW169576  40.068   8.921  19.855
22523SOL    HW269577   6.973   9.044  30.810
22524SOL     OW69578   9.374   2.688  10.282
22524SOL    HW169579   9.465   2.717  10.274
22524SOL    HW269580 -12.700  13.647  10.334
22525SOL     OW69581   2.835  10.378  12.469
22525SOL    HW169582   2.843  -0.671  -9.515
22525SOL    HW269583   2.910  10.433  -9.634
22526SOL     OW69584   3.154   1.372   1.641
22526SOL    HW169585   3.097   1.390 -20.363
22526SOL    HW269586  -7.819   1.441   1.645
22527SOL     OW69587   6.925  10.558   0.012
22527SOL    HW169588   6.838  10.518  11.056
22527SOL    HW269589   6.942  10.587  22.181
22528SOL     OW69590   1.199   6.696   1.916
22528SOL    HW169591   1.141   6.690   1.840
22528SOL    HW269592   1.144   6.675  24.070
22529SOL     OW69593   3.707  -1.642   9.532
22529SOL    HW169594   3.791  -1.619   9.493
22529SOL    HW269595   3.687  31.550   9.590
22530SOL     OW69596   2.632   5.853   3.884
22530SOL    HW169597  46.843  16.841   3.824
22530SOL    HW269598   2.694   5.911   3.928
22531SOL     OW69599   7.715   7.728   6.214
22531SOL    HW169600 -25.347 -14.299  -4.768
22531SOL    HW269601   7.627   7.739  17.289
22532SOL     OW69602   6.814   1.828   4.028
22532SOL    HW169603  28.798   1.817  -7.016
22532SOL    HW269604  28.909 -20.163  26.075
22533SOL     OW69605   2.647   5.821   5.851
22533SOL    HW169606  24.814  -5.256  -5.202
22533SOL    HW269607   2.663   5.913   5.872
22534SOL     OW69608  -1.849   7.916  13.568
22534SOL    HW169609  20.238   7.848 -19.484
22534SOL    HW269610  20.308   7.971  -8.500
22535SOL     OW69611   8.533   0.463   7.229
22535SOL    HW169612   8.495   0.551   7.227
22535SOL    HW269613  19.665  11.517   7.208
22536SOL     OW69614   3.455   7.506   2.982
22536SOL    HW169615   3.463   7.592   2.941
22536SOL    HW269616   3.423  18.564   3.070
22537SOL     OW69617   7.441   6.503   6.118
22537SOL    HW169618   7.427  -4.578  17.243
22537SOL    HW269619  29.433   6.504  28.157
22538SOL     OW69620   8.222  -0.006   5.801
22538SOL    HW169621   8.196  -0.083  16.790
22538SOL    HW269622  -2.877  11.034   5.876
22539SOL     OW69623   0.249   9.474   0.179
22539SOL    HW169624   0.320   9.438  11.165
22539SOL    HW269625   0.238   9.563   0.148
22540SOL     OW69626   6.423   9.786   2.103
22540SOL    HW169627   6.359   9.793   2.174
22540SOL    HW269628   6.492   9.730   2.137
22541SOL     OW69629  11.331   2.033   5.842
22541SOL    HW169630   0.377   2.070   5.824
22541SOL    HW269631  11.315   2.051   5.934
22542SOL     OW69632   4.843   8.105  10.261
22542SOL    HW169633  37.873   8.141  10.271
22542SOL    HW269634   4.901  -2.863 -33.872
22543SOL     OW69635   7.767   9.640   4.601
22543SOL    HW169636   7.709  20.694   4.527
22543SOL    HW269637  -3.331  20.670   4.676
22544SOL     OW69638   2.757   5.055   8.470
22544SOL    HW169639  -8.280   5.128   8.408
22544SOL    HW269640   2.693  -6.045  19.473
22545SOL     OW69641   4.694   4.565   5.798
22545SOL    HW169642  15.694   4.562   5.886
22545SOL    HW269643   4.769   4.625   5.808
22546SOL     OW69644   1.437   9.677   3.489
22546SOL    HW169645   1.470   9.643   3.573
22546SOL    HW269646  -9.568 -12.464   3.424
22547SOL     OW69647   1.118   1.854  10.549
22547SOL    HW169648  23.232   1.785  10.493
22547SOL    HW269649   1.087   1.809  10.627
22548SOL     OW69650   8.029   3.952   3.381
22548SOL    HW169651  19.032   3.949  36.411
22548SOL    HW269652   7.953  14.989  -7.601
22549SOL     OW69653   7.028   1.309   6.514
22549SOL    HW169654   6.985   1.394   6.508
22549SOL    HW269655  29.158  12.341   6.433
22550SOL     OW69656   6.148   4.822   8.396
22550SOL    HW169657   6.175   4.911   8.420
22550SOL    HW269658   6.229 -17.301   8.370
22551SOL     OW69659   5.878  10.240  12.081
22551SOL    HW169660   5.791  -0.791  12.120
22551SOL    HW269661   5.932  10.201  -9.930
22552SOL     OW69662   6.692   5.087  10.184
22552SOL    HW169663   6.749   5.148  10.232
22552SOL    HW269664   6.629   5.143  10.139
22553SOL     OW69665   0.259   3.736   6.378
22553SOL    HW169666   0.331   3.707   6.322
22553SOL    HW269667   0.207   3.658   6.392
22554SOL     OW69668   6.646  10.012   2.631
22554SOL    HW169669  -4.422  -1.093   2.695
22554SOL    HW269670  28.739  -1.078 -19.528
22555SOL     OW69671  -0.225   4.588   2.679
22555SOL    HW169672  -0.289  15.643 -19.331
22555SOL    HW269673  21.889   4.675 -19.420
22556SOL     OW69674   8.687   1.958   8.286
22556SOL    HW169675   8.767   1.965  19.274
22556SOL    HW269676   8.674   2.046  -2.718
22557SOL     OW69677   6.140   7.329   7.426
22557SOL    HW169678   6.155  -3.789  18.520
22557SOL    HW269679   6.051   7.320   7.395
22558SOL     OW69680   1.148  10.266   4.710
22558SOL    HW169681   1.104  10.325   4.770
22558SOL    HW269682  12.195  10.183  15.798
22559SOL     OW69683   2.392   7.099   1.213
22559SOL    HW169684   2.448 -15.058   1.208
22559SOL    HW269685   2.312   7.068   1.255
22560SOL     OW69686   2.250   6.528   0.075
22560SOL    HW169687  -8.798   6.454 -22.064
22560SOL    HW269688  -8.871 -15.551  22.204
22561SOL     OW69689  10.168   4.584   4.710
22561SOL    HW169690  10.089   4.605  -6.281
22561SOL    HW269691  10.238  15.668   4.757
22562SOL     OW69692   1.419   9.076   7.430
22562SOL    HW169693   1.411   9.011 -25.759
22562SOL    HW269694   1.471   9.032   7.497
22563SOL     OW69695   9.366   2.496   8.367
22563SOL    HW169696   9.362   2.481   8.273
22563SOL    HW269697  -1.757  -8.577   8.400
22564SOL     OW69698   9.604  -0.737   3.699
22564SOL    HW169699   9.518  -0.708   3.668
22564SOL    HW269700  31.720  32.458   3.742
22565SOL     OW69701   5.274   7.948   0.904
22565SOL    HW169702   5.215   7.957   0.979
22565SOL    HW269703   5.351   7.902   0.939
22566SOL     OW69704   2.249   2.953   9.820
22566SOL    HW169705   2.211  -7.999   9.828
22566SOL    HW269706  13.221   2.901   9.778
22567SOL     OW69707   1.315   2.443   4.729
22567SOL    HW169708   1.251   2.375   4.747
22567SOL    HW269709   1.273  13.538   4.662
22568SOL     OW69710   6.935   7.522   1.368
22568SOL    HW169711   6.919   7.469   1.290
22568SOL    HW269712   6.855  -3.527   1.420
22569SOL     OW69713   3.361   9.476   4.134
22569SOL    HW169714   3.278   9.496   4.178
22569SOL    HW269715 -29.699   9.547   4.159
22570SOL     OW69716   1.690   7.001   5.077
22570SOL    HW169717   1.602   7.029 -16.975
22570SOL    HW269718   1.727   7.078  -6.005
22571SOL     OW69719   1.561   6.921   0.433
22571SOL    HW169720   1.611   6.844   0.406
22571SOL    HW269721   1.535   6.963   0.351
22572SOL     OW69722  11.064   5.252   8.454
22572SOL    HW169723 -11.060 -16.801   8.534
22572SOL    HW269724   0.076   5.329  19.469
22573SOL     OW69725   8.577   8.989   8.306
22573SOL    HW169726  -2.401  31.098   8.239
22573SOL    HW269727   8.525  19.961   8.263
22574SOL     OW69728   0.204   8.013   9.336
22574SOL    HW169729  22.214   8.073   9.366
22574SOL    HW269730 -10.867   7.927  20.401
22575SOL     OW69731  10.879   6.387   7.271
22575SOL    HW169732  10.785   6.370  29.355
22575SOL    HW269733  10.920   6.302  18.326
22576SOL     OW69734   6.481   0.057   6.130
22576SOL    HW169735  -4.603  11.040  28.146
22576SOL    HW269736   6.536   0.114   6.076
22577SOL     OW69737   0.837   5.972   0.397
22577SOL    HW169738  34.043   5.974   0.436
22577SOL    HW269739 -10.258   6.020   0.459
22578SOL     OW69740   1.964   1.019   2.543
22578SOL    HW169741   1.963   0.976   2.457
22578SOL    HW269742  12.913   1.012   2.574
22579SOL     OW69743   3.108   9.164   7.392
22579SOL    HW169744   3.075  -1.916  18.352
22579SOL    HW269745   3.031   9.169   7.450
22580SOL     OW69746   7.193   3.584   8.499
22580SOL    HW169747 -14.918 -18.414   8.461
22580SOL    HW269748   7.253   3.549 -13.646
22581SOL     OW69749   2.888   4.368   3.320
22581SOL    HW169750   2.870  26.455   3.226
22581SOL    HW269751   2.827  -6.611   3.361
22582SOL     OW69752   7.856   1.462   5.901
22582SOL    HW169753 -25.271   1.552   5.934
22582SOL    HW269754 -36.289  12.449   5.979
22583SOL     OW69755   8.318   3.903   4.370
22583SOL    HW169756   8.349  15.016   4.317
22583SOL    HW269757   8.397   3.863   4.405
22584SOL     OW69758   2.203   3.125   4.784
22584SOL    HW169759  -8.741  -7.916   4.777
22584SOL    HW269760  24.261   3.049   4.840
22585SOL     OW69761   8.199   3.802   1.006
22585SOL    HW169762   8.233  14.757  12.019
22585SOL    HW269763   8.170   3.843 -10.115
22586SOL     OW69764   8.342   6.898   4.054
22586SOL    HW169765   8.334   6.914  15.188
22586SOL    HW269766   8.382   6.811   4.048
22587SOL     OW69767   4.281   6.943  -0.028
22587SOL    HW169768   4.282   7.031  10.974
22587SOL    HW269769   4.360   6.901  10.977
22588SOL     OW69770   5.061   8.517   2.071
22588SOL    HW169771  -5.991   8.598  35.239
22588SOL    HW269772  16.110   8.450  13.178
22589SOL     OW69773  -0.296  -1.193   2.183
22589SOL    HW169774  10.827  -1.214  -8.900
22589SOL    HW269775  -0.309  20.815  13.285
22590SOL     OW69776   1.525   1.905   7.823
22590SOL    HW169777  12.480  35.030   7.778
22590SOL    HW269778  12.579   1.993   7.858
22591SOL     OW69779   5.906   2.729   7.402
22591SOL    HW169780  16.878   2.792   7.426
22591SOL    HW269781   5.881  -8.391   7.446
22592SOL     OW69782   3.528   3.849  11.445
22592SOL    HW169783   3.579   3.781 -21.718
22592SOL    HW269784  25.645   3.931  11.413
22593SOL     OW69785   3.321  10.572   2.653
22593SOL    HW169786   3.315  -0.545   2.597
22593SOL    HW269787   3.235  10.578   2.694
22594SOL     OW69788   6.078   3.863   9.383
22594SOL    HW169789  28.090  -7.142   9.324
22594SOL    HW269790  17.068   3.818   9.452
22595SOL     OW69791   6.242   8.221   5.068
22595SOL    HW169792   6.188  -2.839   4.991
22595SOL    HW269793   6.321  -2.778   5.033
22596SOL     OW69794  10.352   3.248   4.195
22596SOL    HW169795  10.407   3.270  26.349
22596SOL    HW269796  21.398   3.152   4.188
22597SOL     OW69797   9.501   6.436   2.036
22597SOL    HW169798   9.562  39.591   2.100
22597SOL    HW269799   9.434   6.504  -9.014
22598SOL     OW69800   0.485   5.172   3.480
22598SOL    HW169801  11.478  27.318   3.430
22598SOL    HW269802   0.550   5.221  14.571
22599SOL     OW69803   8.211   0.773   1.789
22599SOL    HW169804  30.292   0.698   1.729
22599SOL    HW269805   8.286   0.827   1.761
22600SOL     OW69806   4.212  10.675  -0.906
22600SOL    HW169807   4.143  10.674  10.069
22600SOL    HW269808   4.285  10.628  10.092
22601SOL     OW69809   2.076   0.657   7.393
22601SOL    HW169810  13.075   0.686  29.553
22601SOL    HW269811   2.032   0.707   7.324
22602SOL     OW69812   1.406   5.454   1.833
22602SOL    HW169813   1.489   5.488   1.867
22602SOL    HW269814   1.347  -5.510  -9.206
22603SOL     OW69815   7.295   2.131   1.072
22603SOL    HW169816   7.280  13.253   1.117
22603SOL    HW269817   7.267  24.143   1.134
22604SOL     OW69818   3.242  10.703   1.898
22604SOL    HW169819   3.184  10.648   1.846
22604SOL    HW269820   3.299  -0.293   1.835
22605SOL     OW69821   5.221   5.675   0.167
22605SOL    HW169822   5.256   5.588   0.184
22605SOL    HW269823   5.153   5.661   0.100
22606SOL     OW69824   5.035   8.096   4.530
22606SOL    HW169825  27.088 -13.932  -6.433
22606SOL    HW269826   5.129  41.201   4.541
22607SOL     OW69827   7.923   0.098   0.398
22607SOL    HW169828   7.914   0.096  22.573
22607SOL    HW269829  29.987   0.190   0.375
22608SOL     OW69830   1.720   0.734   0.975
22608SOL    HW169831   1.808  33.821   0.958
22608SOL    HW269832   1.705  11.756  -9.972
22609SOL     OW69833   2.440   2.530   1.601
22609SOL    HW169834   2.466   2.524   1.509
22609SOL    HW269835  13.531  13.641  12.676
22610SOL     OW69836   6.905   6.990  11.312
22610SOL    HW169837   6.811   7.009   0.266
22610SOL    HW269838   6.910   6.913   0.328
22611SOL     OW69839   6.828   2.705   1.637
22611SOL    HW169840   6.900   2.648   1.612
22611SOL    HW269841  -4.242   2.744   1.555
22612SOL     OW69842   6.495   0.822   8.014
22612SOL    HW169843  17.486   0.900  30.122
22612SOL    HW269844  17.620   0.829   8.056
22613SOL     OW69845  10.620   8.152   3.037
22613SOL    HW169846  21.636  19.282   3.013
22613SOL    HW269847 -11.524   8.128  -7.936
22614SOL     OW69848  10.887   4.993   3.378
22614SOL    HW169849  10.943   5.020   3.305
22614SOL    HW269850  10.930   5.029  14.495
22615SOL     OW69851   1.672   6.799   5.924
22615SOL    HW169852   1.709   6.752   5.849
22615SOL    HW269853   1.747   6.813  17.022
22616SOL     OW69854  10.594   4.301   6.680
22616SOL    HW169855  10.505   4.291   6.714
22616SOL    HW269856  -0.414   4.212  28.745
22617SOL     OW69857   8.553   3.790   9.539
22617SOL    HW169858  19.639  -7.204   9.609
22617SOL    HW269859  30.563   3.851   9.512
22618SOL     OW69860   3.149   3.046   4.792
22618SOL    HW169861  14.133 -19.097  -6.203
22618SOL    HW269862   3.163   3.115  15.897
22619SOL     OW69863   2.799   6.924   7.793
22619SOL    HW169864 -19.354   6.870   7.764
22619SOL    HW269865   2.851 -26.253   7.847
22620SOL     OW69866  11.234   8.133   1.434
22620SOL    HW169867 -10.803 -24.909  -9.567
22620SOL    HW269868  11.287   8.059   1.464
22621SOL     OW69869   6.366   2.691   2.232
22621SOL    HW169870  17.399   2.784   2.211
22621SOL    HW269871   6.294   2.650   2.184
22622SOL     OW69872   4.690   7.471   4.447
22622SOL    HW169873  15.673  29.502   4.387
22622SOL    HW269874   4.778   7.457   4.413
22623SOL     OW69875   9.156   0.817   1.628
22623SOL    HW169876  20.180   0.910   1.610
22623SOL    HW269877  20.126   0.793  -9.350
22624SOL     OW69878   1.699  10.991   2.448
22624SOL    HW169879  12.714   0.043  13.470
22624SOL    HW269880   1.728  10.957   2.364
22625SOL     OW69881   0.426   9.947   3.926
22625SOL    HW169882   0.332   9.944 -18.138
22625SOL    HW269883   0.464  20.954  -7.032
22626SOL     OW69884   6.422   2.502   3.042
22626SOL    HW169885   6.364   2.546   2.979
22626SOL    HW269886   6.363   2.451   3.097
22627SOL     OW69887   1.210   5.325  10.149
22627SOL    HW169888  23.253   5.286  10.229
22627SOL    HW269889   1.294  -5.758  10.138
22628SOL     OW69890   4.913   1.942   5.472
22628SOL    HW169891   4.916   1.951   5.377
22628SOL    HW269892   4.820   1.936   5.493
22629SOL     OW69893   6.376   2.292   9.882
22629SOL    HW169894  28.370   2.336   9.875
22629SOL    HW269895  50.513   2.205   9.917
22630SOL     OW69896   7.362  10.778   9.967
22630SOL    HW169897   7.273  10.787   9.935
22630SOL    HW269898  18.419  10.860  10.013
22631SOL     OW69899  11.006   9.042   2.794
22631SOL    HW169900  11.006  -1.988  24.969
22631SOL    HW269901 -11.165   9.027  24.851
22632SOL     OW69902   2.035  10.614   2.364
22632SOL    HW169903  24.063  10.540   2.397
22632SOL    HW269904   2.031  10.679   2.435
22633SOL     OW69905   5.909   5.910   7.535
22633SOL    HW169906   5.998  16.937   7.568
22633SOL    HW269907 -16.226  27.947   7.601
22634SOL     OW69908   8.680  10.069   8.554
22634SOL    HW169909   8.670  10.087   8.461
22634SOL    HW269910   8.699   9.975   8.558
22635SOL     OW69911   1.108   7.428   9.585
22635SOL    HW169912  34.296  18.488 -23.596
22635SOL    HW269913   1.124   7.336   9.609
22636SOL     OW69914  10.982   8.138   0.537
22636SOL    HW169915  11.020  -2.908  11.664
22636SOL    HW269916  10.943   8.052   0.521
22637SOL     OW69917  10.318   7.662  10.532
22637SOL    HW169918  10.289   7.698  10.449
22637SOL    HW269919  -0.693   7.573  10.511
22638SOL     OW69920   3.886   7.904   2.829
22638SOL    HW169921  -7.148   7.941  -8.122
22638SOL    HW269922  -7.135   7.810   2.842
22639SOL     OW69923   4.633   9.011   3.632
22639SOL    HW169924   4.659   8.927   3.594
22639SOL    HW269925  15.647  20.104  25.636
22640SOL     OW69926  10.392   4.704   9.018
22640SOL    HW169927  10.381   4.615   9.051
22640SOL    HW269928  -0.720  37.834   8.957
22641SOL     OW69929   3.788   3.425   8.367
22641SOL    HW169930   3.830  -7.564  30.375
22641SOL    HW269931   3.750 -29.770   8.323
22642SOL     OW69932   2.173  10.888   2.103
22642SOL    HW169933  24.278  10.974  13.177
22642SOL    HW269934  13.134  10.866   2.152
22643SOL     OW69935   0.401   3.404  10.178
22643SOL    HW169936 -10.566   3.356  10.137
22643SOL    HW269937  11.410   3.465  10.111
22644SOL     OW69938   5.242   7.275   1.641
22644SOL    HW169939  16.200   7.241   1.675
22644SOL    HW269940   5.256   7.227   1.559
22645SOL     OW69941   1.815   7.554   0.490
22645SOL    HW169942   1.773   7.512  22.645
22645SOL    HW269943   1.843   7.481  33.554
22646SOL     OW69944   2.361   1.057   1.656
22646SOL    HW169945   2.339   1.067   1.563
22646SOL    HW269946 -19.624   1.075   1.660
22647SOL     OW69947   8.959   7.071   4.397
22647SOL    HW169948   8.882   7.036   4.440
22647SOL    HW269949   8.926  -3.896   4.344
22648SOL     OW69950   9.914   4.585   6.484
22648SOL    HW169951 -12.078  15.631   6.446
22648SOL    HW269952 -23.217   4.666   6.532
22649SOL     OW69953   8.778   5.034   5.612
22649SOL    HW169954   8.847 -17.028   5.677
22649SOL    HW269955  41.910   5.102   5.546
22650SOL     OW69956   0.928   2.652   6.454
22650SOL    HW169957   0.959   2.588   6.389
22650SOL    HW269958  12.047   2.684  -4.543
22651SOL     OW69959   1.193   2.223   2.191
22651SOL    HW169960  -9.881   2.238  24.358
22651SOL    HW269961   1.132   2.161  24.230
22652SOL     OW69962   2.320   0.704   7.303
22652SOL    HW169963   2.235  11.732  29.424
22652SOL    HW269964  24.423   0.616  -3.767
22653SOL     OW69965   7.870   9.897   4.401
22653SOL    HW169966   7.872   9.809   4.439
22653SOL    HW269967   7.930   9.891   4.326
22654SOL     OW69968   6.759   1.351   6.325
22654SOL    HW169969   6.685   1.311   6.281
22654SOL    HW269970   6.828   1.285  17.361
22655SOL     OW69971   7.477   8.251   3.499
22655SOL    HW169972  -3.515 -13.790   3.573
22655SOL    HW269973  -3.569   8.322  14.474
22656SOL     OW69974   1.671  11.413   1.968
22656SOL    HW169975   1.666  11.442   2.059
22656SOL    HW269976   1.695   0.451   1.918
22657SOL     OW69977  10.853  10.808   6.334
22657SOL    HW169978  -0.270  -0.278   6.343
22657SOL    HW269979  10.909  10.747  17.326
22658SOL     OW69980   1.532   6.086   3.526
22658SOL    HW169981  -9.420  -4.968 -29.557
22658SOL    HW269982  12.587  -4.917   3.439
22659SOL     OW69983   7.034  10.074   6.235
22659SOL    HW169984   7.126  10.078   6.209
22659SOL    HW269985   7.029   9.996   6.291
22660SOL     OW69986   3.767   5.566   7.286
22660SOL    HW169987   3.770   5.591   7.379
22660SOL    HW269988  -7.280   5.471   7.287
22661SOL     OW69989   2.329   9.051   7.612
22661SOL    HW169990  -8.654   8.979  -3.458
22661SOL    HW269991   2.252   9.007   7.648
22662SOL     OW69992   5.464   1.175  10.781
22662SOL    HW169993   5.554   1.157  10.753
22662SOL    HW269994   5.470  12.229  10.875
22663SOL     OW69995  10.105   7.298   5.319
22663SOL    HW169996  10.051   7.226 -16.792
22663SOL    HW269997  21.180   7.338 -16.839
22664SOL     OW69998   1.203   5.521   3.301
22664SOL    HW169999  -9.823  -5.599   3.351
22664SOL    HW270000   1.132  -5.540  14.280
22665SOL     OW70001   7.035   1.767  12.214
22665SOL    HW170002   7.056   1.801  -9.952
22665SOL    HW270003   7.104  -9.337  -9.847
22666SOL     OW70004   3.800   9.647   0.901
22666SOL    HW170005   3.780   9.699  11.863
22666SOL    HW270006   3.855   9.704 -10.085
22667SOL     OW70007   0.230  12.413   9.678
22667SOL    HW170008   0.156  -9.717   9.646
22667SOL    HW270009   0.299  -9.730   9.696
22668SOL     OW70010   6.442  10.662   9.408
22668SOL    HW170011   6.428  10.624   9.321
22668SOL    HW270012   6.403  -0.441  20.508
22669SOL     OW70013   4.701   9.866  11.385
22669SOL    HW170014  26.773   9.804  11.312
22669SOL    HW270015  15.680   9.936   0.323
22670SOL     OW70016   8.533   2.423   0.919
22670SOL    HW170017   8.471  -8.588   0.986
22670SOL    HW270018   8.496   2.341   0.886
22671SOL     OW70019   2.238  10.800  10.366
22671SOL    HW170020   2.278  10.719 -22.784
22671SOL    HW270021   2.270  10.810  -0.584
22672SOL     OW70022  10.984   2.708   1.665
22672SOL    HW170023  10.897  -8.350   1.699
22672SOL    HW270024  10.991   2.803   1.666
22673SOL     OW70025   2.083  10.394   5.785
22673SOL    HW170026   2.003  10.417   5.833
22673SOL    HW270027   2.154  10.412   5.847
22674SOL     OW70028   0.416   9.591   4.303
22674SOL    HW170029   0.364  20.662  15.417
22674SOL    HW270030   0.351  20.607   4.237
22675SOL     OW70031   3.888   7.601   7.275
22675SOL    HW170032  -7.221 -25.471   7.323
22675SOL    HW270033  -7.174  29.692   7.183
22676SOL     OW70034   1.109   5.078   4.175
22676SOL    HW170035   1.031   5.069   4.121
22676SOL    HW270036   1.097   5.161   4.221
22677SOL     OW70037   0.837   9.857   1.397
22677SOL    HW170038   0.926   9.858   1.432
22677SOL    HW270039   0.801   9.942   1.424
22678SOL     OW70040   4.173  11.138   9.013
22678SOL    HW170041   4.225   0.119   9.091
22678SOL    HW270042   4.206  11.053   8.984
22679SOL     OW70043   3.015   7.486   1.592
22679SOL    HW170044   3.024   7.464   1.685
22679SOL    HW270045   3.079  -3.484   1.577
22680SOL     OW70046   1.406   6.254   6.349
22680SOL    HW170047   1.379   6.333   6.395
22680SOL    HW270048   1.392  -4.764   6.256
22681SOL     OW70049   2.061   4.149   8.225
22681SOL    HW170050  13.118   4.235   8.264
22681SOL    HW270051  13.024   4.117 -13.807
22682SOL     OW70052   4.438   3.605   4.610
22682SOL    HW170053  -6.609   3.517   4.574
22682SOL    HW270054  15.536  -7.444   4.685
22683SOL     OW70055  10.053   7.999   1.763
22683SOL    HW170056  10.049   8.095   1.759
22683SOL    HW270057  10.069  -3.067   1.672
22684SOL     OW70058   0.626   7.845   2.434
22684SOL    HW170059   0.534   7.871  -8.613
22684SOL    HW270060   0.656 -14.191   2.515
22685SOL     OW70061   1.406   2.948   7.156
22685SOL    HW170062  -9.545   2.913  40.267
22685SOL    HW270063  -9.623  14.082  29.219
22686SOL     OW70064   7.952   3.051   9.515
22686SOL    HW170065   7.864   3.079   9.542
22686SOL    HW270066   7.945   2.956  20.543
22687SOL     OW70067   2.860   6.243   1.879
22687SOL    HW170068   2.792   6.305   1.853
22687SOL    HW270069  13.869   6.208   1.962
22688SOL     OW70070   7.505  -1.214   6.546
22688SOL    HW170071   7.533  20.860   6.637
22688SOL    HW270072  -3.559  -1.123   6.533
22689SOL     OW70073   5.543   4.106   6.165
22689SOL    HW170074   5.574   4.186   6.208
22689SOL    HW270075   5.548   4.126   6.072
22690SOL     OW70076   1.526   6.488   9.547
22690SOL    HW170077   1.490 -15.678   9.564
22690SOL    HW270078  12.610  -4.527   9.628
22691SOL     OW70079   4.334   0.697   2.806
22691SOL    HW170080   4.429  11.732   2.795
22691SOL    HW270081   4.300  11.735  13.756
22692SOL     OW70082   4.918   7.077   4.375
22692SOL    HW170083   4.852   7.058   4.442
22692SOL    HW270084  -6.044   7.028  -6.636
22693SOL     OW70085   1.068  -0.507   4.869
22693SOL    HW170086   1.061  10.496   4.957
22693SOL    HW270087   0.978  -0.498   4.839
22694SOL     OW70088   2.858   7.630   5.176
22694SOL    HW170089 -30.216   7.705  -5.824
22694SOL    HW270090   2.840  29.737 -16.993
22695SOL     OW70091   2.766   1.642   4.403
22695SOL    HW170092   2.795   1.685  -6.717
22695SOL    HW270093   2.834   1.576  -6.619
22696SOL     OW70094  11.832   9.625   7.316
22696SOL    HW170095   0.700   9.610   7.296
22696SOL    HW270096 -21.247   9.538   7.310
22697SOL     OW70097   4.714   7.097   4.199
22697SOL    HW170098   4.636   7.110  -6.786
22697SOL    HW270099   4.781   7.065 -17.820
22698SOL     OW70100  -2.208   8.263   9.630
22698SOL    HW170101  19.943   8.226   9.578
22698SOL    HW270102  30.914  -2.683   9.612
22699SOL     OW70103   3.155   7.538   7.075
22699SOL    HW170104  -7.814   7.512  18.055
22699SOL    HW270105   3.126  18.663   7.043
22700SOL     OW70106   7.715   1.190   3.928
22700SOL    HW170107  18.825  23.327  25.978
22700SOL    HW270108  -3.404   1.226  37.007
22701SOL     OW70109   0.325   5.070   4.703
22701SOL    HW170110  11.392   5.102   4.789
22701SOL    HW270111   0.240 -28.007  15.728
22702SOL     OW70112   6.053   0.533   9.668
22702SOL    HW170113   6.107   0.554   9.591
22702SOL    HW270114   6.059   0.611   9.723
22703SOL     OW70115   0.965   1.770   1.820
22703SOL    HW170116  12.075   1.819  -9.263
22703SOL    HW270117   0.973  34.799   1.787
22704SOL     OW70118   1.617   0.241   9.644
22704SOL    HW170119   1.550   0.297  20.723
22704SOL    HW270120   1.694   0.252   9.699
22705SOL     OW70121   0.740   7.556   0.149
22705SOL    HW170122   0.795   7.606   0.210
22705SOL    HW270123   0.711  -3.419   0.084
22706SOL     OW70124   3.617   9.427  10.428
22706SOL    HW170125   3.619   9.345  -0.562
22706SOL    HW270126  25.662   9.491  10.490
22707SOL     OW70127   9.539   5.218   2.419
22707SOL    HW170128   9.459   5.264   2.448
22707SOL    HW270129 -34.646   5.127  -8.629
22708SOL     OW70130  10.581   9.248   8.211
22708SOL    HW170131  -0.470   9.288   8.125
22708SOL    HW270132  10.539   9.308   8.272
22709SOL     OW70133   3.484  11.411   3.122
22709SOL    HW170134   3.466   0.376   3.216
22709SOL    HW270135   3.537  11.488  -7.936
22710SOL     OW70136   1.473  11.664   0.286
22710SOL    HW170137  12.562  11.643  11.404
22710SOL    HW270138  12.539 -10.481 -10.817
22711SOL     OW70139   0.489   3.186   9.316
22711SOL    HW170140  11.440   3.153   9.300
22711SOL    HW270141   0.489  36.392 -12.802
22712SOL     OW70142   3.710   0.899   5.598
22712SOL    HW170143   3.670   0.966   5.654
22712SOL    HW270144   3.728   0.945   5.516
22713SOL     OW70145   3.857   8.403   8.647
22713SOL    HW170146  14.818   8.429   8.599
22713SOL    HW270147   3.929  19.461  19.627
22714SOL     OW70148   5.414   0.238   1.627
22714SOL    HW170149  -5.720  44.388  -9.428
22714SOL    HW270150   5.449 -32.853   1.542
22715SOL     OW70151   3.968   3.204   5.780
22715SOL    HW170152   4.007   3.120   5.801
22715SOL    HW270153  -7.109  -7.847   5.692
22716SOL     OW70154   3.343  10.547   7.852
22716SOL    HW170155   3.413  10.485   7.833
22716SOL    HW270156   3.266  10.512   7.808
22717SOL     OW70157   3.295   3.018   7.697
22717SOL    HW170158   3.225  -7.957   7.709
22717SOL    HW270159   3.250   2.935  -3.357
22718SOL     OW70160   2.860   1.348   4.672
22718SOL    HW170161   2.954   1.352   4.687
22718SOL    HW270162   2.821 -20.690  15.788
22719SOL     OW70163   0.109   9.042   1.163
22719SOL    HW170164   0.086   9.127  12.164
22719SOL    HW270165  11.128   8.978  34.214
22720SOL     OW70166  -0.013   9.750   0.168
22720SOL    HW170167  11.122   9.762  11.207
22720SOL    HW270168  -0.042   9.788   0.085
22721SOL     OW70169   8.229  -0.468   6.579
22721SOL    HW170170   8.314  21.648   6.558
22721SOL    HW270171   8.243  -0.562   6.583
22722SOL     OW70172   8.328   4.167   6.546
22722SOL    HW170173 -35.904  15.228   6.602
22722SOL    HW270174  -2.735 -17.879   6.460
22723SOL     OW70175   4.208   1.066   1.089
22723SOL    HW170176  26.347   1.109   1.029
22723SOL    HW270177   4.261   1.001   1.134
22724SOL     OW70178  11.402   9.537   6.232
22724SOL    HW170179 -10.677   9.599   6.160
22724SOL    HW270180  11.342  20.507  17.245
22725SOL     OW70181   8.678   5.509  11.365
22725SOL    HW170182   8.724   5.478   0.403
22725SOL    HW270183   8.616  16.479  11.344
22726SOL     OW70184  11.615   7.601   7.310
22726SOL    HW170185 -21.536   7.583   7.398
22726SOL    HW270186 -21.500   7.515   7.268
22727SOL     OW70187   2.324   5.510  11.008
22727SOL    HW170188   2.306  27.520  10.945
22727SOL    HW270189   2.416  38.618  -0.009
22728SOL     OW70190   0.492   9.715   2.017
22728SOL    HW170191   0.516  20.845   2.033
22728SOL    HW270192   0.516   9.700   1.925
22729SOL     OW70193   7.524   0.485   2.376
22729SOL    HW170194   7.485   0.529  -8.588
22729SOL    HW270195   7.450   0.463   2.320
22730SOL     OW70196   3.771   6.562   6.531
22730SOL    HW170197   3.845   6.586   6.475
22730SOL    HW270198   3.807   6.498  -4.447
22731SOL     OW70199   5.132   8.104   7.962
22731SOL    HW170200   5.085   8.071   7.886
22731SOL    HW270201 -16.939   8.198  30.026
22732SOL     OW70202   1.927  -0.769  10.548
22732SOL    HW170203  13.020  21.342  -0.419
22732SOL    HW270204   1.975  -0.843  10.513
22733SOL     OW70205   1.720   0.530  10.750
22733SOL    HW170206  12.740   0.616  10.787
22733SOL    HW270207   1.759   0.550  10.665
22734SOL     OW70208   1.833   6.086   2.599
22734SOL    HW170209   1.877   6.016   2.550
22734SOL    HW270210   1.749  28.126   2.626
22735SOL     OW70211   8.319   1.546   2.442
22735SOL    HW170212   8.233   1.531   2.480
22735SOL    HW270213   8.305   1.614   2.376
22736SOL     OW70214   1.008   4.994   1.321
22736SOL    HW170215  23.161   4.950   1.280
22736SOL    HW270216  12.046   5.081  -9.759
22737SOL     OW70217   6.527   2.680   3.540
22737SOL    HW170218   6.582   2.720   3.608
22737SOL    HW270219  28.608   2.744 -18.611
22738SOL     OW70220   3.555   2.312   0.371
22738SOL    HW170221   3.615   2.379   0.339
22738SOL    HW270222   3.547   2.251  11.337
22739SOL     OW70223   2.467   0.087  11.088
22739SOL    HW170224  -8.651   0.095 -11.047
22739SOL    HW270225  -8.537   0.176  11.090
22740SOL     OW70226   7.244   6.602  10.946
22740SOL    HW170227   7.252   6.585  11.040
22740SOL    HW270228   7.172   6.665  10.939
22741SOL     OW70229  10.407   6.419   6.317
22741SOL    HW170230  10.377  17.406   6.243
22741SOL    HW270231  -0.702  39.531   6.382
22742SOL     OW70232  10.594   6.017   2.094
22742SOL    HW170233  10.658   5.976   2.151
22742SOL    HW270234  10.588   6.107   2.126
22743SOL     OW70235   9.066   0.741   9.462
22743SOL    HW170236   9.085   0.761 -23.749
22743SOL    HW270237   9.096   0.651  -1.566
22744SOL     OW70238   8.118   2.687   5.211
22744SOL    HW170239   8.048  13.788   5.190
22744SOL    HW270240   8.099   2.659  -5.739
22745SOL     OW70241   4.215   3.868   7.634
22745SOL    HW170242   4.221 -18.232  29.620
22745SOL    HW270243   4.306  -7.165  -3.376
22746SOL     OW70244   4.487   3.620   4.889
22746SOL    HW170245   4.485   3.684 -28.158
22746SOL    HW270246   4.406   3.570   4.899
22747SOL     OW70247   3.985   0.695   0.921
22747SOL    HW170248  26.149   0.679 -21.116
22747SOL    HW270249  14.997   0.780  23.035
22748SOL     OW70250  10.990   2.338   1.359
22748SOL    HW170251  11.067   2.394   1.371
22748SOL    HW270252  11.026   2.250   1.347
22749SOL     OW70253  10.086   6.369   2.518
22749SOL    HW170254  -0.917   6.342   2.602
22749SOL    HW270255  10.133  17.357   2.453
22750SOL     OW70256   7.062   3.800   4.246
22750SOL    HW170257   7.006   3.872   4.219
22750SOL    HW270258   7.105  14.810   4.165
22751SOL     OW70259  12.834   2.865   5.752
22751SOL    HW170260   1.751 -19.144   5.802
22751SOL    HW270261  -9.296   2.857 -16.407
22752SOL     OW70262   0.037   9.979   9.827
22752SOL    HW170263   0.058   9.938 -12.335
22752SOL    HW270264   0.043  10.073   9.810
22753SOL     OW70265   2.904   8.512   4.412
22753SOL    HW170266   2.984   8.485   4.367
22753SOL    HW270267   2.839  19.485  26.467
22754SOL     OW70268   4.196   3.340   0.084
22754SOL    HW170269   4.167   3.407  11.061
22754SOL    HW270270   4.115   3.307  33.242
22755SOL     OW70271  11.187   2.510   1.317
22755SOL    HW170272   0.230 -19.577   1.270
22755SOL    HW270273  11.211   2.552   1.400
22756SOL     OW70274   3.892   9.159   0.254
22756SOL    HW170275  14.881   9.114   0.322
22756SOL    HW270276   3.827   9.207   0.203
22757SOL     OW70277  10.977   6.391   5.969
22757SOL    HW170278  10.884 -15.664   5.976
22757SOL    HW270279  10.987   6.362   5.878
22758SOL     OW70280   9.604   3.965   8.974
22758SOL    HW170281   9.634   3.900  -2.129
22758SOL    HW270282  -1.414   4.050   8.934
22759SOL     OW70283   0.012   4.240  -0.388
22759SOL    HW170284  10.981  15.343  10.636
22759SOL    HW270285  11.055   4.187  -0.468
22760SOL     OW70286   1.571   1.514   4.530
22760SOL    HW170287   1.594   1.592   4.581
22760SOL    HW270288  -9.526  23.543   4.587
22761SOL     OW70289   5.518   9.706   8.277
22761SOL    HW170290  -5.452   9.767   8.253
22761SOL    HW270291   5.484  -1.301   8.360
22762SOL     OW70292   8.287   5.491   4.370
22762SOL    HW170293   8.199  -5.580   4.353
22762SOL    HW270294   8.275   5.576  26.492
22763SOL     OW70295   4.292   4.172  10.386
22763SOL    HW170296  -6.816   4.230  10.353
22763SOL    HW270297  15.368   4.219  10.461
22764SOL     OW70298  10.463   6.427   0.137
22764SOL    HW170299  10.443  -4.552   0.066
22764SOL    HW270300  10.379  28.486   0.177
22765SOL     OW70301   8.250  11.287   5.664
22765SOL    HW170302 -35.932  11.275   5.572
22765SOL    HW270303  -2.795   0.160   5.702
22766SOL     OW70304   1.455   9.024   1.459
22766SOL    HW170305   1.545   8.995  -9.597
22766SOL    HW270306  12.461   9.047   1.372
22767SOL     OW70307   6.936   7.054   3.189
22767SOL    HW170308  -4.144   7.096  14.305
22767SOL    HW270309   6.997   6.990  25.304
22768SOL     OW70310   5.490   1.526   1.267
22768SOL    HW170311  27.489   1.517   1.319
22768SOL    HW270312   5.459  23.617   1.177
22769SOL     OW70313   5.367   3.569   4.622
22769SOL    HW170314   5.438   3.594   4.562
22769SOL    HW270315   5.405 -18.581   4.674
22770SOL     OW70316   5.726  -0.507   4.630
22770SOL    HW170317   5.780  -0.546   4.561
22770SOL    HW270318   5.748  21.665  15.669
22771SOL     OW70319   5.834   3.714   7.778
22771SOL    HW170320   5.917  14.795   7.757
22771SOL    HW270321   5.769  25.862 -14.312
22772SOL     OW70322  10.770   9.060   4.212
22772SOL    HW170323  10.730   8.974  15.263
22772SOL    HW270324  10.762   9.078   4.118
22773SOL     OW70325   5.535   0.903   2.789
22773SOL    HW170326   5.455   0.870   2.829
22773SOL    HW270327   5.534   0.997  -8.235
22774SOL     OW70328   5.155   1.156   2.606
22774SOL    HW170329   5.150  12.291   2.617
22774SOL    HW270330   5.066   1.130   2.582
22775SOL     OW70331   4.066   4.673   3.283
22775SOL    HW170332  26.158  15.724   3.189
22775SOL    HW270333  15.015   4.643  25.371
22776SOL     OW70334  10.949   7.932   7.265
22776SOL    HW170335  10.893   8.006   7.289
22776SOL    HW270336  10.890   7.857   7.264
22777SOL     OW70337   1.841   0.692   8.138
22777SOL    HW170338   1.784  22.798  -2.973
22777SOL    HW270339   1.782   0.665   8.208
22778SOL     OW70340  12.597   4.606   3.166
22778SOL    HW170341  12.503 -17.489   3.160
22778SOL    HW270342 -20.509   4.690 -29.997
22779SOL     OW70343   9.060   5.112   4.830
22779SOL    HW170344   9.114   5.167   4.887
22779SOL    HW270345  -2.059  38.215   4.880
22780SOL     OW70346   9.277   1.987   2.903
22780SOL    HW170347   9.266   1.929   2.979
22780SOL    HW270348   9.343   1.943   2.849
22781SOL     OW70349   4.956   3.112   8.929
22781SOL    HW170350  16.058   3.086  20.037
22781SOL    HW270351   4.870   3.099  -2.070
22782SOL     OW70352   6.222   7.094   5.020
22782SOL    HW170353   6.225   7.021  -6.081
22782SOL    HW270354   6.185 -14.913   4.969
22783SOL     OW70355   9.851   4.097  -0.590
22783SOL    HW170356 -12.264   4.077  -0.677
22783SOL    HW270357   9.774   4.115  21.543
22784SOL     OW70358   1.624   3.928   4.486
22784SOL    HW170359   1.626   3.903  15.433
22784SOL    HW270360  12.755  -7.117   4.514
22785SOL     OW70361   7.548   1.998   5.226
22785SOL    HW170362   7.547   1.978   5.319
22785SOL    HW270363   7.634  -9.070  -5.844
22786SOL     OW70364   6.537   6.554   3.409
22786SOL    HW170365   6.571   6.513   3.489
22786SOL    HW270366   6.552  17.687  25.500
22787SOL     OW70367   9.944   1.380   1.393
22787SOL    HW170368  -1.067  12.345   1.446
22787SOL    HW270369  10.015   1.394  -9.708
22788SOL     OW70370   0.927   1.426  11.094
22788SOL    HW170371   0.918   1.519 -22.005
22788SOL    HW270372   0.987   1.393   0.122
22789SOL     OW70373   8.337   8.343   0.006
22789SOL    HW170374 -13.713  19.407  10.958
22789SOL    HW270375   8.319   8.249  11.040
22790SOL     OW70376   4.348   5.343   1.972
22790SOL    HW170377   4.253   5.343   1.976
22790SOL    HW270378   4.368 -16.755  12.920
22791SOL     OW70379   9.249  -0.158   2.818
22791SOL    HW170380   9.331  33.010  -8.230
22791SOL    HW270381   9.269  10.814   2.883
22792SOL     OW70382   6.634   1.482   7.535
22792SOL    HW170383   6.677  23.563   7.620
22792SOL    HW270384   6.551   1.527   7.548
22793SOL     OW70385   9.087   5.611   6.558
22793SOL    HW170386   9.163  16.675   6.504
22793SOL    HW270387  20.113  16.558  28.618
22794SOL     OW70388   0.707   3.105   4.956
22794SOL    HW170389   0.722   3.014  -6.106
22794SOL    HW270390   0.658   3.102   5.038
22795SOL     OW70391   3.070   2.505   9.835
22795SOL    HW170392   3.143  -8.553   9.775
22795SOL    HW270393   3.045   2.419   9.869
22796SOL     OW70394   7.154   2.042   0.554
22796SOL    HW170395  -3.833  -8.993  11.673
22796SOL    HW270396  -3.900  -9.091   0.540
22797SOL     OW70397   8.569   4.046   1.601
22797SOL    HW170398   8.532   4.018   1.518
22797SOL    HW270399   8.494  -6.959  23.729
22798SOL     OW70400   0.109   0.875  10.476
22798SOL    HW170401   0.100  11.831  10.429
22798SOL    HW270402   0.069  11.898 -11.518
22799SOL     OW70403   8.121   8.819   2.209
22799SOL    HW170404  19.221   8.752   2.178
22799SOL    HW270405  -2.968   8.775   2.278
22800SOL     OW70406   8.889   7.725   8.190
22800SOL    HW170407   8.896   7.631   8.173
22800SOL    HW270408  20.019   7.757  -2.855
22801SOL     OW70409   3.719   2.035   4.593
22801SOL    HW170410   3.635   2.070   4.562
22801SOL    HW270411   3.785  24.173   4.557
22802SOL     OW70412   2.311   2.676   5.619
22802SOL    HW170413   2.310  13.727   5.524
22802SOL    HW270414 -19.855   2.643   5.641
22803SOL     OW70415   8.786   5.496   9.667
22803SOL    HW170416   8.769   5.408   9.635
22803SOL    HW270417   8.880  16.538   9.683
22804SOL     OW70418   0.372  10.222   2.773
22804SOL    HW170419  11.448  10.161   2.837
22804SOL    HW270420   0.278  10.203   2.774
22805SOL     OW70421  -0.068   0.465   1.342
22805SOL    HW170422  10.895   0.478  34.405
22805SOL    HW270423  -0.005   0.530   1.310
22806SOL     OW70424   5.534   2.995   5.869
22806SOL    HW170425   5.450   3.040   5.874
22806SOL    HW270426  -5.486  25.070 -16.304
22807SOL     OW70427   9.987   2.793   8.806
22807SOL    HW170428  10.014  24.847   8.895
22807SOL    HW270429  10.067   2.828   8.766
22808SOL     OW70430   3.993   7.303   7.165
22808SOL    HW170431  37.047   7.263   7.108
22808SOL    HW270432  48.207   7.354   7.106
22809SOL     OW70433  -0.146   3.720   3.747
22809SOL    HW170434  10.931  14.710  -7.366
22809SOL    HW270435  -0.161   3.808 -18.366
22810SOL     OW70436   6.644  10.391   7.076
22810SOL    HW170437   6.576 -11.744   7.112
22810SOL    HW270438 -37.537  10.399  -4.057
22811SOL     OW70439   9.911   5.728   2.486
22811SOL    HW170440   9.907   5.822   2.504
22811SOL    HW270441   9.843   5.689   2.541
22812SOL     OW70442   6.185   8.800   9.368
22812SOL    HW170443   6.171  -2.175   9.298
22812SOL    HW270444   6.280   8.799   9.380
22813SOL     OW70445  10.413   8.147   6.328
22813SOL    HW170446  10.477   8.210   6.294
22813SOL    HW270447  10.329   8.175   6.292
22814SOL     OW70448   5.229   2.370   8.800
22814SOL    HW170449   5.203   2.279 -24.306
22814SOL    HW270450  -5.836   2.414 -13.198
22815SOL     OW70451   2.545   5.643   3.293
22815SOL    HW170452  -8.586  -5.427  36.410
22815SOL    HW270453  13.591  -5.343   3.372
22816SOL     OW70454  -0.557   3.078   7.052
22816SOL    HW170455  10.486   3.157  18.038
22816SOL    HW270456  -0.647  -7.992  29.123
22817SOL     OW70457   9.620  10.437   8.163
22817SOL    HW170458   9.685  -0.571   8.227
22817SOL    HW270459 -12.506  10.515   8.136
22818SOL     OW70460   0.296   8.591   1.649
22818SOL    HW170461   0.224  30.695   1.708
22818SOL    HW270462   0.353   8.668   1.648
22819SOL     OW70463   2.528   7.968   2.611
22819SOL    HW170464   2.480  -3.154  -8.428
22819SOL    HW270465   2.594  -3.082 -30.439
22820SOL     OW70466   8.975  -1.502   7.679
22820SOL    HW170467 -13.086  20.670  -3.379
22820SOL    HW270468   9.025  20.530  18.653
22821SOL     OW70469   2.579   2.796   9.080
22821SOL    HW170470   2.516   2.813   9.150
22821SOL    HW270471   2.527   2.757   9.010
22822SOL     OW70472   3.612   7.634   0.727
22822SOL    HW170473  14.667 -14.539  11.759
22822SOL    HW270474 -18.381   7.671  33.866
22823SOL     OW70475   8.567   3.181   2.903
22823SOL    HW170476   8.562   3.146   2.815
22823SOL    HW270477   8.495   3.139  -8.090
22824SOL     OW70478   8.652   3.589   2.054
22824SOL    HW170479   8.582   3.534   2.088
22824SOL    HW270480  19.650  -7.366   2.038
22825SOL     OW70481   7.480   2.374   8.432
22825SOL    HW170482 -25.627  -8.743   8.487
22825SOL    HW270483   7.396   2.411  30.538
22826SOL     OW70484   4.309  13.261   4.860
22826SOL    HW170485   4.272  -8.732   4.843
22826SOL    HW270486   4.388 -19.861   4.805
22827SOL     OW70487   8.351   1.603   1.750
22827SOL    HW170488 -13.676   1.683   1.757
22827SOL    HW270489  -2.738   1.614   1.669
22828SOL     OW70490   0.141  11.567   9.183
22828SOL    HW170491   0.126  11.641   9.125
22828SOL    HW270492   0.094 -10.585  42.262
22829SOL     OW70493  11.749   0.541   9.113
22829SOL    HW170494  11.807   0.569 -24.076
22829SOL    HW270495 -21.458   0.559   9.080
22830SOL     OW70496   7.704   2.841   8.592
22830SOL    HW170497  -3.336  -8.294   8.581
22830SOL    HW270498  -3.412   2.870   8.542
22831SOL     OW70499   9.533  12.203   6.432
22831SOL    HW170500   9.500 -31.962  -4.519
22831SOL    HW270501   9.459  12.178   6.376
22832SOL     OW70502   1.453   3.786   5.214
22832SOL    HW170503   1.415   3.741   5.289
22832SOL    HW270504   1.377 -40.332   5.170
22833SOL     OW70505   9.625   9.384   7.320
22833SOL    HW170506   9.674  20.372  18.296
22833SOL    HW270507   9.679   9.382  18.439
22834SOL     OW70508   4.735   9.911   5.549
22834SOL    HW170509   4.809  -1.068   5.543
22834SOL    HW270510 -17.371   9.915  16.680
22835SOL     OW70511   3.745   8.942   3.721
22835SOL    HW170512   3.662  30.979   3.745
22835SOL    HW270513   3.771  19.938   3.640
22836SOL     OW70514   9.284   3.953   8.739
22836SOL    HW170515   9.216   3.936   8.674
22836SOL    HW270516   9.289  -7.167   8.790
22837SOL     OW70517   7.912   1.727   6.464
22837SOL    HW170518  18.887   1.772   6.519
22837SOL    HW270519  -3.060  -9.247 -26.672
22838SOL     OW70520  -0.973   6.839   7.397
22838SOL    HW170521  21.172   6.773   7.374
22838SOL    HW270522  -1.055   6.805   7.362
22839SOL     OW70523   3.875   9.761   5.542
22839SOL    HW170524  -7.237  20.743   5.566
22839SOL    HW270525   3.885  20.789   5.448
22840SOL     OW70526   1.796   6.325   2.502
22840SOL    HW170527   1.815   6.239   2.540
22840SOL    HW270528  -9.172   6.341   2.441
22841SOL     OW70529   3.946   1.167   2.783
22841SOL    HW170530   4.019   1.106   2.795
22841SOL    HW270531   3.983   1.253   2.799
22842SOL     OW70532   6.085   2.678   1.736
22842SOL    HW170533 -27.035  13.729   1.641
22842SOL    HW270534 -15.916  13.665   1.753
22843SOL     OW70535   4.649   6.784   7.084
22843SOL    HW170536   4.577   6.830   7.128
22843SOL    HW270537   4.721   6.787   7.147
22844SOL     OW70538   1.380   6.812   6.936
22844SOL    HW170539   1.365   6.837   6.845
22844SOL    HW270540  23.381  17.881   6.982
22845SOL     OW70541  10.355   3.825   7.996
22845SOL    HW170542  -0.628   3.809   8.072
22845SOL    HW270543  10.269   3.841   8.033
22846SOL     OW70544   8.386  10.335  -0.381
22846SOL    HW170545  19.469  10.284  -0.450
22846SOL    HW270546   8.344  -0.632  10.612
22847SOL     OW70547   7.666   3.612   5.620
22847SOL    HW170548 -25.409   3.662   5.689
22847SOL    HW270549   7.649   3.676   5.551
22848SOL     OW70550   2.941   2.624   1.718
22848SOL    HW170551   2.934   2.631  12.852
22848SOL    HW270552   2.851  13.676   1.686
22849SOL     OW70553   4.241   2.584   5.506
22849SOL    HW170554  26.363   2.499   5.514
22849SOL    HW270555   4.177  13.612   5.436
22850SOL     OW70556   2.002   1.224  -0.079
22850SOL    HW170557   2.072   1.273  44.121
22850SOL    HW270558   1.993   1.265  -0.166
22851SOL     OW70559   3.701   1.004   2.763
22851SOL    HW170560  -7.303   0.922   2.800
22851SOL    HW270561   3.765   1.071   2.788
22852SOL     OW70562   6.617   0.400   5.023
22852SOL    HW170563   6.582   0.485   4.996
22852SOL    HW270564   6.586   0.340   4.955
22853SOL     OW70565   7.135   6.616   6.419
22853SOL    HW170566   7.112   6.530 -15.696
22853SOL    HW270567  -3.852   6.595   6.497
22854SOL     OW70568   4.017   4.388   9.719
22854SOL    HW170569  14.974   4.394   9.768
22854SOL    HW270570   3.992   4.357 -23.486
22855SOL     OW70571   0.249   0.746   6.808
22855SOL    HW170572   0.329   0.759   6.756
22855SOL    HW270573   0.251  11.857   6.872
22856SOL     OW70574   9.429   0.332   0.326
22856SOL    HW170575  -1.687   0.325   0.384
22856SOL    HW270576  -1.535   0.330   0.384
22857SOL     OW70577   8.326   1.621  11.177
22857SOL    HW170578  -2.626   1.593  11.151
22857SOL    HW270579   8.279   1.539 -10.886
22858SOL     OW70580   3.604   3.551   7.842
22858SOL    HW170581   3.529 -18.558 -14.288
22858SOL    HW270582   3.678   3.542  -3.257
22859SOL     OW70583   8.948   6.213   9.556
22859SOL    HW170584   8.864   6.172   9.577
22859SOL    HW270585  19.997   6.283   9.621
22860SOL     OW70586   3.749   9.529   3.238
22860SOL    HW170587  14.778   9.624   3.243
22860SOL    HW270588   3.740   9.509   3.145
22861SOL     OW70589   7.620   5.190   3.303
22861SOL    HW170590  29.757   5.142   3.362
22861SOL    HW270591  29.612   5.155   3.322
22862SOL     OW70592   8.693   5.899   0.249
22862SOL    HW170593   8.606   5.861   0.263
22862SOL    HW270594   8.733   5.843   0.183
22863SOL     OW70595   0.258   1.358  -0.162
22863SOL    HW170596   0.166  12.381  10.858
22863SOL    HW270597   0.296   1.386  10.794
22864SOL     OW70598   4.177   9.302   8.286
22864SOL    HW170599   4.190 -12.839   8.215
22864SOL    HW270600   4.265   9.325  -2.724
22865SOL     OW70601   3.323   6.904   8.284
22865SOL    HW170602   3.300   6.989   8.321
22865SOL    HW270603   3.239   6.864   8.262
22866SOL     OW70604  10.003   6.806   1.457
22866SOL    HW170605   9.958   6.859  23.471
22866SOL    HW270606   9.934   6.754   1.498
22867SOL     OW70607   9.722  -1.734   5.264
22867SOL    HW170608   9.751  42.515  27.352
22867SOL    HW270609   9.629  31.392  16.281
22868SOL     OW70610   1.059   7.382   2.213
22868SOL    HW170611   1.022  18.474   2.142
22868SOL    HW270612   1.068   7.294   2.176
22869SOL     OW70613   4.389   4.582   6.510
22869SOL    HW170614  -6.691   4.669  -4.528
22869SOL    HW270615   4.409   4.564   6.602
22870SOL     OW70616   7.966   9.666   7.008
22870SOL    HW170617  -3.047   9.617   6.930
22870SOL    HW270618   8.018   9.628   7.079
22871SOL     OW70619   4.875  11.567  10.450
22871SOL    HW170620   4.898   0.585  10.523
22871SOL    HW270621  -6.160  11.623  10.373
22872SOL     OW70622   0.847   3.174   9.872
22872SOL    HW170623   0.892   3.230  20.848
22872SOL    HW270624 -10.279   3.157 -12.246
22873SOL     OW70625   0.932   8.335   5.307
22873SOL    HW170626   0.884   8.324   5.225
22873SOL    HW270627  11.926  19.445 -38.806
22874SOL     OW70628   3.246   5.842   1.983
22874SOL    HW170629   3.265 -16.147   2.009
22874SOL    HW270630  -7.880  16.864  -9.019
22875SOL     OW70631   7.588   8.183   7.566
22875SOL    HW170632   7.584  30.316   7.487
22875SOL    HW270633 -14.438   8.235   7.627
22876SOL     OW70634   8.196  10.479   0.219
22876SOL    HW170635   8.146  10.475   0.138
22876SOL    HW270636   8.263  10.546   0.202
22877SOL     OW70637   8.988   6.045   0.268
22877SOL    HW170638   8.980   6.110  11.238
22877SOL    HW270639  19.945   5.996   0.265
22878SOL     OW70640   2.449   1.605  10.248
22878SOL    HW170641 -30.701   1.581  10.161
22878SOL    HW270642   2.544   1.598  10.242
22879SOL     OW70643   6.316   5.604  11.948
22879SOL    HW170644   6.235   5.556 -21.153
22879SOL    HW270645   6.322   5.606  11.852
22880SOL     OW70646   3.642   2.297  -0.231
22880SOL    HW170647  14.726   2.379  10.788
22880SOL    HW270648   3.660  13.280  21.774
22881SOL     OW70649   6.433   2.885   2.796
22881SOL    HW170650   6.341   2.889   2.823
22881SOL    HW270651   6.440   2.947 -19.355
22882SOL     OW70652   9.480   0.973   7.537
22882SOL    HW170653   9.492   0.953   7.629
22882SOL    HW270654  20.513   0.888 -14.586
22883SOL     OW70655   4.714   3.063  10.781
22883SOL    HW170656   4.749  14.183  -0.297
22883SOL    HW270657   4.726   3.074  -0.164
22884SOL     OW70658   7.911   4.159   6.934
22884SOL    HW170659   7.902 -17.839   6.985
22884SOL    HW270660 -14.258   4.132  -4.122
22885SOL     OW70661   7.225  -0.559   3.973
22885SOL    HW170662   7.280  21.481   4.041
22885SOL    HW270663  -3.838  -0.633   3.917
22886SOL     OW70664   9.625   0.274   3.906
22886SOL    HW170665 -12.437   0.180   3.916
22886SOL    HW270666   9.712   0.314   3.907
22887SOL     OW70667   7.655  -0.123   3.692
22887SOL    HW170668   7.718  -0.163  -7.406
22887SOL    HW270669   7.587  10.850   3.704
22888SOL     OW70670   7.245   3.121  10.217
22888SOL    HW170671  -3.806  14.068  10.196
22888SOL    HW270672   7.304  14.193  21.188
22889SOL     OW70673   7.209  10.160   3.198
22889SOL    HW170674   7.235  10.140   3.108
22889SOL    HW270675   7.131  10.215   3.188
22890SOL     OW70676   1.374   0.609   1.533
22890SOL    HW170677   1.279  22.675  -9.501
22890SOL    HW270678  12.451  11.563  12.593
22891SOL     OW70679   6.053   3.015   6.738
22891SOL    HW170680  17.106   3.023   6.643
22891SOL    HW270681   6.102   3.089   6.774
22892SOL     OW70682  11.320   8.784   0.083
22892SOL    HW170683 -10.739  -2.183   0.142
22892SOL    HW270684  11.226  -2.270   0.096
22893SOL     OW70685   2.372   5.470   6.517
22893SOL    HW170686   2.461  -5.583   6.485
22893SOL    HW270687  -8.658   5.489   6.610
22894SOL     OW70688   9.218   9.449   5.551
22894SOL    HW170689  20.248  -1.682 -16.556
22894SOL    HW270690   9.252   9.494   5.474
22895SOL     OW70691  10.804   7.183  10.862
22895SOL    HW170692  10.749 -14.908  10.940
22895SOL    HW270693  10.791   7.104  -0.229
22896SOL     OW70694  -0.056   7.439  -0.494
22896SOL    HW170695   0.026   7.467  21.544
22896SOL    HW270696  11.010   7.390  -0.417
22897SOL     OW70697   7.223   9.538   6.378
22897SOL    HW170698  18.264   9.451  17.377
22897SOL    HW270699  29.268  -1.517   6.466
22898SOL     OW70700   3.355   0.965   3.590
22898SOL    HW170701   3.298   0.979  -7.373
22898SOL    HW270702  25.433   0.870   3.577
22899SOL     OW70703   8.134   6.369   0.356
22899SOL    HW170704   8.220   6.335   0.333
22899SOL    HW270705  19.156   6.437  22.370
22900SOL     OW70706   3.481   0.400   9.048
22900SOL    HW170707  36.674   0.400   8.987
22900SOL    HW270708   3.447  22.568   9.043
22901SOL     OW70709   5.210   7.147   4.545
22901SOL    HW170710  38.353  18.105   4.502
22901SOL    HW270711  -5.840   7.209  -6.567
22902SOL     OW70712   3.896   3.959   6.832
22902SOL    HW170713   3.984  14.990   6.867
22902SOL    HW270714   3.908   4.001  -4.293
22903SOL     OW70715  12.252  -1.242   4.152
22903SOL    HW170716  -9.819  -1.307   4.222
22903SOL    HW270717  12.342  31.889   4.121
22904SOL     OW70718   7.385   3.032   4.573
22904SOL    HW170719   7.378   3.117   4.616
22904SOL    HW270720  18.418   2.968   4.644
22905SOL     OW70721   2.274   8.979   3.870
22905SOL    HW170722   2.306  -1.977   3.904
22905SOL    HW270723 -19.854   9.002   3.791
22906SOL     OW70724   5.890   5.215  10.046
22906SOL    HW170725   5.833   5.266  -0.935
22906SOL    HW270726   5.973  16.302  -0.994
22907SOL     OW70727   8.210   7.251   2.897
22907SOL    HW170728  -2.738   7.245 -19.159
22907SOL    HW270729   8.167   7.184   2.950
22908SOL     OW70730   1.804   8.694  12.001
22908SOL    HW170731 -20.339   8.648  11.945
22908SOL    HW270732   1.884   8.697 -10.131
22909SOL     OW70733   5.125   5.760  10.058
22909SOL    HW170734   5.203   5.796  10.016
22909SOL    HW270735 -16.948  27.744  10.045
22910SOL     OW70736   0.553   7.403   1.817
22910SOL    HW170737   0.486  29.479  -9.291
22910SOL    HW270738   0.576   7.311  -9.208
22911SOL     OW70739   2.185   7.618   2.116
22911SOL    HW170740   2.168   7.595   2.025
22911SOL    HW270741   2.126   7.691  13.173
22912SOL     OW70742   3.691   9.319   9.134
22912SOL    HW170743  25.718   9.247  20.136
22912SOL    HW270744   3.626   9.378  -1.868
22913SOL     OW70745   8.119   1.176   9.368
22913SOL    HW170746  -2.906  12.145   9.431
22913SOL    HW270747   8.096   1.252   9.420
22914SOL     OW70748   2.827   6.418   6.939
22914SOL    HW170749   2.796   6.336   6.899
22914SOL    HW270750   2.904   6.392  18.029
22915SOL     OW70751  10.704   3.099   8.825
22915SOL    HW170752  10.671   3.076   8.912
22915SOL    HW270753  10.660 -18.899   8.803
22916SOL     OW70754   1.275   2.564   9.202
22916SOL    HW170755  -9.800  13.515  -1.846
22916SOL    HW270756   1.308   2.568   9.292
22917SOL     OW70757   3.291   4.154   4.735
22917SOL    HW170758 -18.841   4.206   4.796
22917SOL    HW270759   3.371   4.135  26.862
22918SOL     OW70760   1.995   9.489   9.616
22918SOL    HW170761   1.959  -1.481   9.561
22918SOL    HW270762   2.085   9.515  31.713
22919SOL     OW70763   5.396   1.878   3.272
22919SOL    HW170764  -5.738   1.888   3.260
22919SOL    HW270765   5.407   1.863  14.406
22920SOL     OW70766   7.851   3.188   0.298
22920SOL    HW170767  -3.127 -30.003   0.309
22920SOL    HW270768   7.780   3.168   0.359
22921SOL     OW70769   5.714   0.840  -0.335
22921SOL    HW170770 -27.471  11.827  -0.291
22921SOL    HW270771 -16.325   0.780  10.642
22922SOL     OW70772   7.960   2.751   6.027
22922SOL    HW170773  -3.125   2.777   5.946
22922SOL    HW270774   7.904 -19.396   6.065
22923SOL     OW70775   1.368   9.192   1.673
22923SOL    HW170776   1.394  20.162  -9.428
22923SOL    HW270777   1.431 -23.934   1.745
22924SOL     OW70778   1.571  10.596  10.131
22924SOL    HW170779   1.588  -0.435  10.037
22924SOL    HW270780  23.593  10.519  10.138
22925SOL     OW70781   5.975   5.066   0.239
22925SOL    HW170782   5.946   5.136  11.338
22925SOL    HW270783   6.056  16.137  22.280
22926SOL     OW70784   8.953   0.815   4.725
22926SOL    HW170785   8.981  11.942   4.701
22926SOL    HW270786   8.948   0.817  15.861
22927SOL     OW70787   9.958   3.749   2.882
22927SOL    HW170788  21.069   3.789   2.833
22927SOL    HW270789   9.943   3.665   2.837
22928SOL     OW70790   9.050  10.786   4.124
22928SOL    HW170791   9.052  10.861 -29.054
22928SOL    HW270792   8.961  10.785   4.159
22929SOL     OW70793   4.319   3.303  10.247
22929SOL    HW170794  15.363  47.480  -0.886
22929SOL    HW270795   4.347 -18.868  10.255
22930SOL     OW70796   8.006   4.197  11.205
22930SOL    HW170797   7.999   4.104  11.226
22930SOL    HW270798   8.086   4.205   0.113
22931SOL     OW70799   8.089   1.156   3.613
22931SOL    HW170800  19.058   1.114   3.563
22931SOL    HW270801   8.043   1.206   3.680
22932SOL     OW70802   6.192  10.369   7.874
22932SOL    HW170803  -4.816  10.369   7.784
22932SOL    HW270804  -4.771  10.345   7.927
22933SOL     OW70805   1.096   5.018  11.926
22933SOL    HW170806  -9.890   5.094 -10.175
22933SOL    HW270807   1.015 -17.025  11.962
22934SOL     OW70808   3.832   7.672   4.797
22934SOL    HW170809   3.920 -14.396   4.834
22934SOL    HW270810   3.776   7.654 -28.246
22935SOL     OW70811   3.728   3.920   4.184
22935SOL    HW170812   3.672 -29.137  -6.902
22935SOL    HW270813   3.733  -7.086   4.273
22936SOL     OW70814   6.587   7.764  11.389
22936SOL    HW170815   6.493   7.751 -10.697
22936SOL    HW270816  17.641  -3.246   0.439
22937SOL     OW70817   5.900   8.117   5.614
22937SOL    HW170818   5.946   8.142   5.694
22937SOL    HW270819 -16.174   8.194  -5.482
22938SOL     OW70820   6.757   3.011   7.301
22938SOL    HW170821   6.667   3.043   7.300
22938SOL    HW270822  17.813   2.988  29.471
22939SOL     OW70823   3.979   2.192   4.025
22939SOL    HW170824  14.962   2.171   3.951
22939SOL    HW270825   3.967   2.286  -7.000
22940SOL     OW70826   0.975  10.490   0.606
22940SOL    HW170827   1.016  10.561   0.559
22940SOL    HW270828   1.044 -11.655   0.616
22941SOL     OW70829   2.677  10.790   1.928
22941SOL    HW170830   2.614  10.720   1.940
22941SOL    HW270831   2.713  10.805   2.015
22942SOL     OW70832   3.766   0.962   2.343
22942SOL    HW170833   3.817   0.889  13.417
22942SOL    HW270834   3.826  12.077   2.346
22943SOL     OW70835   9.982   7.345   3.187
22943SOL    HW170836  10.003   7.401  -7.927
22943SOL    HW270837   9.933   7.401  -7.793
22944SOL     OW70838   3.538   2.283   9.548
22944SOL    HW170839   3.522   2.372   9.579
22944SOL    HW270840   3.471   2.268   9.481
22945SOL     OW70841   0.910   4.140   6.940
22945SOL    HW170842  22.987   4.054 -26.137
22945SOL    HW270843   0.918  -6.919 -26.272
22946SOL     OW70844   7.575   7.508  10.098
22946SOL    HW170845   7.620  18.542  10.182
22946SOL    HW270846   7.532   7.593  10.099
22947SOL     OW70847   2.972   7.814   2.257
22947SOL    HW170848   2.987  -3.131   2.254
22947SOL    HW270849  25.083  -3.258   2.173
22948SOL     OW70850   6.518   4.413   3.198
22948SOL    HW170851  39.628   4.503  -7.874
22948SOL    HW270852   6.445   4.367 -18.922
22949SOL     OW70853   1.017   2.732   9.054
22949SOL    HW170854   0.930  -8.323  -2.021
22949SOL    HW270855   1.073  -8.371   9.009
22950SOL     OW70856   0.827   3.178   1.701
22950SOL    HW170857   0.854   3.122 -20.451
22950SOL    HW270858   0.878  14.297   1.691
22951SOL     OW70859   2.697   7.763   1.935
22951SOL    HW170860  24.809   7.748  12.886
22951SOL    HW270861   2.620   7.706   1.942
22952SOL     OW70862   6.799   5.167   6.196
22952SOL    HW170863   6.725   5.124   6.238
22952SOL    HW270864   6.802   5.129   6.108
22953SOL     OW70865   6.078   1.365   2.598
22953SOL    HW170866  17.058   1.403  -8.505
22953SOL    HW270867   6.085  12.470  35.786
22954SOL     OW70868  -0.435  10.623  10.046
22954SOL    HW170869  -0.355  10.579  10.075
22954SOL    HW270870  21.620  10.681 -11.961
22955SOL     OW70871  10.574   8.150   8.171
22955SOL    HW170872  10.616 -13.858  -2.819
22955SOL    HW270873  10.643  -2.955  -2.878
22956SOL     OW70874   9.196   6.391   0.670
22956SOL    HW170875   9.194   6.311   0.618
22956SOL    HW270876   9.155  -4.583   0.614
22957SOL     OW70877   6.380  10.054   4.392
22957SOL    HW170878   6.421   9.981   4.437
22957SOL    HW270879   6.451  10.098  26.425
22958SOL     OW70880   6.636   2.962  10.201
22958SOL    HW170881   6.545   2.957  10.230
22958SOL    HW270882   6.640  36.160  10.148
22959SOL     OW70883   2.947   3.787   8.588
22959SOL    HW170884   2.929  -7.270  -2.544
22959SOL    HW270885   2.888   3.729   8.635
22960SOL     OW70886   3.221   0.914   7.676
22960SOL    HW170887  -7.730   0.909   7.640
22960SOL    HW270888   3.232   0.893   7.769
22961SOL     OW70889   7.524   0.997   3.529
22961SOL    HW170890   7.570  12.120   3.520
22961SOL    HW270891   7.584   0.943   3.580
22962SOL     OW70892   2.127   9.828   8.970
22962SOL    HW170893   2.049   9.863  20.052
22962SOL    HW270894  -8.929  -1.306   8.966
22963SOL     OW70895   4.323   5.521   9.539
22963SOL    HW170896  -6.798   5.470   9.543
22963SOL    HW270897   4.301  -5.436   9.582
22964SOL     OW70898   3.382   2.347   4.273
22964SOL    HW170899  -7.582   2.289   4.281
22964SOL    HW270900 -18.660  -8.604   4.284
22965SOL     OW70901   5.404  10.939   7.118
22965SOL    HW170902   5.491  10.902   7.131
22965SOL    HW270903   5.351  -0.173   7.085
22966SOL     OW70904   3.323   5.941   9.990
22966SOL    HW170905   3.307  -5.027  10.051
22966SOL    HW270906   3.418  28.006  -1.047
22967SOL     OW70907   4.083   4.374   3.352
22967SOL    HW170908   4.016   4.405   3.413
22967SOL    HW270909   4.106   4.451   3.299
22968SOL     OW70910   9.279   8.341  -0.171
22968SOL    HW170911   9.320   8.354  -0.085
22968SOL    HW270912  20.225   8.341  21.927
22969SOL     OW70913   9.164   4.088   4.145
22969SOL    HW170914  31.207   4.118  15.269
22969SOL    HW270915   9.257   4.109   4.150
22970SOL     OW70916   3.776  10.574   6.718
22970SOL    HW170917   3.837  10.535   6.654
22970SOL    HW270918  14.837  10.667   6.717
22971SOL     OW70919  10.675   8.257   3.412
22971SOL    HW170920  10.628  19.366   3.366
22971SOL    HW270921  10.614 -13.853  -7.561
22972SOL     OW70922  10.728   7.972   2.179
22972SOL    HW170923  10.743  -3.006   2.108
22972SOL    HW270924  10.730   7.886   2.137
22973SOL     OW70925   0.817   1.513   4.953
22973SOL    HW170926  11.854   1.503   5.049
22973SOL    HW270927   0.875   1.587   4.938
22974SOL     OW70928   6.564   1.143   1.933
22974SOL    HW170929   6.593   1.052   1.929
22974SOL    HW270930   6.470   1.138  35.068
22975SOL     OW70931   6.733   0.859   9.617
22975SOL    HW170932  -4.299  11.982   9.571
22975SOL    HW270933   6.790   0.799   9.569
22976SOL     OW70934   7.290   8.080   6.835
22976SOL    HW170935  -3.817   8.141   6.864
22976SOL    HW270936  -3.736   8.022   6.911
22977SOL     OW70937   7.089   7.943   5.674
22977SOL    HW170938   7.128   7.971   5.591
22977SOL    HW270939   7.162   7.939   5.735
22978SOL     OW70940   7.394   6.997   8.082
22978SOL    HW170941   7.366  17.997   7.999
22978SOL    HW270942   7.478  29.118   8.062
22979SOL     OW70943   4.435   4.182   3.156
22979SOL    HW170944   4.493   4.146  14.263
22979SOL    HW270945   4.459   4.135   3.076
22980SOL     OW70946   3.251   7.940   4.767
22980SOL    HW170947   3.197   8.019   4.756
22980SOL    HW270948   3.194   7.880   4.814
22981SOL     OW70949   7.586  10.870  -1.673
22981SOL    HW170950   7.545  10.818  -1.743
22981SOL    HW270951   7.680 -11.217  31.428
22982SOL     OW70952   5.405   0.853   2.479
22982SOL    HW170953   5.439  22.999  13.579
22982SOL    HW270954   5.424 -10.270  -8.516
22983SOL     OW70955   6.854   0.838   5.136
22983SOL    HW170956   6.865   0.746   5.160
22983SOL    HW270957  17.945 -10.154   5.201
22984SOL     OW70958   5.753   3.642   6.040
22984SOL    HW170959   5.689   3.689   6.094
22984SOL    HW270960 -16.250   3.632   6.097
22985SOL     OW70961  10.064   7.290   5.654
22985SOL    HW170962  10.021   7.332   5.729
22985SOL    HW270963  10.020   7.328  16.617
22986SOL     OW70964  12.137   3.513   3.221
22986SOL    HW170965  -9.939   3.463  -7.901
22986SOL    HW270966 -20.903  14.606 -18.859
22987SOL     OW70967   3.377  10.040   3.683
22987SOL    HW170968   3.388 -34.177   3.758
22987SOL    HW270969   3.466 -12.008 -18.415
22988SOL     OW70970   6.121   8.261   8.667
22988SOL    HW170971   6.198   8.217   8.704
22988SOL    HW270972   6.141  19.310   8.574
22989SOL     OW70973   0.367   8.453   4.450
22989SOL    HW170974   0.336   8.493  -6.508
22989SOL    HW270975   0.313  19.533 -28.737
22990SOL     OW70976   0.817   6.338   7.357
22990SOL    HW170977   0.871  -4.771   7.395
22990SOL    HW270978  11.812  17.335   7.283
22991SOL     OW70979   5.334   0.825   5.760
22991SOL    HW170980  -5.690   0.741  16.756
22991SOL    HW270981   5.245  11.857   5.794
22992SOL     OW70982   3.747   4.972   4.354
22992SOL    HW170983   3.713   5.054  15.430
22992SOL    HW270984   3.762   4.992   4.262
22993SOL     OW70985   6.047   3.538   1.313
22993SOL    HW170986 -16.074   3.619   1.342
22993SOL    HW270987   6.014  14.563   1.225
22994SOL     OW70988   8.092  -0.077   4.052
22994SOL    HW170989  41.234  21.960   4.135
22994SOL    HW270990   8.175  -0.062   4.008
22995SOL     OW70991   0.248  10.488   3.109
22995SOL    HW170992   0.152  10.485  -7.931
22995SOL    HW270993   0.271 -22.619   3.201
22996SOL     OW70994   8.142   9.821   7.481
22996SOL    HW170995   8.113   9.757  -3.493
22996SOL    HW270996  19.180  20.945   7.528
22997SOL     OW70997   8.046   6.185   3.510
22997SOL    HW170998   8.119  17.222 -18.631
22997SOL    HW270999  -3.072 -15.886   3.456
22998SOL     OW71000   2.220   4.818  10.169
22998SOL    HW171001  -8.822   4.804  10.264
22998SOL    HW271002   2.311   4.803 -11.934
22999SOL     OW71003  10.644   6.380   0.968
22999SOL    HW171004  10.605  -4.631   1.050
22999SOL    HW271005  10.720   6.327   0.994
23000SOL     OW71006   0.910   8.358   3.670
23000SOL    HW171007   0.846  -2.747   3.699
23000SOL    HW271008   0.940   8.326   3.585
23001SOL     OW71009   4.784   5.198  -0.348
23001SOL    HW171010  15.763   5.243  -0.407
23001SOL    HW271011   4.727   5.158  10.758
23002SOL     OW71012   7.625   8.936   7.735
23002SOL    HW171013  -3.366   8.854  40.867
23002SOL    HW271014   7.653   8.992   7.808
23003SOL     OW71015   1.617   8.348   8.954
23003SOL    HW171016   1.523  19.392  20.008
23003SOL    HW271017   1.645   8.440   8.944
23004SOL     OW71018   6.748   5.818   3.743
23004SOL    HW171019  17.754   5.902   3.774
23004SOL    HW271020   6.715  27.833   3.806
23005SOL     OW71021  11.088   0.882   1.924
23005SOL    HW171022   0.006   0.802   1.894
23005SOL    HW271023  11.174   0.881  -9.157
23006SOL     OW71024   7.253   2.514   8.507
23006SOL    HW171025   7.181   2.453   8.490
23006SOL    HW271026   7.229  -8.446   8.460
23007SOL     OW71027   4.622   8.432   8.636
23007SOL    HW171028   4.583   8.456  19.591
23007SOL    HW271029   4.658   8.514   8.669
23008SOL     OW71030   8.565   8.495   5.700
23008SOL    HW171031  30.615   8.404  16.738
23008SOL    HW271032   8.484   8.546  16.733
23009SOL     OW71033   1.851   3.090   1.479
23009SOL    HW171034  23.996  14.070   1.441
23009SOL    HW271035   1.775   3.080  12.461
23010SOL     OW71036   7.520  10.580   1.526
23010SOL    HW171037   7.528  10.655   1.467
23010SOL    HW271038   7.599  -0.511   1.510
23011SOL     OW71039   7.365  -0.603   5.851
23011SOL    HW171040   7.314  -0.615   5.931
23011SOL    HW271041   7.305  21.519  16.830
23012SOL     OW71042   9.802   6.429   8.669
23012SOL    HW171043   9.850   6.376  -2.434
23012SOL    HW271044   9.713   6.395   8.667
23013SOL     OW71045   2.588   8.602   8.919
23013SOL    HW171046  -8.431   8.602  19.865
23013SOL    HW271047   2.574   8.510  -2.099
23014SOL     OW71048   7.305  10.101   6.186
23014SOL    HW171049 -14.721  10.026 -37.945
23014SOL    HW271050   7.364  10.176   6.190
23015SOL     OW71051   3.443   4.417   7.208
23015SOL    HW171052   3.384   4.466  18.304
23015SOL    HW271053  -7.653   4.353   7.164
23016SOL     OW71054   7.373   6.312   6.335
23016SOL    HW171055   7.419   6.322   6.418
23016SOL    HW271056   7.282   6.335   6.355
23017SOL     OW71057   3.712   3.321   6.755
23017SOL    HW171058   3.777 -29.785 -15.255
23017SOL    HW271059   3.689  -7.630   6.728
23018SOL     OW71060   7.154   2.937   6.064
23018SOL    HW171061   7.104   2.969   5.989
23018SOL    HW271062  -3.952 -19.182   6.122
23019SOL     OW71063   1.740   2.387   7.754
23019SOL    HW171064   1.706   2.460   7.805
23019SOL    HW271065  12.744 -19.678   7.666
23020SOL     OW71066  10.583   2.598  -0.576
23020SOL    HW171067  -0.543   2.562  10.446
23020SOL    HW271068  10.569  -8.377  -0.507
23021SOL     OW71069   9.314  10.356   9.081
23021SOL    HW171070   9.235  -0.698   9.029
23021SOL    HW271071   9.337 -11.632   9.066
23022SOL     OW71072  11.620   4.962   5.499
23022SOL    HW171073 -10.489   4.979  -5.451
23022SOL    HW271074 -10.423   4.873  -5.537
23023SOL     OW71075  -0.563   2.408  10.927
23023SOL    HW171076  10.526   2.333  10.958
23023SOL    HW271077  -0.604   2.444  11.006
23024SOL     OW71078   9.042   6.816   9.811
23024SOL    HW171079   8.992   6.891  20.818
23024SOL    HW271080   8.977   6.746  -1.222
23025SOL     OW71081   9.699   0.099   6.233
23025SOL    HW171082   9.654   0.108   6.317
23025SOL    HW271083   9.764  11.070  -4.792
23026SOL     OW71084   8.152   0.304   3.390
23026SOL    HW171085   8.106   0.245  14.369
23026SOL    HW271086  19.182  11.430   3.350
23027SOL     OW71087   5.463   0.178   3.596
23027SOL    HW171088  -5.606   0.199   3.685
23027SOL    HW271089   5.416   0.097   3.575
23028SOL     OW71090   2.650   1.930   4.854
23028SOL    HW171091   2.646   1.892  -6.097
23028SOL    HW271092   2.667   1.855  15.836
23029SOL     OW71093   2.693   8.813   2.759
23029SOL    HW171094   2.652   8.770   2.834
23029SOL    HW271095 -30.500   8.850   2.710
23030SOL     OW71096   7.995  11.132   1.141
23030SOL    HW171097   7.977  11.066  23.153
23030SOL    HW271098   8.013   0.042  23.299
23031SOL     OW71099   3.635  10.708   0.213
23031SOL    HW171100  -7.345  10.693   0.139
23031SOL    HW271101   3.693  10.736   0.284
23032SOL     OW71102   2.049   9.404   5.506
23032SOL    HW171103  13.129   9.326  27.547
23032SOL    HW271104 -20.062   9.455   5.431
23033SOL     OW71105   8.739   0.379   5.352
23033SOL    HW171106   8.675  11.472  16.438
23033SOL    HW271107  19.861   0.395   5.398
23034SOL     OW71108   3.607   7.300   9.632
23034SOL    HW171109  36.741   7.251   9.713
23034SOL    HW271110   3.574  18.274  20.610
23035SOL     OW71111   6.236  10.562   7.057
23035SOL    HW171112   6.237  10.620   6.981
23035SOL    HW271113   6.265  10.617   7.129
23036SOL     OW71114   9.337   7.781   1.307
23036SOL    HW171115  20.359   7.722  -9.805
23036SOL    HW271116   9.252   7.792   1.350
23037SOL     OW71117   0.673   0.219   0.842
23037SOL    HW171118   0.736   0.151   0.868
23037SOL    HW271119   0.727   0.298   0.830
23038SOL     OW71120   9.224   1.896   3.828
23038SOL    HW171121   9.289   1.958  36.979
23038SOL    HW271122   9.140  12.973  48.009
23039SOL     OW71123   9.721   3.920   6.034
23039SOL    HW171124   9.640   3.901  17.026
23039SOL    HW271125   9.716   4.014  17.092
23040SOL     OW71126   5.225   2.550   9.015
23040SOL    HW171127   5.320  35.672   9.008
23040SOL    HW271128  -5.838  13.665  31.148
23041SOL     OW71129   1.373  10.322   3.718
23041SOL    HW171130  -9.746  10.289   3.759
23041SOL    HW271131  -9.605  10.249   3.722
23042SOL     OW71132   9.609   5.883  10.058
23042SOL    HW171133  20.642   5.976  10.039
23042SOL    HW271134   9.553  -5.199   9.992
23043SOL     OW71135   1.260   0.933   3.878
23043SOL    HW171136  -9.849  56.085   3.831
23043SOL    HW271137   1.324  23.035   3.812
23044SOL     OW71138  -1.073   5.641   9.380
23044SOL    HW171139  43.074   5.634  20.325
23044SOL    HW271140 -23.076   5.586   9.400
23045SOL     OW71141   2.892   6.648   6.348
23045SOL    HW171142   2.800   6.630   6.368
23045SOL    HW271143   2.906 -26.381  17.417
23046SOL     OW71144   2.011   4.545   8.964
23046SOL    HW171145   2.038   4.469   8.913
23046SOL    HW271146   2.008   4.514   9.054
23047SOL     OW71147   8.601   3.155   0.179
23047SOL    HW171148  -2.454   3.068  22.294
23047SOL    HW271149   8.544   3.213   0.230
23048SOL     OW71150   9.718   8.217  -0.324
23048SOL    HW171151   9.650   8.284  10.709
23048SOL    HW271152   9.791  19.302  21.797
23049SOL     OW71153   8.022   3.371   8.914
23049SOL    HW171154   8.091   3.320  30.951
23049SOL    HW271155   8.050   3.381   9.004
23050SOL     OW71156   6.173   7.593   1.170
23050SOL    HW171157   6.088   7.566   1.203
23050SOL    HW271158   6.232   7.583   1.245
23051SOL     OW71159   7.031   9.092   0.029
23051SOL    HW171160   6.947   9.049   0.047
23051SOL    HW271161   7.028  -1.868   0.080
23052SOL     OW71162   8.990   3.556  10.217
23052SOL    HW171163   8.927   3.611  10.263
23052SOL    HW271164   8.941   3.476  10.196
23053SOL     OW71165   9.858   1.125   0.728
23053SOL    HW171166  -1.221   1.065  11.831
23053SOL    HW271167  31.933   1.211   0.770
23054SOL     OW71168   5.125  -0.162   6.589
23054SOL    HW171169   5.144  10.906   6.678
23054SOL    HW271170   5.205  -0.143   6.540
23055SOL     OW71171   8.076   3.845   6.121
23055SOL    HW171172   8.072   3.793   6.041
23055SOL    HW271173   8.122   3.789  17.223
23056SOL     OW71174   5.169   2.215   6.529
23056SOL    HW171175  16.166  13.226   6.448
23056SOL    HW271176   5.257   2.179  17.564
23057SOL     OW71177   1.833   1.189   5.989
23057SOL    HW171178   1.924  23.278   6.018
23057SOL    HW271179   1.781  12.239   6.069
23058SOL     OW71180   9.993   7.538   3.929
23058SOL    HW171181   9.915   7.487  14.947
23058SOL    HW271182  10.063   7.498   3.876
23059SOL     OW71183   2.223   0.787   5.306
23059SOL    HW171184   2.189   0.732   5.235
23059SOL    HW271185   2.145   0.817  -5.687
23060SOL     OW71186   9.125   2.537   7.039
23060SOL    HW171187   9.063 -19.489   6.989
23060SOL    HW271188  31.164   2.451  -3.997
23061SOL     OW71189   5.875   3.323   2.992
23061SOL    HW171190   5.869   3.378   3.070
23061SOL    HW271191 -16.223  25.313  14.063
23062SOL     OW71192   1.085   0.654   1.925
23062SOL    HW171193   1.101   0.696   2.010
23062SOL    HW271194   1.172   0.637   1.890
23063SOL     OW71195   8.353   4.367   3.218
23063SOL    HW171196   8.423  15.453   3.172
23063SOL    HW271197  19.438   4.320   3.289
23064SOL     OW71198   6.712   7.359  -0.523
23064SOL    HW171199  17.733   7.446  10.481
23064SOL    HW271200   6.632   7.335  43.682
23065SOL     OW71201   3.252   5.488   3.138
23065SOL    HW171202   3.222  27.592   3.225
23065SOL    HW271203   3.302   5.563   3.107
23066SOL     OW71204  10.250  11.381   8.833
23066SOL    HW171205  10.327   0.284   8.829
23066SOL    HW271206 -22.836  11.462   8.872
23067SOL     OW71207  11.260   3.199   5.350
23067SOL    HW171208   0.157   3.259   5.389
23067SOL    HW271209  11.262 -18.955   5.411
23068SOL     OW71210   9.607   7.265   7.497
23068SOL    HW171211   9.679   7.278   7.559
23068SOL    HW271212   9.651   7.245   7.414
23069SOL     OW71213   8.651  10.914   9.665
23069SOL    HW171214  -2.315  10.858  20.729
23069SOL    HW271215   8.599  10.859  20.646
23070SOL     OW71216  10.975   5.737   9.283
23070SOL    HW171217  10.890 -16.382  31.384
23070SOL    HW271218  10.977  -5.302   9.188
23071SOL     OW71219   5.723   3.426   9.687
23071SOL    HW171220   5.656   3.465   9.743
23071SOL    HW271221   5.716  -7.564   9.605
23072SOL     OW71222   9.787   8.077  10.441
23072SOL    HW171223   9.792   8.112  21.391
23072SOL    HW271224   9.770   8.154  -0.544
23073SOL     OW71225   2.999   8.102   4.683
23073SOL    HW171226   2.988   8.195  -6.377
23073SOL    HW271227   2.911   8.066   4.683
23074SOL     OW71228   9.512  10.504   9.643
23074SOL    HW171229   9.575  -0.584   9.591
23074SOL    HW271230  -1.560  10.573   9.585
23075SOL     OW71231   7.284   0.283   2.593
23075SOL    HW171232  18.339  11.401 -30.579
23075SOL    HW271233   7.278   0.316  -8.357
23076SOL     OW71234  10.021  10.591   6.532
23076SOL    HW171235   9.967  10.668   6.512
23076SOL    HW271236   9.997  10.568   6.622
23077SOL     OW71237   7.297  11.072   2.749
23077SOL    HW171238   7.323 -11.078  13.729
23077SOL    HW271239  -3.741  11.150   2.694
23078SOL     OW71240   7.023   0.273  10.017
23078SOL    HW171241   6.957   0.325  21.104
23078SOL    HW271242   6.972   0.220   9.955
23079SOL     OW71243   2.714  10.217   2.168
23079SOL    HW171244  -8.405  10.184   2.210
23079SOL    HW271245   2.706  -0.727   2.174
23080SOL     OW71246   4.525   1.732   5.739
23080SOL    HW171247  -6.609   1.745   5.727
23080SOL    HW271248  -6.507   1.640  16.807
23081SOL     OW71249   4.469   4.977   9.588
23081SOL    HW171250  -6.510   5.018  20.565
23081SOL    HW271251  -6.608   5.050   9.637
23082SOL     OW71252   4.037   9.517   3.230
23082SOL    HW171253   4.074   9.455   3.293
23082SOL    HW271254   3.943   9.499   3.232
23083SOL     OW71255   1.784  10.629   8.971
23083SOL    HW171256   1.800  10.723  20.004
23083SOL    HW271257   1.844  -0.450   8.907
23084SOL     OW71258  10.717  10.051   7.771
23084SOL    HW171259 -44.495  10.061   7.865
23084SOL    HW271260  10.682  21.004   7.750
23085SOL     OW71261   8.016   2.110   1.094
23085SOL    HW171262   8.022 -19.894   1.034
23085SOL    HW271263   8.088  -8.987  12.108
23086SOL     OW71264   2.320   4.844   0.355
23086SOL    HW171265   2.415   4.844   0.367
23086SOL    HW271266   2.289   4.915   0.412
23087SOL     OW71267   8.620   9.958   7.911
23087SOL    HW171268  19.714  10.028   7.946
23087SOL    HW271269   8.553  20.983   7.978
23088SOL     OW71270   3.017   6.694   4.722
23088SOL    HW171271   3.100   6.655   4.693
23088SOL    HW271272   3.018  17.721   4.817
23089SOL     OW71273   5.050  10.564   6.454
23089SOL    HW171274   4.960  10.557  -4.619
23089SOL    HW271275   5.054  10.650   6.496
23090SOL     OW71276   7.171   8.863   7.974
23090SOL    HW171277   7.183  19.846 -14.029
23090SOL    HW271278   7.259   8.890 -25.170
23091SOL     OW71279   6.592   0.887   7.006
23091SOL    HW171280   6.682   0.854   7.015
23091SOL    HW271281   6.560   0.847   6.925
23092SOL     OW71282   6.172   0.486   1.170
23092SOL    HW171283  -4.818   0.568  34.293
23092SOL    HW271284   6.094   0.508   1.118
23093SOL     OW71285   5.219   9.290  10.292
23093SOL    HW171286   5.226   9.199  10.263
23093SOL    HW271287   5.150   9.327  10.236
23094SOL     OW71288   7.676   0.408   7.372
23094SOL    HW171289  18.714   0.343   7.302
23094SOL    HW271290   7.761   0.451   7.362
23095SOL     OW71291   6.021   1.531   4.213
23095SOL    HW171292   5.945   1.543  26.349
23095SOL    HW271293   6.062   1.450   4.245
23096SOL     OW71294   9.923   5.023   3.576
23096SOL    HW171295   9.894  16.146   3.539
23096SOL    HW271296  20.956   4.961  -7.536
23097SOL     OW71297   6.060   2.468   3.775
23097SOL    HW171298   6.007  13.547   3.705
23097SOL    HW271299   6.072   2.377   3.748
23098SOL     OW71300   8.895   0.711   5.989
23098SOL    HW171301   8.914   0.648   5.919
23098SOL    HW271302   8.956   0.688   6.059
23099SOL     OW71303   2.821  10.189  10.521
23099SOL    HW171304 -19.271  10.197  10.615
23099SOL    HW271305 -19.239  10.096  10.507
23100SOL     OW71306  10.652   9.132   6.164
23100SOL    HW171307  10.559   9.125   6.142
23100SOL    HW271308  -0.363   9.044   6.192
23101SOL     OW71309   4.391   5.287   4.577
23101SOL    HW171310  15.361 -16.731   4.554
23101SOL    HW271311   4.472   5.337  -6.473
23102SOL     OW71312   1.226   5.133   9.418
23102SOL    HW171313  12.348  27.225   9.372
23102SOL    HW271314   1.163   5.113   9.348
23103SOL     OW71315   6.827   0.928   7.167
23103SOL    HW171316   6.803   1.020   7.173
23103SOL    HW271317   6.905   0.927   7.111
23104SOL     OW71318   4.793   4.038  10.244
23104SOL    HW171319   4.827  -6.915 -11.808
23104SOL    HW271320   4.727   4.017  10.309
23105SOL     OW71321   4.586   8.882   9.238
23105SOL    HW171322  -6.363   8.885   9.207
23105SOL    HW271323   4.591   8.900 -34.827
23106SOL     OW71324   6.178   3.464   8.052
23106SOL    HW171325   6.232  14.533   7.979
23106SOL    HW271326   6.090   3.495   8.031
23107SOL     OW71327   0.159  -0.445   1.467
23107SOL    HW171328  33.306  10.516   1.421
23107SOL    HW271329  11.244  -0.374   1.422
23108SOL     OW71330   2.773   3.378   5.415
23108SOL    HW171331   2.733   3.436  -5.561
23108SOL    HW271332   2.703   3.361   5.351
23109SOL     OW71333   0.644   4.661   4.902
23109SOL    HW171334   0.634   4.650   4.808
23109SOL    HW271335   0.586 -17.345 -17.155
23110SOL     OW71336   1.307   8.219   7.243
23110SOL    HW171337  34.346   8.255   7.282
23110SOL    HW271338   1.306   8.250   7.152
23111SOL     OW71339   8.059  10.100  10.710
23111SOL    HW171340   8.081  10.188  10.679
23111SOL    HW271341  30.204  10.043  10.671
23112SOL     OW71342   0.369   2.130   2.814
23112SOL    HW171343   0.355  13.238   2.879
23112SOL    HW271344   0.443   2.162   2.762
23113SOL     OW71345   6.873   1.732   5.152
23113SOL    HW171346   6.931  23.877   5.189
23113SOL    HW271347 -15.222   1.671   5.224
23114SOL     OW71348   2.701   2.118   7.493
23114SOL    HW171349   2.766   2.055   7.460
23114SOL    HW271350   2.703   2.190  18.470
23115SOL     OW71351   2.341   1.439  10.035
23115SOL    HW171352   2.254  12.476 -12.005
23115SOL    HW271353   2.382   1.357  10.063
23116SOL     OW71354   7.131   2.587   8.042
23116SOL    HW171355   7.073   2.609   8.115
23116SOL    HW271356   7.095  -8.534   8.006
23117SOL     OW71357   0.380   2.154   7.902
23117SOL    HW171358   0.307   2.099  18.972
23117SOL    HW271359   0.406  13.242   7.980
23118SOL     OW71360   8.211  10.277  12.112
23118SOL    HW171361  19.276 -22.916 -10.022
23118SOL    HW271362  -2.910 -22.869  12.153
23119SOL     OW71363   3.727   1.972  10.929
23119SOL    HW171364   3.785   1.975  10.853
23119SOL    HW271365  14.737   2.063  10.940
23120SOL     OW71366   4.794  10.058   6.142
23120SOL    HW171367  15.847  -1.076   6.136
23120SOL    HW271368   4.762  10.084  -4.984
23121SOL     OW71369   4.709  11.127   9.533
23121SOL    HW171370  -6.322   0.067   9.440
23121SOL    HW271371   4.632   0.037   9.562
23122SOL     OW71372   3.407   0.359   5.985
23122SOL    HW171373   3.419   0.453   6.000
23122SOL    HW271374   3.439   0.345 -16.184
23123SOL     OW71375   6.373   8.132  10.265
23123SOL    HW171376   6.440   8.198  10.283
23123SOL    HW271377   6.388   8.064  10.331
23124SOL     OW71378   2.415  -0.590   2.385
23124SOL    HW171379 -19.728  -0.550   2.326
23124SOL    HW271380  13.425  10.473   2.473
23125SOL     OW71381   6.543   1.662   3.211
23125SOL    HW171382 -15.510   1.683   3.122
23125SOL    HW271383   6.625   1.641   3.256
23126SOL     OW71384   9.678   7.874   6.313
23126SOL    HW171385   9.678  -3.163   6.409
23126SOL    HW271386 -23.508   7.937   6.287
23127SOL     OW71387   0.860   3.558   1.020
23127SOL    HW171388   0.867   3.576 -10.113
23127SOL    HW271389   0.787   3.612   1.050
23128SOL     OW71390   7.667   6.528   1.115
23128SOL    HW171391 -36.560  28.634   1.176
23128SOL    HW271392   7.745   6.518   1.170
23129SOL     OW71393   7.177   6.164   2.647
23129SOL    HW171394  18.234  -4.895  13.779
23129SOL    HW271395   7.095   6.120  13.668
23130SOL     OW71396   6.091   2.342   1.662
23130SOL    HW171397   6.109   2.250   1.642
23130SOL    HW271398   6.089   2.385   1.576
23131SOL     OW71399   2.479  10.161   5.450
23131SOL    HW171400   2.549  10.225   5.462
23131SOL    HW271401 -19.585  10.095   5.518
23132SOL     OW71402   9.930   4.681   3.572
23132SOL    HW171403   9.929   4.601   3.521
23132SOL    HW271404  10.020  15.728   3.604
23133SOL     OW71405   8.176   7.572   3.941
23133SOL    HW171406  19.273  18.590   3.868
23133SOL    HW271407   8.187   7.499   4.002
23134SOL     OW71408   3.947   1.485   0.937
23134SOL    HW171409   3.973   1.408   0.988
23134SOL    HW271410  -7.130  12.488 -10.183
23135SOL     OW71411   4.777   6.804   5.028
23135SOL    HW171412   4.770   6.790  38.241
23135SOL    HW271413   4.798  17.936   5.019
23136SOL     OW71414   8.494   8.149   8.077
23136SOL    HW171415   8.557   8.165 -24.971
23136SOL    HW271416   8.511   8.059   8.050
23137SOL     OW71417   5.205   2.099   8.836
23137SOL    HW171418   5.230   2.042   8.909
23137SOL    HW271419   5.246   2.059   8.760
23138SOL     OW71420   9.913   3.177   1.999
23138SOL    HW171421   9.960   3.097   2.023
23138SOL    HW271422   9.932  -7.802   2.071
23139SOL     OW71423   4.770   3.798   3.216
23139SOL    HW171424   4.729  -7.300   3.153
23139SOL    HW271425   4.855 -29.299   3.178
23140SOL     OW71426  -0.195   0.343   1.922
23140SOL    HW171427  10.870 -10.626 -20.097
23140SOL    HW271428  -0.164  11.412   1.836
23141SOL     OW71429   4.525   2.562   1.320
23141SOL    HW171430  15.558   2.628  12.291
23141SOL    HW271431   4.465   2.493  23.373
23142SOL     OW71432   3.905   1.396   1.954
23142SOL    HW171433   3.859 -20.611   1.911
23142SOL    HW271434   3.947   1.436   2.030
23143SOL     OW71435   5.596   8.704   7.831
23143SOL    HW171436   5.577   8.744   7.916
23143SOL    HW271437   5.689   8.719   7.818
23144SOL     OW71438   8.497   4.101   0.378
23144SOL    HW171439 -24.620   4.128   0.287
23144SOL    HW271440   8.456   4.015   0.377
23145SOL     OW71441   1.979   2.883   2.105
23145SOL    HW171442 -20.020  13.940   2.056
23145SOL    HW271443   1.913  25.018   2.064
23146SOL     OW71444   1.854  -0.196   7.895
23146SOL    HW171445   1.947  -0.219 -36.267
23146SOL    HW271446   1.848  21.966   7.848
23147SOL     OW71447  11.060   7.032  -0.118
23147SOL    HW171448  -0.026  -3.949  22.020
23147SOL    HW271449  11.151   7.037  44.069
23148SOL     OW71450   3.026  12.473   5.182
23148SOL    HW171451   2.951  12.417   5.201
23148SOL    HW271452   3.012 -20.567   5.235
23149SOL     OW71453   5.550   8.395   5.516
23149SOL    HW171454   5.584  19.483   5.592
23149SOL    HW271455   5.463   8.366   5.543
23150SOL     OW71456   3.528   3.905   3.383
23150SOL    HW171457   3.550   3.950  36.420
23150SOL    HW271458   3.547   3.813  25.444
23151SOL     OW71459   8.478   4.392   4.823
23151SOL    HW171460  41.552   4.453  -6.276
23151SOL    HW271461   8.434   4.404   4.907
23152SOL     OW71462   4.395   8.125   7.734
23152SOL    HW171463  15.513   8.177  40.871
23152SOL    HW271464  15.390   8.173   7.665
23153SOL     OW71465   3.388   0.170   3.401
23153SOL    HW171466   3.478   0.202  -7.626
23153SOL    HW271467   3.391   0.079  -7.610
23154SOL     OW71468   7.544   2.121   9.695
23154SOL    HW171469  29.625   2.157  20.823
23154SOL    HW271470  18.524   2.046   9.701
23155SOL     OW71471   7.048   7.827   6.331
23155SOL    HW171472  18.127   7.788   6.409
23155SOL    HW271473   7.018   7.752   6.279
23156SOL     OW71474   1.907   3.404   1.781
23156SOL    HW171475   1.845   3.464   1.740
23156SOL    HW271476   1.991   3.425 -20.340
23157SOL     OW71477   7.187   6.052  10.439
23157SOL    HW171478   7.127   5.986  -0.634
23157SOL    HW271479  -3.767  -5.031  10.441
23158SOL     OW71480   2.776   4.896   7.930
23158SOL    HW171481  13.770   4.858   8.004
23158SOL    HW271482  -8.171  15.928   7.952
23159SOL     OW71483   2.400   4.499   0.241
23159SOL    HW171484   2.379 -28.610  22.227
23159SOL    HW271485   2.438   4.584   0.266
23160SOL     OW71486   0.558   7.516  10.364
23160SOL    HW171487   0.496   7.449 -11.686
23160SOL    HW271488   0.532   7.595  21.451
23161SOL     OW71489   9.347   3.215   6.603
23161SOL    HW171490   9.385   3.147   6.658
23161SOL    HW271491   9.259   3.228   6.639
23162SOL     OW71492   3.803   1.570   4.911
23162SOL    HW171493   3.868  12.678   4.925
23162SOL    HW271494   3.837   1.519   4.838
23163SOL     OW71495   5.123   2.532   4.249
23163SOL    HW171496   5.154  13.486  -6.762
23163SOL    HW271497   5.178  13.592   4.172
23164SOL     OW71498  10.405   1.231   3.752
23164SOL    HW171499  10.445   1.282   3.682
23164SOL    HW271500  10.336   1.287   3.787
23165SOL     OW71501  -0.307   8.853   7.221
23165SOL    HW171502  -0.359   8.932   7.238
23165SOL    HW271503  10.689   8.784   7.269
23166SOL     OW71504   5.800   2.621   1.333
23166SOL    HW171505   5.862 -41.466   1.317
23166SOL    HW271506   5.788   2.621  -9.611
23167SOL     OW71507  10.478   1.426   1.064
23167SOL    HW171508  10.487   1.513  -9.936
23167SOL    HW271509  10.567   1.393   1.057
23168SOL     OW71510   6.647   3.147   0.362
23168SOL    HW171511  28.797  25.270   0.410
23168SOL    HW271512  -4.362   3.058   0.348
23169SOL     OW71513   4.266   9.012   2.793
23169SOL    HW171514   4.237  -1.949  24.918
23169SOL    HW271515 -28.796   8.968   2.856
23170SOL     OW71516   1.194   5.110   5.855
23170SOL    HW171517   1.259  16.126 -27.198
23170SOL    HW271518   1.191  -5.834  -5.183
23171SOL     OW71519   9.125   8.370   8.751
23171SOL    HW171520   9.153   8.409   8.834
23171SOL    HW271521   9.100  19.484   8.697
23172SOL     OW71522  12.119  -1.114   2.476
23172SOL    HW171523  12.075   9.866   2.415
23172SOL    HW271524  -9.889   9.873   2.514
23173SOL     OW71525   1.487   4.927   6.274
23173SOL    HW171526  34.605  -6.208   6.265
23173SOL    HW271527  12.580   4.943   6.351
23174SOL     OW71528  -0.397   4.565   3.811
23174SOL    HW171529  -0.380   4.553   3.717
23174SOL    HW271530  10.570  15.667  -7.226
23175SOL     OW71531  10.350   2.092   2.483
23175SOL    HW171532 -22.723   2.125   2.560
23175SOL    HW271533  10.397   2.011   2.461
23176SOL     OW71534   1.315   6.802   6.497
23176SOL    HW171535   1.247  28.867   6.563
23176SOL    HW271536   1.294   6.887  -4.581
23177SOL     OW71537   0.640   5.314   9.384
23177SOL    HW171538  22.629   5.291   9.360
23177SOL    HW271539   0.663   5.384  31.402
23178SOL     OW71540   4.074   0.028   7.696
23178SOL    HW171541   4.040  22.194   7.676
23178SOL    HW271542   4.021  -0.003   7.769
23179SOL     OW71543   4.867  13.417   9.115
23179SOL    HW171544   4.858   2.314   9.044
23179SOL    HW271545   4.776 -19.681   9.139
23180SOL     OW71546   2.504   9.533   3.198
23180SOL    HW171547   2.478   9.517   3.289
23180SOL    HW271548  -8.523   9.445   3.162
23181SOL     OW71549   5.952   8.816   5.590
23181SOL    HW171550  27.941   8.792   5.571
23181SOL    HW271551  16.984   8.892 -38.509
23182SOL     OW71552   5.395   4.743   3.129
23182SOL    HW171553   5.314   4.792   3.145
23182SOL    HW271554  16.406  15.706   3.079
23183SOL     OW71555   8.432   8.460   7.633
23183SOL    HW171556 -24.665  -2.512  18.737
23183SOL    HW271557 -24.631  19.520  -3.482
23184SOL     OW71558   7.086   3.758   6.792
23184SOL    HW171559  29.172   3.663  17.826
23184SOL    HW271560   7.137  14.830   6.717
23185SOL     OW71561   6.274   0.798   5.064
23185SOL    HW171562  -4.673  11.861   5.065
23185SOL    HW271563  17.268  11.919   5.088
23186SOL     OW71564   9.089   2.860   2.761
23186SOL    HW171565   9.179  -8.151  24.821
23186SOL    HW271566  -2.000  13.981  24.850
23187SOL     OW71567   2.173   9.783   8.668
23187SOL    HW171568  -8.777   9.774   8.635
23187SOL    HW271569  13.223 -23.326   8.762
23188SOL     OW71570   1.565   4.554   7.118
23188SOL    HW171571   1.544   4.606   7.041
23188SOL    HW271572   1.621   4.611   7.171
23189SOL     OW71573   4.816   4.780  11.877
23189SOL    HW171574 -17.350   4.742  11.893
23189SOL    HW271575   4.798   4.869 -10.231
23190SOL     OW71576   9.900   5.232   7.363
23190SOL    HW171577   9.835   5.301   7.371
23190SOL    HW271578   9.977   5.275   7.326
23191SOL     OW71579   1.533   1.555   3.527
23191SOL    HW171580   1.446   1.550   3.487
23191SOL    HW271581   1.588   1.595   3.460
23192SOL     OW71582   4.078   7.027   3.120
23192SOL    HW171583   4.087   7.118  14.130
23192SOL    HW271584   4.130   7.023   3.200
23193SOL     OW71585   7.545   7.754   6.979
23193SOL    HW171586   7.588   7.820  29.004
23193SOL    HW271587  18.645   7.680 -26.141
23194SOL     OW71588   5.636   9.248  12.018
23194SOL    HW171589 -16.373   9.212 -32.194
23194SOL    HW271590  -5.425   9.177 -21.040
23195SOL     OW71591   4.357  10.466   4.397
23195SOL    HW171592   4.408  10.535   4.440
23195SOL    HW271593   4.408  10.386   4.411
23196SOL     OW71594   4.837   9.143   4.550
23196SOL    HW171595   4.824 -12.892   4.634
23196SOL    HW271596  -6.264   9.186 -28.628
23197SOL     OW71597   6.236   2.717   2.532
23197SOL    HW171598   6.293   2.766  -8.448
23197SOL    HW271599  28.266   2.785 -19.595
23198SOL     OW71600   9.234   0.095   3.299
23198SOL    HW171601   9.263   0.178   3.337
23198SOL    HW271602   9.294   0.079  -7.813
23199SOL     OW71603   1.132   7.250   4.061
23199SOL    HW171604   1.190   7.227   3.989
23199SOL    HW271605  23.183   7.339   4.042
23200SOL     OW71606   9.761   7.092   3.783
23200SOL    HW171607   9.818   7.157   3.742
23200SOL    HW271608   9.716   7.050   3.710
23201SOL     OW71609   1.354   6.289   6.052
23201SOL    HW171610   1.314  17.416  17.101
23201SOL    HW271611  23.482   6.294   5.971
23202SOL     OW71612   2.548   9.244  10.457
23202SOL    HW171613  13.645   9.266  10.530
23202SOL    HW271614  13.602   9.151  10.443
23203SOL     OW71615   0.834  10.240   1.023
23203SOL    HW171616   0.860  10.312  12.119
23203SOL    HW271617   0.890  10.248  11.986
23204SOL     OW71618   9.627   6.980   9.665
23204SOL    HW171619   9.644   7.072   9.685
23204SOL    HW271620   9.712   6.945   9.637
23205SOL     OW71621   6.712   6.912   1.453
23205SOL    HW171622   6.740   6.881   1.367
23205SOL    HW271623  17.782 -26.274   1.514
23206SOL     OW71624   5.062   1.898   0.525
23206SOL    HW171625  16.099   1.848  11.483
23206SOL    HW271626   5.011   1.976  22.586
23207SOL     OW71627   7.378  -0.739   8.811
23207SOL    HW171628  18.375  21.424   8.825
23207SOL    HW271629   7.390  -0.775   8.900
23208SOL     OW71630  10.052   2.438   0.331
23208SOL    HW171631 -12.119   2.428   0.358
23208SOL    HW271632  10.090  -8.688   0.346
23209SOL     OW71633  10.081   2.845   6.699
23209SOL    HW171634  10.049  -8.131   6.763
23209SOL    HW271635  10.009   2.783   6.689
23210SOL     OW71636   0.743   4.814   7.152
23210SOL    HW171637   0.830   4.829   7.113
23210SOL    HW271638  11.749   4.737   7.106
23211SOL     OW71639   0.298   4.155   8.626
23211SOL    HW171640   0.220   4.182   8.675
23211SOL    HW271641   0.339   4.237   8.599
23212SOL     OW71642   5.247   6.726   8.026
23212SOL    HW171643  16.363  17.719   8.061
23212SOL    HW271644   5.260   6.724   7.931
23213SOL     OW71645   8.821   6.840   2.479
23213SOL    HW171646   8.871   6.895   2.540
23213SOL    HW271647   8.791   6.900   2.411
23214SOL     OW71648   4.379   7.505   0.634
23214SOL    HW171649  15.489   7.551   0.589
23214SOL    HW271650  37.505   7.414 -10.434
23215SOL     OW71651  10.545   7.405   8.576
23215SOL    HW171652  10.462   7.360   8.593
23215SOL    HW271653  10.586   7.412   8.662
23216SOL     OW71654   8.362   9.972  10.281
23216SOL    HW171655   8.360  21.072  10.208
23216SOL    HW271656   8.455  -1.088  10.292
23217SOL     OW71657   6.587   0.325   4.310
23217SOL    HW171658  -4.451  11.270  26.373
23217SOL    HW271659   6.543   0.334   4.395
23218SOL     OW71660   9.447   0.857   3.457
23218SOL    HW171661   9.519   0.834  14.438
23218SOL    HW271662   9.396   0.922   3.408
23219SOL     OW71663   5.798  10.114   5.809
23219SOL    HW171664  16.928  10.145   5.799
23219SOL    HW271665   5.804  21.059   5.802
23220SOL     OW71666   4.417   3.818   5.525
23220SOL    HW171667   4.428   3.748  16.629
23220SOL    HW271668   4.507  -7.198   5.500
23221SOL     OW71669  10.213   5.903   8.475
23221SOL    HW171670  10.140  27.935   8.436
23221SOL    HW271671  10.290   5.871   8.429
23222SOL     OW71672  10.045   8.836  10.689
23222SOL    HW171673  21.126  -2.287  10.711
23222SOL    HW271674  10.084   8.899  10.749
23223SOL     OW71675   2.598   3.345   5.223
23223SOL    HW171676   2.582   3.439  -5.829
23223SOL    HW271677  -8.495  -7.718 -27.819
23224SOL     OW71678   0.679   3.450   7.805
23224SOL    HW171679   0.589   3.471   7.832
23224SOL    HW271680  11.766   3.532   7.815
23225SOL     OW71681   6.654   7.450   2.414
23225SOL    HW171682   6.749   7.442   2.425
23225SOL    HW271683  28.717   7.420   2.325
23226SOL     OW71684   0.664   3.162   6.470
23226SOL    HW171685  22.829   3.120   6.482
23226SOL    HW271686  11.643   3.089  17.496
23227SOL     OW71687   9.177   7.047   3.761
23227SOL    HW171688  -1.914   7.107   3.706
23227SOL    HW271689   9.246   7.103   3.798
23228SOL     OW71690   6.816   2.590  10.699
23228SOL    HW171691 -26.300 -19.575  10.742
23228SOL    HW271692 -15.278   2.569  10.607
23229SOL     OW71693   6.563  11.278   3.617
23229SOL    HW171694   6.552   0.321   3.571
23229SOL    HW271695   6.540  11.297   3.707
23230SOL     OW71696   1.780   4.411   7.248
23230SOL    HW171697   1.759  15.538   7.281
23230SOL    HW271698  12.744   4.386   7.195
23231SOL     OW71699   9.903  10.262   5.673
23231SOL    HW171700   9.812  21.312  -5.396
23231SOL    HW271701  -1.144  10.233   5.764
23232SOL     OW71702   6.608   9.842  11.307
23232SOL    HW171703   6.605   9.842   0.363
23232SOL    HW271704   6.516  20.880  11.280
23233SOL     OW71705   7.119   6.272   6.395
23233SOL    HW171706   7.073  17.228  17.436
23233SOL    HW271707  29.144   6.327   6.338
23234SOL     OW71708   5.054   3.763   0.277
23234SOL    HW171709   5.138  -7.258   0.319
23234SOL    HW271710   5.040 -18.243   0.217
23235SOL     OW71711  10.368   2.635   1.215
23235SOL    HW171712  10.431   2.581   1.168
23235SOL    HW271713  10.405   2.645   1.303
23236SOL     OW71714   8.509  -0.287  12.395
23236SOL    HW171715   8.520  32.922   1.325
23236SOL    HW271716  19.638  -0.322 -20.721
23237SOL     OW71717   8.107   4.517  10.199
23237SOL    HW171718   8.143  26.683  10.181
23237SOL    HW271719   8.077  59.682  10.114
23238SOL     OW71720   5.718  10.945   9.140
23238SOL    HW171721   5.668  10.863   9.137
23238SOL    HW271722 -27.463  -0.027  31.192
23239SOL     OW71723   1.003   9.637   5.298
23239SOL    HW171724  23.025   9.709 -16.755
23239SOL    HW271725   1.090 -12.415   5.326
23240SOL     OW71726  10.306   7.851   5.231
23240SOL    HW171727  10.363   7.798   5.176
23240SOL    HW271728  -0.674  -3.134   5.283
23241SOL     OW71729   4.157   3.056   2.531
23241SOL    HW171730   4.136   3.088  13.483
23241SOL    HW271731   4.077  -8.025  -8.477
23242SOL     OW71732   3.980   3.232   3.455
23242SOL    HW171733   3.899   3.197  14.458
23242SOL    HW271734 -18.120   3.323   3.478
23243SOL     OW71735   1.527   7.943   9.994
23243SOL    HW171736   1.437   7.937  10.025
23243SOL    HW271737  -9.510   7.885  -1.122
23244SOL     OW71738   6.157   6.954   9.791
23244SOL    HW171739   6.190   7.005   9.865
23244SOL    HW271740   6.184   6.864   9.811
23245SOL     OW71741  10.847   8.090   3.963
23245SOL    HW171742  10.828  19.159  -7.166
23245SOL    HW271743  10.861   8.171   4.013
23246SOL     OW71744   5.122   2.746  11.393
23246SOL    HW171745  38.304   2.711   0.291
23246SOL    HW271746   5.169   2.816  11.438
23247SOL     OW71747   7.967  11.138   3.286
23247SOL    HW171748   7.963  11.152   3.381
23247SOL    HW271749   7.884 -10.982   3.264
23248SOL     OW71750   6.248   5.854  10.676
23248SOL    HW171751   6.271  16.822  -0.304
23248SOL    HW271752   6.188   5.909  10.727
23249SOL     OW71753  11.407   6.332   9.822
23249SOL    HW171754 -32.814   6.310   9.754
23249SOL    HW271755  11.418   6.251   9.872
23250SOL     OW71756   2.397   7.121   0.810
23250SOL    HW171757 -19.763  18.152   0.860
23250SOL    HW271758   2.407   7.216   0.796
23251SOL     OW71759   5.695   1.497   0.633
23251SOL    HW171760  27.813   1.428  22.766
23251SOL    HW271761  -5.286   1.504   0.557
23252SOL     OW71762   2.794   2.933   4.995
23252SOL    HW171763   2.881   2.911   4.959
23252SOL    HW271764   2.812   2.995  16.105
23253SOL     OW71765   4.248   3.092  11.864
23253SOL    HW171766   4.181   3.026 -21.239
23253SOL    HW271767   4.200 -40.984  22.896
23254SOL     OW71768   0.241   8.534   8.132
23254SOL    HW171769   0.264  41.738  -2.945
23254SOL    HW271770   0.326   8.496 -24.963
23255SOL     OW71771   7.235   5.334   7.953
23255SOL    HW171772   7.228  16.453   7.901
23255SOL    HW271773   7.328  27.390   7.951
23256SOL     OW71774  10.948  -0.351   2.950
23256SOL    HW171775  -0.009  21.774   2.964
23256SOL    HW271776  10.935  -0.402   3.030
23257SOL     OW71777   4.189   6.340   8.159
23257SOL    HW171778  26.254  28.502   8.114
23257SOL    HW271779  15.197   6.274   8.098
23258SOL     OW71780   8.002   8.634   2.392
23258SOL    HW171781   7.978   8.591   2.474
23258SOL    HW271782   8.049  19.607   2.342
23259SOL     OW71783   4.303   8.159   1.328
23259SOL    HW171784   4.388  -2.847   1.301
23259SOL    HW271785   4.256 -13.843   1.360
23260SOL     OW71786   7.189   9.076   6.068
23260SOL    HW171787   7.147   9.004   6.114
23260SOL    HW271788   7.283   9.065   6.087
23261SOL     OW71789   5.316   0.017   5.585
23261SOL    HW171790   5.258  11.048   5.661
23261SOL    HW271791   5.395  22.047   5.610
23262SOL     OW71792   6.676   7.143  10.358
23262SOL    HW171793 -15.426   7.155  10.266
23262SOL    HW271794   6.709   7.228  -0.653
23263SOL     OW71795   6.566   4.385   5.829
23263SOL    HW171796   6.645   4.362   5.879
23263SOL    HW271797   6.578   4.342   5.745
23264SOL     OW71798   0.079   7.304   4.158
23264SOL    HW171799   0.043  51.374   4.150
23264SOL    HW271800   0.021   7.358  26.183
23265SOL     OW71801   6.178   8.649   5.265
23265SOL    HW171802  -4.872   8.644   5.360
23265SOL    HW271803   6.268   8.621  16.289
23266SOL     OW71804   3.425   5.865   0.443
23266SOL    HW171805   3.462   5.918  22.592
23266SOL    HW271806   3.471  39.013   0.364
23267SOL     OW71807   0.187   0.533   1.472
23267SOL    HW171808   0.216 -21.602   1.400
23267SOL    HW271809   0.130  33.717  -9.609
23268SOL     OW71810   5.734   8.697   8.652
23268SOL    HW171811   5.756   8.760   8.720
23268SOL    HW271812   5.638   8.694  -2.389
23269SOL     OW71813   6.155   8.098   9.602
23269SOL    HW171814   6.148  41.311  20.633
23269SOL    HW271815 -15.864   8.072   9.532
23270SOL     OW71816   7.725   4.948   3.755
23270SOL    HW171817   7.705   4.854   3.749
23270SOL    HW271818  29.747   4.980  14.864
23271SOL     OW71819   2.948   5.333  11.540
23271SOL    HW171820  36.046  -5.627  11.492
23271SOL    HW271821  36.145 -16.724 -32.567
23272SOL     OW71822  10.743   2.322   3.468
23272SOL    HW171823 -11.404   2.258   3.490
23272SOL    HW271824  -0.278  -8.733  -7.664
23273SOL     OW71825  11.919   3.515   0.716
23273SOL    HW171826  11.841  -7.470   0.712
23273SOL    HW271827 -10.162  -7.576   0.635
23274SOL     OW71828   6.600   9.985   6.265
23274SOL    HW171829   6.641  10.052  -4.829
23274SOL    HW271830   6.612  -1.136   6.216
23275SOL     OW71831   2.608   8.403   2.919
23275SOL    HW171832   2.579   8.316   2.947
23275SOL    HW271833   2.675  30.465   2.853
23276SOL     OW71834   4.680   2.264   1.976
23276SOL    HW171835   4.636   2.229   2.053
23276SOL    HW271836  15.811   2.238   1.986
23277SOL     OW71837  10.771   3.044   7.538
23277SOL    HW171838  10.843  -8.057   7.552
23277SOL    HW271839  10.745  14.069   7.447
23278SOL     OW71840   7.508   2.683   3.583
23278SOL    HW171841   7.416 -19.370  25.660
23278SOL    HW271842   7.507   2.589   3.564
23279SOL     OW71843   2.559   2.158   0.304
23279SOL    HW171844   2.603  13.196   0.219
23279SOL    HW271845   2.493   2.088   0.299
23280SOL     OW71846   5.714   1.514   5.543
23280SOL    HW171847   5.715  -9.591   5.612
23280SOL    HW271848  16.740   1.597   5.588
23281SOL     OW71849   1.100   3.307   7.894
23281SOL    HW171850   1.190   3.325   7.921
23281SOL    HW271851   1.056   3.281  -3.065
23282SOL     OW71852   4.668  -0.805   8.330
23282SOL    HW171853   4.631  -0.835   8.413
23282SOL    HW271854   4.745  65.378  19.357
23283SOL     OW71855   4.903   8.238   6.738
23283SOL    HW171856  16.029   8.280   6.734
23283SOL    HW271857   4.849   8.290 -15.400
23284SOL     OW71858   2.314   6.434   9.609
23284SOL    HW171859  13.301   6.471   9.538
23284SOL    HW271860  13.322   6.345   9.619
23285SOL     OW71861   2.988  10.905   5.255
23285SOL    HW171862   3.028  10.830   5.210
23285SOL    HW271863  14.009  10.873   5.343
23286SOL     OW71864   3.322   3.054   8.733
23286SOL    HW171865  14.343   3.043  19.680
23286SOL    HW271866   3.301   3.146   8.751
23287SOL     OW71867   8.759   4.745   5.012
23287SOL    HW171868   8.666   4.723   5.008
23287SOL    HW271869   8.804  15.700   5.018
23288SOL     OW71870   4.287   4.048  10.098
23288SOL    HW171871  -6.839   4.007  10.094
23288SOL    HW271872   4.305   4.057  10.192
23289SOL     OW71873   7.963  11.912   6.656
23289SOL    HW171874   8.039 -10.122  17.734
23289SOL    HW271875   7.990 -10.258   6.651
23290SOL     OW71876   4.695   4.958   6.047
23290SOL    HW171877   4.657   5.017   5.983
23290SOL    HW271878   4.621   4.913   6.086
23291SOL     OW71879   8.119   2.259   4.087
23291SOL    HW171880   8.185  -8.751   4.150
23291SOL    HW271881   8.081   2.340   4.052
23292SOL     OW71882   1.279   6.133   6.690
23292SOL    HW171883   1.372  -4.882   6.698
23292SOL    HW271884   1.280   6.039   6.678
23293SOL     OW71885   3.714   0.671   6.963
23293SOL    HW171886  -7.268   0.629  -4.013
23293SOL    HW271887 -40.385   0.703   6.895
23294SOL     OW71888   2.313   3.523   7.393
23294SOL    HW171889  24.368   3.515   7.485
23294SOL    HW271890   2.357   3.608  29.466
23295SOL     OW71891   1.273   0.048   0.495
23295SOL    HW171892  -9.861   0.058  11.525
23295SOL    HW271893   1.302   0.012   0.411
23296SOL     OW71894   3.448   5.246   1.465
23296SOL    HW171895   3.436  -5.885  23.518
23296SOL    HW271896   3.543   5.258   1.467
23297SOL     OW71897   9.760   9.926   2.276
23297SOL    HW171898  -1.320   9.973  -8.837
23297SOL    HW271899   9.719  21.002  -8.686
23298SOL     OW71900   8.416   4.773   7.830
23298SOL    HW171901   8.504 -17.342   7.816
23298SOL    HW271902   8.357   4.700  40.929
23299SOL     OW71903   0.119   0.676   2.188
23299SOL    HW171904   0.209 -10.386   2.165
23299SOL    HW271905   0.066   0.605 -19.927
23300SOL     OW71906   1.364   1.444   8.926
23300SOL    HW171907  12.389  -9.527  -2.048
23300SOL    HW271908   1.275   1.420   8.898
23301SOL     OW71909   0.196   5.685   3.027
23301SOL    HW171910  11.184  16.693   2.952
23301SOL    HW271911  11.319  16.678  14.059
23302SOL     OW71912   7.528   0.938   5.833
23302SOL    HW171913  29.531  34.051  16.929
23302SOL    HW271914  18.532  11.998  16.786
23303SOL     OW71915   9.193   3.173   5.624
23303SOL    HW171916   9.278  14.201   5.581
23303SOL    HW271917  20.170  25.211   5.565
23304SOL     OW71918   7.428   9.158   4.714
23304SOL    HW171919   7.342   9.190   4.744
23304SOL    HW271920 -25.709   9.116 -17.449
23305SOL     OW71921   0.537   9.965   0.834
23305SOL    HW171922  11.668   9.991   0.824
23305SOL    HW271923   0.490  10.017   0.769
23306SOL     OW71924   5.079   8.540   6.809
23306SOL    HW171925  16.078   8.562  28.972
23306SOL    HW271926   5.125 -46.741  -4.214
23307SOL     OW71927  11.089   0.455   0.475
23307SOL    HW171928   0.004   0.489   0.398
23307SOL    HW271929 -10.900   0.442  22.526
23308SOL     OW71930   2.141   8.122   4.319
23308SOL    HW171931  24.288   8.186   4.298
23308SOL    HW271932   2.179   8.067  -6.653
23309SOL     OW71933   3.533   0.042   4.932
23309SOL    HW171934   3.443   0.011   4.926
23309SOL    HW271935   3.537   0.089   5.016
23310SOL     OW71936   2.778   2.085   4.204
23310SOL    HW171937   2.713   2.047  -6.777
23310SOL    HW271938   2.862   2.054   4.237
23311SOL     OW71939   8.362  -0.557   7.675
23311SOL    HW171940  -2.628  -0.637   7.656
23311SOL    HW271941  -2.627  10.552   7.632
23312SOL     OW71942  10.563   3.265   1.773
23312SOL    HW171943  10.658  14.294  -9.268
23312SOL    HW271944  -0.491   3.342   1.829
23313SOL     OW71945   1.150   6.039  11.480
23313SOL    HW171946  -9.818  -5.025  11.539
23313SOL    HW271947   1.129  39.248   0.465
23314SOL     OW71948   0.074   3.504   7.762
23314SOL    HW171949   0.030   3.535 -14.396
23314SOL    HW271950  22.088   3.513 -14.248
23315SOL     OW71951   9.871   6.412   1.081
23315SOL    HW171952   9.876   6.458   0.997
23315SOL    HW271953   9.828   6.329   1.060
23316SOL     OW71954   6.626   6.483   2.164
23316SOL    HW171955   6.567  28.587   2.093
23316SOL    HW271956   6.567  28.540   2.237
23317SOL     OW71957   6.285  10.685   4.791
23317SOL    HW171958   6.289 -11.307   4.752
23317SOL    HW271959   6.367  32.722   4.766
23318SOL     OW71960  10.161   2.511   4.812
23318SOL    HW171961  10.184  -8.621   4.820
23318SOL    HW271962  10.243   2.554  -6.250
23319SOL     OW71963   7.345   8.577   2.085
23319SOL    HW171964   7.275   8.517   2.110
23319SOL    HW271965   7.365   8.626  -8.875
23320SOL     OW71966   1.254   3.630   6.961
23320SOL    HW171967   1.209   3.613   7.044
23320SOL    HW271968  12.270  14.760  17.979
23321SOL     OW71969   5.008   2.133   1.195
23321SOL    HW171970 -39.183   2.218   1.166
23321SOL    HW271971  -6.085  13.108   1.149
23322SOL     OW71972   4.255  10.761   0.038
23322SOL    HW171973  15.211  10.784   0.078
23322SOL    HW271974   4.286  10.685  11.128
23323SOL     OW71975   1.117   4.219   0.769
23323SOL    HW171976   1.100   4.136   0.724
23323SOL    HW271977   1.208  26.317   0.749
23324SOL     OW71978   1.609   2.526   6.397
23324SOL    HW171979   1.570   2.548   6.312
23324SOL    HW271980 -20.488   2.601   6.453
23325SOL     OW71981   6.388   2.607   6.223
23325SOL    HW171982  28.537   2.597   6.158
23325SOL    HW271983  28.510   2.586   6.306
23326SOL     OW71984   0.027   4.288   2.278
23326SOL    HW171985   0.045   4.283   2.184
23326SOL    HW271986   0.032   4.382   2.298
23327SOL     OW71987   8.215   8.160   5.609
23327SOL    HW171988   8.225  -2.919   5.522
23327SOL    HW271989   8.305   8.174   5.639
23328SOL     OW71990   6.337  10.031   5.863
23328SOL    HW171991   6.301  10.015  16.990
23328SOL    HW271992  28.451  10.120   5.867
23329SOL     OW71993   4.883   5.346   5.424
23329SOL    HW171994  26.994   5.298   5.348
23329SOL    HW271995   4.897   5.438   5.403
23330SOL     OW71996   8.453   8.924   1.975
23330SOL    HW171997  -2.576   8.997   2.036
23330SOL    HW271998   8.495   8.850  24.098
23331SOL     OW71999   6.169  10.155   4.540
23331SOL    HW172000   6.192  10.247   4.552
23331SOL    HW272001   6.228  21.164  15.511
23332SOL     OW72002   8.440   2.195  11.866
23332SOL    HW172003   8.445   2.174 -10.306
23332SOL    HW272004   8.373   2.135  11.900
23333SOL     OW72005  11.477  11.022   9.622
23333SOL    HW172006   0.437  11.100   9.678
23333SOL    HW272007  11.567  10.989   9.629
23334SOL     OW72008   1.565   6.925   2.002
23334SOL    HW172009   1.510  17.976   2.079
23334SOL    HW272010   1.561  18.048 -20.122
23335SOL     OW72011   1.967   1.355   2.913
23335SOL    HW172012   2.049   1.369  -8.175
23335SOL    HW272013   1.996  -9.703   3.003
23336SOL     OW72014   1.346   2.115   2.664
23336SOL    HW172015   1.330   2.153   2.578
23336SOL    HW272016   1.352   2.191   2.723
23337SOL     OW72017   9.109   0.184   4.718
23337SOL    HW172018   9.134   0.112   4.776
23337SOL    HW272019   9.115   0.148   4.630
23338SOL     OW72020   0.009   5.879   4.257
23338SOL    HW172021   0.018  39.092   4.250
23338SOL    HW272022   0.078   5.844   4.201
23339SOL     OW72023   9.737   1.758   1.831
23339SOL    HW172024  20.865  -9.298  12.906
23339SOL    HW272025  20.746   1.671  -9.236
23340SOL     OW72026   6.433   6.008   5.272
23340SOL    HW172027   6.378   6.034  -5.695
23340SOL    HW272028   6.477  28.007   5.302
23341SOL     OW72029   7.882   6.709   8.786
23341SOL    HW172030   7.978   6.710   8.790
23341SOL    HW272031   7.859   6.795   8.751
23342SOL     OW72032   4.861   4.081   5.245
23342SOL    HW172033   4.875   4.175  16.274
23342SOL    HW272034  27.025   4.047  -5.765
23343SOL     OW72035  10.615  -3.416   8.983
23343SOL    HW172036  10.522  62.845   8.986
23343SOL    HW272037  10.645  18.675  20.113
23344SOL     OW72038   1.949   6.911   4.924
23344SOL    HW172039   1.965   6.824   4.960
23344SOL    HW272040  -9.156  17.989  -6.058
23345SOL     OW72041  -0.785   4.301   0.441
23345SOL    HW172042  -0.796  26.464   0.485
23345SOL    HW272043  21.327  15.282   0.509
23346SOL     OW72044   1.249   0.187  10.345
23346SOL    HW172045 -20.751   0.150  -0.657
23346SOL    HW272046   1.226  11.300  10.403
23347SOL     OW72047  10.277  10.562  11.353
23347SOL    HW172048  10.232  10.585  11.434
23347SOL    HW272049 -11.709  10.578   0.332
23348SOL     OW72050   3.725   6.496   3.858
23348SOL    HW172051   3.819   6.494   3.843
23348SOL    HW272052  14.743   6.590   3.864
23349SOL     OW72053   9.060  10.695   4.934
23349SOL    HW172054   9.147  10.696   4.975
23349SOL    HW272055   8.999  10.702  16.047
23350SOL     OW72056   9.289   9.145   8.491
23350SOL    HW172057   9.359   9.137   8.555
23350SOL    HW272058   9.209   9.125  41.658
23351SOL     OW72059   6.322   5.769  -0.004
23351SOL    HW172060   6.395   5.714  11.006
23351SOL    HW272061 -15.737  -5.183  -0.039
23352SOL     OW72062   7.062   5.948   2.893
23352SOL    HW172063   7.114   5.922  14.009
23352SOL    HW272064  18.161  16.979  35.938
23353SOL     OW72065  -1.185   3.136  10.747
23353SOL    HW172066  20.966   3.073 -11.336
23353SOL    HW272067  -1.152   3.213  10.699
23354SOL     OW72068   2.967   1.629  11.435
23354SOL    HW172069   3.018   1.549   0.382
23354SOL    HW272070   3.033   1.697  11.451
23355SOL     OW72071   7.472   6.709   7.928
23355SOL    HW172072   7.496  -4.245   7.891
23355SOL    HW272073   7.376   6.713   7.934
23356SOL     OW72074  10.938   9.598   4.642
23356SOL    HW172075  10.904   9.641  -6.319
23356SOL    HW272076  10.879  -1.515   4.628
23357SOL     OW72077   2.422   4.745   0.636
23357SOL    HW172078   2.486   4.803   0.596
23357SOL    HW272079   2.404   4.783   0.722
23358SOL     OW72080   7.371   2.034   7.267
23358SOL    HW172081  -3.685 -20.091  18.224
23358SOL    HW272082   7.417   1.969   7.321
23359SOL     OW72083   7.926   3.673   7.030
23359SOL    HW172084   7.965  25.816   6.970
23359SOL    HW272085   7.928   3.591   6.982
23360SOL     OW72086   4.554   9.136   9.942
23360SOL    HW172087   4.477   9.126   9.997
23360SOL    HW272088  -6.414  20.140 -23.124
23361SOL     OW72089  11.342   7.514   8.305
23361SOL    HW172090   0.231   7.578   8.310
23361SOL    HW272091   0.278   7.446   8.367
23362SOL     OW72092   4.975   7.868   8.450
23362SOL    HW172093  27.131  29.924   8.503
23362SOL    HW272094  16.028   7.960   8.429
23363SOL     OW72095   9.645   1.132   3.471
23363SOL    HW172096   9.567   1.077   3.466
23363SOL    HW272097  -1.331  -9.960   3.519
23364SOL     OW72098   0.312   1.814   8.326
23364SOL    HW172099  33.360   1.802   8.390
23364SOL    HW272100   0.386   1.845   8.377
23365SOL     OW72101  10.746   0.839   4.298
23365SOL    HW172102  10.787  11.853   4.216
23365SOL    HW272103  10.814 -10.152  -6.695
23366SOL     OW72104   2.235  11.602   0.678
23366SOL    HW172105   2.289   0.633   0.643
23366SOL    HW272106   2.160   0.558  11.658
23367SOL     OW72107   0.424   5.683   7.518
23367SOL    HW172108   0.433  16.746  -3.429
23367SOL    HW272109   0.343   5.632   7.515
23368SOL     OW72110   0.760   3.791   9.467
23368SOL    HW172111   0.750   3.749   9.553
23368SOL    HW272112   0.672   3.790   9.429
23369SOL     OW72113   3.473   6.871   8.514
23369SOL    HW172114   3.431   6.866  19.468
23369SOL    HW272115   3.401   6.873  19.616
23370SOL     OW72116  10.992   2.606  11.805
23370SOL    HW172117  10.943   2.613  11.886
23370SOL    HW272118  -0.053  13.733 -10.314
23371SOL     OW72119   4.830  10.230   1.314
23371SOL    HW172120  -6.257  21.352  12.358
23371SOL    HW272121   4.881  -0.812  -9.645
23372SOL     OW72122   2.882   6.394   4.535
23372SOL    HW172123   2.841   6.439 -17.470
23372SOL    HW272124   2.928   6.463 -17.592
23373SOL     OW72125   3.444  10.286   2.958
23373SOL    HW172126  -7.570  10.197  13.973
23373SOL    HW272127   3.478  10.341   2.887
23374SOL     OW72128   9.391   4.377   4.015
23374SOL    HW172129   9.382   4.330  14.972
23374SOL    HW272130   9.409   4.310   4.080
23375SOL     OW72131   1.080   0.107   6.696
23375SOL    HW172132   1.000   0.075   6.738
23375SOL    HW272133   1.137   0.131   6.768
23376SOL     OW72134   4.290   6.132   3.270
23376SOL    HW172135  26.306   6.084   3.217
23376SOL    HW272136  -6.666  17.160   3.226
23377SOL     OW72137   0.710   8.832   2.022
23377SOL    HW172138  11.778   8.819  13.152
23377SOL    HW272139  11.812   8.781  -9.070
23378SOL     OW72140   1.623   5.453  10.064
23378SOL    HW172141   1.593   5.514  10.132
23378SOL    HW272142  12.629 -16.589   9.983
23379SOL     OW72143  11.563   7.527   4.857
23379SOL    HW172144   0.470   7.449  15.880
23379SOL    HW272145  11.650   7.504   4.823
23380SOL     OW72146  -0.004   2.766   9.711
23380SOL    HW172147   0.031   2.832   9.652
23380SOL    HW272148   0.061   2.696 -23.409
23381SOL     OW72149   4.360   7.318   3.033
23381SOL    HW172150   4.267  29.376  -8.007
23381SOL    HW272151  15.434   7.280   2.952
23382SOL     OW72152   1.491   4.425   7.653
23382SOL    HW172153  -9.639   4.435   7.623
23382SOL    HW272154   1.489  15.389  29.790
23383SOL     OW72155   1.787   3.387   7.356
23383SOL    HW172156   1.882   3.393 -14.730
23383SOL    HW272157   1.754   3.444  29.367
23384SOL     OW72158   0.691  10.973   3.507
23384SOL    HW172159  11.730  11.030  25.509
23384SOL    HW272160  11.768  10.891  25.555
23385SOL     OW72161   6.500   4.443   2.361
23385SOL    HW172162   6.591   4.416   2.351
23385SOL    HW272163  -4.534   4.537  24.456
23386SOL     OW72164   6.399   9.448  -0.397
23386SOL    HW172165   6.359   9.517  21.735
23386SOL    HW272166   6.357   9.456  -0.483
23387SOL     OW72167   8.064   0.755  10.332
23387SOL    HW172168   7.998  11.858  10.359
23387SOL    HW272169  -2.898  44.936  21.423
23388SOL     OW72170   8.731   5.891   3.038
23388SOL    HW172171   8.753   5.827   2.971
23388SOL    HW272172  -2.254   5.967   3.017
23389SOL     OW72173   4.880   2.722   9.852
23389SOL    HW172174   4.864  24.810   9.758
23389SOL    HW272175 -17.209   2.811  -1.153
23390SOL     OW72176   9.984  10.124   6.306
23390SOL    HW172177   9.926  10.087   6.372
23390SOL    HW272178  21.020  10.218   6.321
23391SOL     OW72179   8.528   8.224   4.347
23391SOL    HW172180   8.528   8.317   4.370
23391SOL    HW272181   8.451  41.332   4.291
23392SOL     OW72182   1.926   6.463   7.585
23392SOL    HW172183   1.972   6.387   7.622
23392SOL    HW272184   1.957   6.467  18.534
23393SOL     OW72185   9.198   9.810   9.747
23393SOL    HW172186   9.134  -1.217  31.756
23393SOL    HW272187   9.278 -12.226  -1.324
23394SOL     OW72188   7.950   4.328   1.148
23394SOL    HW172189  18.976   4.257  -9.955
23394SOL    HW272190   7.936   4.287  12.273
23395SOL     OW72191   7.289   3.296   2.067
23395SOL    HW172192   7.336 -18.789   1.983
23395SOL    HW272193   7.218   3.232   2.059
23396SOL     OW72194   7.852   8.172   7.714
23396SOL    HW172195  -3.131   8.095   7.709
23396SOL    HW272196  -3.235   8.162   7.796
23397SOL     OW72197  11.487   0.797   8.349
23397SOL    HW172198 -10.539   0.814   8.271
23397SOL    HW272199  11.551   0.781  -2.621
23398SOL     OW72200   8.287   7.414   9.199
23398SOL    HW172201   8.258   7.455   9.117
23398SOL    HW272202   8.374  40.570   9.215
23399SOL     OW72203   8.404   5.324   6.496
23399SOL    HW172204 -13.759   5.365  -4.563
23399SOL    HW272205   8.446   5.314   6.410
23400SOL     OW72206   4.678   8.299   4.530
23400SOL    HW172207   4.710  -2.682   4.598
23400SOL    HW272208   4.605   8.345  15.530
23401SOL     OW72209   5.740   1.612   9.359
23401SOL    HW172210  16.724   1.543  -1.645
23401SOL    HW272211  27.843   1.580   9.272
23402SOL     OW72212   3.254   2.162   9.770
23402SOL    HW172213   3.173  -8.891   9.819
23402SOL    HW272214   3.323   2.135  20.870
23403SOL     OW72215  -0.073   0.983   2.913
23403SOL    HW172216  10.890   0.989   2.970
23403SOL    HW272217  -0.067  12.107  -8.170
23404SOL     OW72218   2.491   3.442   3.147
23404SOL    HW172219   2.507  14.450   3.058
23404SOL    HW272220   2.572   3.487  14.211
23405SOL     OW72221   7.882   1.405   7.359
23405SOL    HW172222   7.917   1.480 -14.768
23405SOL    HW272223   7.955  12.413   7.413
23406SOL     OW72224   9.395   2.989   1.543
23406SOL    HW172225  -1.620   2.963   1.454
23406SOL    HW272226   9.461   3.053  34.687
23407SOL     OW72227   1.168   1.695   0.486
23407SOL    HW172228   1.200   1.708   0.575
23407SOL    HW272229  -9.962   1.727   0.487
23408SOL     OW72230   2.351   7.366   9.457
23408SOL    HW172231   2.346   7.316  -1.500
23408SOL    HW272232   2.267   7.350   9.414
23409SOL     OW72233   3.837   6.056   5.019
23409SOL    HW172234   3.806  17.045   4.944
23409SOL    HW272235   3.928   6.028 -17.048
23410SOL     OW72236   7.039   8.425   7.723
23410SOL    HW172237  29.064   8.363   7.675
23410SOL    HW272238   6.978   8.492   7.753
23411SOL     OW72239   3.408   9.941   8.057
23411SOL    HW172240   3.498   9.933   8.090
23411SOL    HW272241   3.355   9.897   8.123
23412SOL     OW72242   1.943   9.527   2.696
23412SOL    HW172243   1.875   9.593   2.713
23412SOL    HW272244  -9.119   9.492   2.610
23413SOL     OW72245  10.474   7.777   2.068
23413SOL    HW172246 -11.519   7.748   2.038
23413SOL    HW272247  10.473  -3.283  -8.878
23414SOL     OW72248   7.768  10.933   8.859
23414SOL    HW172249   7.811  10.865   8.910
23414SOL    HW272250   7.708  10.885   8.801
23415SOL     OW72251   6.434   0.212   2.429
23415SOL    HW172252 -15.582   0.191   2.498
23415SOL    HW272253   6.372   0.271  24.550
23416SOL     OW72254   1.588   4.298   2.914
23416SOL    HW172255   1.607 -17.806  -8.035
23416SOL    HW272256   1.660   4.261   2.863
23417SOL     OW72257   1.973   6.306   0.880
23417SOL    HW172258   1.997   6.395   0.905
23417SOL    HW272259  13.068   6.287   0.804
23418SOL     OW72260   6.634   0.353   6.595
23418SOL    HW172261 -15.497   0.324   6.520
23418SOL    HW272262   6.651   0.272   6.644
23419SOL     OW72263  -0.515  10.955   8.476
23419SOL    HW172264  10.514 -11.193   8.410
23419SOL    HW272265  10.466 -11.149   8.547
23420SOL     OW72266   4.318   3.127   5.972
23420SOL    HW172267  26.399   3.096   5.881
23420SOL    HW272268   4.401   3.174  28.062
23421SOL     OW72269   4.946   6.846   7.560
23421SOL    HW172270   4.944   6.751   7.568
23421SOL    HW272271 -17.224   6.870   7.541
23422SOL     OW72272   1.902   4.058   1.113
23422SOL    HW172273   1.893  26.208   1.049
23422SOL    HW272274   1.843 -18.089   1.081
23423SOL     OW72275   4.441   7.071   2.452
23423SOL    HW172276   4.377   7.101   2.516
23423SOL    HW272277   4.519   7.052   2.505
23424SOL     OW72278  10.226   6.352  10.245
23424SOL    HW172279  10.132  17.376  -0.808
23424SOL    HW272280  10.235   6.358  10.340
23425SOL     OW72281   9.859   9.594   9.054
23425SOL    HW172282   9.953 -23.532   9.074
23425SOL    HW272283   9.848  -1.489   8.970
23426SOL     OW72284   7.849  10.089   8.389
23426SOL    HW172285  29.934  10.018   8.452
23426SOL    HW272286   7.790 -12.023   8.321
23427SOL     OW72287   2.158   4.077   2.993
23427SOL    HW172288   2.205   4.003   3.030
23427SOL    HW272289   2.222   4.148   2.992
23428SOL     OW72290   2.318   9.394   2.948
23428SOL    HW172291   2.232   9.377   2.908
23428SOL    HW272292   2.357   9.461  13.931
23429SOL     OW72293   9.355  13.523   2.915
23429SOL    HW172294   9.405 -19.615   2.994
23429SOL    HW272295 -12.699  -8.625   2.853
23430SOL     OW72296   5.269   9.419   7.629
23430SOL    HW172297   5.283   9.325   7.625
23430SOL    HW272298   5.346  31.536   7.586
23431SOL     OW72299   7.875   1.813   4.738
23431SOL    HW172300   7.943  12.849   4.670
23431SOL    HW272301   7.793  -9.227   4.689
23432SOL     OW72302   2.308   2.242   1.330
23432SOL    HW172303   2.403   2.240   1.345
23432SOL    HW272304   2.295   2.190 -20.828
23433SOL     OW72305   7.019   0.850   4.890
23433SOL    HW172306  -4.103 -10.148  -6.124
23433SOL    HW272307   7.059   0.823  -6.067
23434SOL     OW72308   8.010   4.619  -0.601
23434SOL    HW172309   7.990  15.580  -0.549
23434SOL    HW272310  19.080   4.585  10.354
23435SOL     OW72311   8.399   1.225   8.964
23435SOL    HW172312   8.389  12.321   8.887
23435SOL    HW272313  -2.549   1.234   8.989
23436SOL     OW72314   3.827   0.389   5.668
23436SOL    HW172315   3.791   0.338  -5.444
23436SOL    HW272316   3.916   0.410   5.640
23437SOL     OW72317   6.981   2.590   3.045
23437SOL    HW172318  -4.089   2.681  25.129
23437SOL    HW272319   7.051   2.593   2.980
23438SOL     OW72320   0.761   1.172   9.370
23438SOL    HW172321   0.781   1.238   9.436
23438SOL    HW272322  22.827   1.091   9.420
23439SOL     OW72323  -1.637   2.184   9.181
23439SOL    HW172324  31.481   2.223   9.094
23439SOL    HW272325  -1.548   2.151   9.192
23440SOL     OW72326   2.996  10.897   7.260
23440SOL    HW172327   3.037  10.812   7.244
23440SOL    HW272328   2.915  10.876   7.307
23441SOL     OW72329   3.118  11.112   5.162
23441SOL    HW172330   3.062  11.043  16.237
23441SOL    HW272331  14.189   0.119   5.240
23442SOL     OW72332   7.882   8.077   8.016
23442SOL    HW172333   7.964   8.091  -2.975
23442SOL    HW272334   7.886   7.985   7.990
23443SOL     OW72335   7.372   4.238  13.098
23443SOL    HW172336  -3.624   4.305   2.111
23443SOL    HW272337   7.418   4.240 -31.144
23444SOL     OW72338   5.851  10.356   6.885
23444SOL    HW172339   5.864 -11.724   6.790
23444SOL    HW272340  16.797  10.372   6.896
23445SOL     OW72341   9.493   0.726   4.245
23445SOL    HW172342  -1.464  11.782   4.290
23445SOL    HW272343  20.557 -10.333  15.194
23446SOL     OW72344  11.087   4.610   9.197
23446SOL    HW172345   0.005   4.691   9.169
23446SOL    HW272346  11.015   4.548   9.210
23447SOL     OW72347   3.023   6.535   1.809
23447SOL    HW172348   3.104   6.518   1.858
23447SOL    HW272349  14.089  -4.512   1.717
23448SOL     OW72350   8.174   7.047   8.803
23448SOL    HW172351   8.249  18.143   8.821
23448SOL    HW272352   8.195   6.965   8.847
23449SOL     OW72353   3.990   5.008   0.716
23449SOL    HW172354   3.894   5.015   0.716
23449SOL    HW272355   4.007  26.998   0.748
23450SOL     OW72356   4.810   0.693   4.585
23450SOL    HW172357   4.779   0.630   4.519
23450SOL    HW272358  15.815   0.777   4.556
23451SOL     OW72359   7.147   7.910  10.923
23451SOL    HW172360   7.053   7.902  10.907
23451SOL    HW272361  -3.853   7.913  10.836
23452SOL     OW72362   7.567   5.678   0.748
23452SOL    HW172363   7.658   5.669  33.838
23452SOL    HW272364   7.572   5.720 -10.206
23453SOL     OW72365   5.167   2.253   1.845
23453SOL    HW172366   5.246  35.415   1.875
23453SOL    HW272367   5.198   2.184   1.787
23454SOL     OW72368   3.177   4.239   4.987
23454SOL    HW172369  25.275   4.309  38.169
23454SOL    HW272370   3.137   4.170  27.119
23455SOL     OW72371   3.759   7.560   7.592
23455SOL    HW172372   3.797   7.507   7.522
23455SOL    HW272373   3.805   7.531   7.671
23456SOL     OW72374   6.065   4.505   7.209
23456SOL    HW172375  -4.925   4.437  29.335
23456SOL    HW272376   6.113  26.596   7.127
23457SOL     OW72377   1.677  10.470   7.913
23457SOL    HW172378   1.596 -11.650   7.882
23457SOL    HW272379  -9.390  10.556  41.064
23458SOL     OW72380   1.573   1.168   9.854
23458SOL    HW172381  12.608   1.080   9.817
23458SOL    HW272382  23.730   1.207   9.815
23459SOL     OW72383  10.489   8.830   3.843
23459SOL    HW172384  -0.537  30.842  -7.263
23459SOL    HW272385  10.558   8.814   3.907
23460SOL     OW72386   2.949   2.585   1.145
23460SOL    HW172387 -19.150   2.610  12.274
23460SOL    HW272388  25.098   2.521   1.153
23461SOL     OW72389   3.843   0.994   9.592
23461SOL    HW172390   3.759   0.974   9.551
23461SOL    HW272391   3.842   0.944   9.674
23462SOL     OW72392   5.170   9.854   0.547
23462SOL    HW172393   5.259   9.828   0.570
23462SOL    HW272394  -5.886   9.933  11.637
23463SOL     OW72395   7.184  -0.038   5.894
23463SOL    HW172396 -25.890  10.942   5.953
23463SOL    HW272397 -37.068  -0.057 -16.173
23464SOL     OW72398   4.659  11.399   5.660
23464SOL    HW172399   4.582   0.409   5.690
23464SOL    HW272400   4.678  11.339   5.732
23465SOL     OW72401   4.757  11.287   3.157
23465SOL    HW172402   4.666   0.261   3.130
23465SOL    HW272403  15.839  11.371  -7.898
23466SOL     OW72404   9.242  10.365   5.329
23466SOL    HW172405   9.298 -11.637   5.316
23466SOL    HW272406   9.240  10.353   5.424
23467SOL     OW72407  10.028   0.615  -0.068
23467SOL    HW172408  10.046   0.706  -0.090
23467SOL    HW272409   9.934   0.613  22.030
23468SOL     OW72410   7.882   7.698   0.623
23468SOL    HW172411   7.905   7.642   0.549
23468SOL    HW272412  19.002  -3.336  11.714
23469SOL     OW72413   4.123   6.181   0.467
23469SOL    HW172414  37.152   6.210   0.454
23469SOL    HW272415   4.117   6.109   0.529
23470SOL     OW72416   2.151   9.598   6.178
23470SOL    HW172417   2.202 -23.490   6.103
23470SOL    HW272418   2.211   9.540  17.265
23471SOL     OW72419   5.610  10.326   7.400
23471SOL    HW172420   5.644  10.240   7.424
23471SOL    HW272421   5.525  21.371   7.444
23472SOL     OW72422   2.464   1.715   6.534
23472SOL    HW172423   2.526  12.741   6.463
23472SOL    HW272424   2.447 -20.452   6.569
23473SOL     OW72425   9.892   8.533   3.754
23473SOL    HW172426  -1.199   8.614  -7.291
23473SOL    HW272427   9.946 -13.545   3.675
23474SOL     OW72428   0.423   9.071   1.489
23474SOL    HW172429   0.506   9.042   1.450
23474SOL    HW272430   0.358  20.096  -9.619
23475SOL     OW72431  10.329   4.785  -0.788
23475SOL    HW172432  -0.712   4.758  10.344
23475SOL    HW272433  10.381   4.865  10.251
23476SOL     OW72434   9.611   0.584  10.715
23476SOL    HW172435   9.586   0.677  10.713
23476SOL    HW272436   9.682   0.581  10.780
23477SOL     OW72437   3.429   6.603   7.628
23477SOL    HW172438  14.459  -4.353   7.674
23477SOL    HW272439   3.444   6.627   7.537
23478SOL     OW72440   2.860   8.628   3.265
23478SOL    HW172441   2.943   8.593   3.299
23478SOL    HW272442   2.793   8.569   3.300
23479SOL     OW72443   5.015   2.397   7.575
23479SOL    HW172444   5.047   2.452   7.647
23479SOL    HW272445  16.122   2.406   7.507
23480SOL     OW72446  11.123   7.851   6.952
23480SOL    HW172447   0.067   7.774  -4.034
23480SOL    HW272448  11.044   7.860   6.898
23481SOL     OW72449   3.596   1.253  10.882
23481SOL    HW172450   3.605   1.275  10.790
23481SOL    HW272451  14.618  23.416  10.925
23482SOL     OW72452   3.252   6.037   8.208
23482SOL    HW172453 -29.933   5.977  30.322
23482SOL    HW272454  -7.762  17.131   8.283
23483SOL     OW72455   2.488   5.547   8.723
23483SOL    HW172456   2.558  16.648   8.745
23483SOL    HW272457  13.570   5.483   8.666
23484SOL     OW72458   4.490   1.442   5.252
23484SOL    HW172459   4.476   1.537   5.256
23484SOL    HW272460   4.563   1.431   5.192
23485SOL     OW72461  10.266   6.853   5.828
23485SOL    HW172462  -0.685  28.916   5.862
23485SOL    HW272463  10.244  -4.266  49.939
23486SOL     OW72464   9.662   5.856  11.490
23486SOL    HW172465   9.737   5.799 -10.608
23486SOL    HW272466   9.678   5.934  11.438
23487SOL     OW72467   6.443   8.688   0.981
23487SOL    HW172468  28.590   8.625   1.008
23487SOL    HW272469   6.364  19.676   0.972
23488SOL     OW72470   5.422   7.928   3.241
23488SOL    HW172471   5.517   7.920   3.242
23488SOL    HW272472   5.391   7.862   3.303
23489SOL     OW72473   8.594   6.567   5.672
23489SOL    HW172474  19.691   6.490   5.666
23489SOL    HW272475   8.514   6.540  -5.412
23490SOL     OW72476   6.944   1.756   3.067
23490SOL    HW172477   7.040   1.759   3.060
23490SOL    HW272478   6.922   1.831  -7.918
23491SOL     OW72479   4.235   7.753   9.723
23491SOL    HW172480   4.172   7.723  -1.251
23491SOL    HW272481   4.239   7.848  20.775
23492SOL     OW72482   7.301   0.995  -0.521
23492SOL    HW172483 -36.917   1.021  -0.590
23492SOL    HW272484   7.373   0.951  32.552
23493SOL     OW72485  10.747   7.953   8.577
23493SOL    HW172486  10.707  29.989   8.502
23493SOL    HW272487  10.676   8.001 -13.460
23494SOL     OW72488   1.179   3.117   0.149
23494SOL    HW172489  12.298  14.126   0.192
23494SOL    HW272490  12.250   3.174   0.079
23495SOL     OW72491   0.255   8.468   6.025
23495SOL    HW172492   0.319  19.496   5.955
23495SOL    HW272493   0.194   8.395   6.013
23496SOL     OW72494   6.345   2.716   6.694
23496SOL    HW172495   6.348   2.721   6.790
23496SOL    HW272496   6.402   2.787  -4.374
23497SOL     OW72497   6.759   0.585   1.894
23497SOL    HW172498   6.729   0.511   1.842
23497SOL    HW272499 -37.393   0.658   1.832
23498SOL     OW72500   6.120   2.815   8.747
23498SOL    HW172501   6.124   2.849  -2.382
23498SOL    HW272502   6.049  24.831   8.746
23499SOL     OW72503   2.654   2.043   3.957
23499SOL    HW172504  13.607  13.121   3.970
23499SOL    HW272505   2.692   2.039   4.045
23500SOL     OW72506   1.674   1.834   0.223
23500SOL    HW172507   1.703   1.747   0.251
23500SOL    HW272508   1.680   1.832   0.128
23501SOL     OW72509   9.778   3.755   9.695
23501SOL    HW172510 -12.224  -7.292   9.639
23501SOL    HW272511  53.872   3.695   9.657
23502SOL     OW72512   7.514   3.562   2.600
23502SOL    HW172513   7.576   3.502 -30.560
23502SOL    HW272514  -3.498   3.649   2.572
23503SOL     OW72515   0.727   7.726  -0.057
23503SOL    HW172516  22.730   7.712  10.927
23503SOL    HW272517   0.801   7.700  -0.111
23504SOL     OW72518   4.095   5.166   4.323
23504SOL    HW172519   4.159  38.324   4.263
23504SOL    HW272520   4.029  16.274  26.414
23505SOL     OW72521   4.388   4.143   5.724
23505SOL    HW172522   4.313  15.133   5.692
23505SOL    HW272523   4.360  15.274   5.717
23506SOL     OW72524   8.836   3.144  -0.490
23506SOL    HW172525 -13.236   3.152  21.494
23506SOL    HW272526  -2.277   3.202  -0.467
23507SOL     OW72527   2.477   7.779   8.661
23507SOL    HW172528  68.628  18.846   8.694
23507SOL    HW272529  24.579   7.703   8.715
23508SOL     OW72530   4.476   2.398   8.643
23508SOL    HW172531  -6.540   2.311 -13.467
23508SOL    HW272532   4.472   2.452   8.564
23509SOL     OW72533   0.715   9.202  10.191
23509SOL    HW172534   0.700   9.271 -11.824
23509SOL    HW272535   0.667  -1.913  10.226
23510SOL     OW72536  -0.466   8.522   7.155
23510SOL    HW172537  10.548   8.595   7.210
23510SOL    HW272538  -0.493   8.444   7.204
23511SOL     OW72539   6.920   9.023   7.456
23511SOL    HW172540   6.921   9.116   7.433
23511SOL    HW272541   6.846  31.093   7.516
23512SOL     OW72542   7.496   0.543  10.768
23512SOL    HW172543   7.426   0.608  -0.275
23512SOL    HW272544  18.615  11.631 -11.330
23513SOL     OW72545   0.232   5.138   9.962
23513SOL    HW172546   0.200  16.169   9.873
23513SOL    HW272547   0.321   5.171   9.953
23514SOL     OW72548   8.250   1.552   1.380
23514SOL    HW172549   8.304  12.520   1.412
23514SOL    HW272550   8.161   1.516   1.380
23515SOL     OW72551   6.021  10.218   6.298
23515SOL    HW172552  -4.967  10.167   6.360
23515SOL    HW272553   5.930 -11.880   6.321
23516SOL     OW72554   1.608   9.319   0.132
23516SOL    HW172555   1.608   9.294   0.039
23516SOL    HW272556   1.519   9.350  11.188
23517SOL     OW72557   2.085   4.263   8.919
23517SOL    HW172558   2.061   4.210   8.995
23517SOL    HW272559   2.105   4.198   8.851
23518SOL     OW72560   2.232   9.235   3.150
23518SOL    HW172561  13.320 -23.852   3.075
23518SOL    HW272562   2.174   9.307   3.175
23519SOL     OW72563   3.218   6.796   2.811
23519SOL    HW172564  14.217 -15.369   2.825
23519SOL    HW272565  25.268   6.822   2.724
23520SOL     OW72566   4.447  11.596   9.070
23520SOL    HW172567  15.400   0.554   9.030
23520SOL    HW272568   4.448   0.638  -1.919
23521SOL     OW72569   8.338   5.232   0.185
23521SOL    HW172570   8.305  -5.804  22.174
23521SOL    HW272571   8.377 -16.934  22.272
23522SOL     OW72572   7.014   6.517   7.045
23522SOL    HW172573 -15.098   6.550   7.128
23522SOL    HW272574   7.108   6.501   7.060
23523SOL     OW72575   8.660   6.411   5.243
23523SOL    HW172576   8.677   6.416  16.377
23523SOL    HW272577  -2.293   6.420   5.202
23524SOL     OW72578   4.748   7.188  11.217
23524SOL    HW172579   4.700  -3.933 -10.881
23524SOL    HW272580   4.805 -25.919  11.142
23525SOL     OW72581   8.420   6.143   8.839
23525SOL    HW172582 -13.689   6.119  -2.113
23525SOL    HW272583  -2.662 -15.999   8.781
23526SOL     OW72584   1.776   2.206   4.280
23526SOL    HW172585 -20.222   2.235  -6.717
23526SOL    HW272586   1.719   2.180   4.352
23527SOL     OW72587   5.602   9.881   0.451
23527SOL    HW172588   5.541   9.846   0.515
23527SOL    HW272589   5.591   9.976   0.455
23528SOL     OW72590   6.854   5.541   2.242
23528SOL    HW172591   6.865 -16.498   2.328
23528SOL    HW272592  17.867   5.451   2.261
23529SOL     OW72593   5.247   8.778   0.943
23529SOL    HW172594 -38.910 -13.208   0.965
23529SOL    HW272595   5.154   8.756   0.936
23530SOL     OW72596   6.477   4.767  10.493
23530SOL    HW172597   6.472   4.679  10.454
23530SOL    HW272598  -4.552   4.826  10.419
23531SOL     OW72599   7.516  -1.226   4.228
23531SOL    HW172600   7.531  -1.284   4.304
23531SOL    HW272601   7.530  20.941   4.262
23532SOL     OW72602   4.963   3.917   7.533
23532SOL    HW172603  -6.075   4.013   7.538
23532SOL    HW272604 -28.160   3.899   7.439
23533SOL     OW72605   5.694  -3.331   1.434
23533SOL    HW172606  -5.368  29.832   1.517
23533SOL    HW272607   5.779  29.824   1.410
23534SOL     OW72608   8.816   8.644  10.942
23534SOL    HW172609  -2.144   8.659  10.891
23534SOL    HW272610   8.847   8.634  11.032
23535SOL     OW72611   8.905   2.341  11.552
23535SOL    HW172612   8.981  35.512   0.539
23535SOL    HW272613   8.836   2.405   0.496
23536SOL     OW72614   3.146  10.201   4.936
23536SOL    HW172615   3.198  10.281   4.932
23536SOL    HW272616  14.138  10.208  27.098
23537SOL     OW72617   6.705   0.228   0.909
23537SOL    HW172618   6.800   0.241 -10.129
23537SOL    HW272619   6.674  11.319   0.835
23538SOL     OW72620   4.710   8.917   5.414
23538SOL    HW172621   4.754  -2.201  16.420
23538SOL    HW272622  26.823   8.989  16.400
23539SOL     OW72623   5.017   2.256   4.113
23539SOL    HW172624  27.097  -8.874   4.083
23539SOL    HW272625  16.108 -19.823   4.194
23540SOL     OW72626   5.261   3.905   1.306
23540SOL    HW172627   5.300   3.821   1.283
23540SOL    HW272628   5.174   3.902 -20.814
23541SOL     OW72629   8.049   1.629   2.514
23541SOL    HW172630  30.050  12.710   2.478
23541SOL    HW272631   8.033   1.623   2.608
23542SOL     OW72632   8.276   9.635   9.916
23542SOL    HW172633  19.296  20.628 -12.244
23542SOL    HW272634   8.372   9.635   9.922
23543SOL     OW72635   3.363  11.000   3.928
23543SOL    HW172636   3.296  10.957   3.874
23543SOL    HW272637   3.351  10.962   4.015
23544SOL     OW72638   9.189   1.890   8.714
23544SOL    HW172639   9.234   1.829   8.772
23544SOL    HW272640  -1.781   1.927   8.660
23545SOL     OW72641   1.015   4.787   2.876
23545SOL    HW172642  -9.982   4.769   2.960
23545SOL    HW272643   1.078   4.843  13.869
23546SOL     OW72644   5.875   0.963   2.629
23546SOL    HW172645  16.928 -10.131  35.670
23546SOL    HW272646   5.794  12.050  24.690
23547SOL     OW72647   3.092   1.328   3.190
23547SOL    HW172648  14.068   1.394   3.163
23547SOL    HW272649   3.148  12.412   3.254
23548SOL     OW72650   9.482   9.891   8.760
23548SOL    HW172651   9.500   9.978  -2.243
23548SOL    HW272652   9.551   9.836   8.796
23549SOL     OW72653   7.280   3.381   5.899
23549SOL    HW172654  -3.854   3.380   5.920
23549SOL    HW272655   7.322   3.343   5.976
23550SOL     OW72656   2.501   6.053   1.632
23550SOL    HW172657   2.544   6.101   1.561
23550SOL    HW272658 -19.670   6.046   1.605
23551SOL     OW72659   1.600   6.468   4.077
23551SOL    HW172660   1.564   6.429  15.197
23551SOL    HW272661   1.692   6.444   4.078
23552SOL     OW72662   0.394  10.233   7.953
23552SOL    HW172663  33.486  10.145  18.966
23552SOL    HW272664 -10.692  -0.748  18.933
23553SOL     OW72665   4.559   7.183   7.498
23553SOL    HW172666   4.512  40.248   7.434
23553SOL    HW272667  26.727   7.148  -3.542
23554SOL     OW72668   2.363   8.942   7.086
23554SOL    HW172669   2.275   8.968   7.057
23554SOL    HW272670  24.487  31.103  -3.934
23555SOL     OW72671   2.210   0.323   5.257
23555SOL    HW172672   2.289   0.298   5.209
23555SOL    HW272673   2.155   0.364   5.191
23556SOL     OW72674   7.892   2.685  10.214
23556SOL    HW172675   7.928   2.622  10.151
23556SOL    HW272676  18.999 -19.326  10.220
23557SOL     OW72677   3.045   3.998  10.328
23557SOL    HW172678   3.052   3.914  -0.665
23557SOL    HW272679 -18.990  15.100  10.386
23558SOL     OW72680   1.894   7.202   6.520
23558SOL    HW172681   1.848   7.259  -4.459
23558SOL    HW272682   1.974   7.250   6.499
23559SOL     OW72683   6.362   7.185   8.970
23559SOL    HW172684   6.285   7.136   8.942
23559SOL    HW272685   6.421   7.183  30.975
23560SOL     OW72686   8.811  -0.429   6.500
23560SOL    HW172687   8.762  10.562   6.434
23560SOL    HW272688   8.876  -0.379   6.450
23561SOL     OW72689  10.199   8.123   6.863
23561SOL    HW172690  21.308   8.177   6.826
23561SOL    HW272691  10.123   8.139   6.807
23562SOL     OW72692   3.419   3.135   3.242
23562SOL    HW172693   3.433 -18.867   3.296
23562SOL    HW272694   3.451  -7.880  14.195
23563SOL     OW72695   8.306   9.640   6.475
23563SOL    HW172696   8.301  20.775  17.513
23563SOL    HW272697  19.359  20.658  28.646
23564SOL     OW72698  -1.727   6.466   8.535
23564SOL    HW172699   9.308   6.551   8.577
23564SOL    HW272700  31.303   6.449   8.504
23565SOL     OW72701   0.973   1.326  10.233
23565SOL    HW172702   1.028   1.266 -11.797
23565SOL    HW272703   0.887   1.284  10.230
23566SOL     OW72704   1.383   4.831   3.808
23566SOL    HW172705  23.422  15.947   3.849
23566SOL    HW272706   1.450   4.803  -7.169
23567SOL     OW72707   5.100   0.402   4.662
23567SOL    HW172708  27.215   0.484   4.696
23567SOL    HW272709  49.274   0.338   4.731
23568SOL     OW72710   9.560   4.595   0.305
23568SOL    HW172711 -12.609  15.667  11.334
23568SOL    HW272712  -1.466   4.538   0.230
23569SOL     OW72713   2.229   9.626   3.104
23569SOL    HW172714   2.282   9.547   3.093
23569SOL    HW272715   2.275   9.693   3.052
23570SOL     OW72716   7.988   8.366   1.256
23570SOL    HW172717   8.031  -2.729  -9.848
23570SOL    HW272718   7.923   8.415  23.285
23571SOL     OW72719   1.145  10.921   5.529
23571SOL    HW172720   1.135  10.882   5.616
23571SOL    HW272721   1.055  10.930   5.496
23572SOL     OW72722   2.019   8.947   8.495
23572SOL    HW172723  12.997   8.974 -13.653
23572SOL    HW272724   1.971  20.000   8.576
23573SOL     OW72725   1.958   4.660   1.161
23573SOL    HW172726  12.966 -17.503   1.195
23573SOL    HW272727   1.922   4.725   1.221
23574SOL     OW72728   2.362   7.333   8.085
23574SOL    HW172729   2.282   7.295 -13.957
23574SOL    HW272730  13.371   7.390   8.014
23575SOL     OW72731  11.966   4.439   4.640
23575SOL    HW172732  12.005   4.481  -6.323
23575SOL    HW272733 -10.145   4.355   4.673
23576SOL     OW72734   7.853   3.838  -0.478
23576SOL    HW172735   7.885   3.748  10.557
23576SOL    HW272736  18.892   3.859  10.655
23577SOL     OW72737   8.112   5.122   8.759
23577SOL    HW172738  19.147   5.028  -2.262
23577SOL    HW272739  19.232   5.132  19.747
23578SOL     OW72740   9.123   7.133   8.093
23578SOL    HW172741 -23.926 -14.947   8.159
23578SOL    HW272742   9.170 -14.957   8.010
23579SOL     OW72743  10.761   1.465   7.082
23579SOL    HW172744  -0.359   1.434   7.042
23579SOL    HW272745  10.814  -9.543   7.009
23580SOL     OW72746  10.983   4.328   8.931
23580SOL    HW172747 -11.167   4.361  19.915
23580SOL    HW272748 -33.217   4.258   8.983
23581SOL     OW72749   5.803   8.047   8.261
23581SOL    HW172750  -5.228  18.992   8.246
23581SOL    HW272751  -5.230   8.086   8.174
23582SOL     OW72752   2.472   9.141   8.135
23582SOL    HW172753   2.442  31.237   8.045
23582SOL    HW272754   2.563   9.114   8.125
23583SOL     OW72755   7.586   4.025   8.547
23583SOL    HW172756   7.607   4.106   8.594
23583SOL    HW272757   7.515  15.025   8.598
23584SOL     OW72758   8.078   9.751   6.154
23584SOL    HW172759   8.067   9.839   6.190
23584SOL    HW272760   8.008  -1.297   6.089
23585SOL     OW72761   4.540   3.387  12.096
23585SOL    HW172762   4.590 -18.734  12.026
23585SOL    HW272763  15.560   3.316  -9.922
23586SOL     OW72764   9.746  11.505   5.668
23586SOL    HW172765   9.835   0.471   5.702
23586SOL    HW272766   9.703  11.584 -16.380
23587SOL     OW72767   2.445   4.302  -0.670
23587SOL    HW172768   2.439   4.214  21.373
23587SOL    HW272769  13.575   4.329  -0.686
23588SOL     OW72770   2.239   7.127   6.831
23588SOL    HW172771  13.203  -3.951   6.787
23588SOL    HW272772   2.202  29.254   6.906
23589SOL     OW72773   6.229   0.041  10.526
23589SOL    HW172774   6.137   0.067  10.535
23589SOL    HW272775  39.387   0.064  10.610
23590SOL     OW72776  11.521   6.790   7.518
23590SOL    HW172777 -32.598   6.791   7.605
23590SOL    HW272778 -21.690   6.770  18.574
23591SOL     OW72779   1.007   7.326   8.994
23591SOL    HW172780   0.922   7.312  19.992
23591SOL    HW272781  12.026   7.348   9.085
23592SOL     OW72782   6.740   6.732   8.253
23592SOL    HW172783   6.674  28.743  41.385
23592SOL    HW272784   6.823   6.688   8.268
23593SOL     OW72785   2.888   6.545   0.539
23593SOL    HW172786   2.903   6.561   0.632
23593SOL    HW272787 -30.325  17.599   0.527
23594SOL     OW72788  10.401   9.237   2.608
23594SOL    HW172789  10.413   9.282   2.692
23594SOL    HW272790  10.377   9.148   2.632
23595SOL     OW72791   2.118   0.062   9.556
23595SOL    HW172792 -20.046   0.049  -1.527
23595SOL    HW272793   2.122   0.156   9.573
23596SOL     OW72794   3.315   4.359  10.765
23596SOL    HW172795   3.377   4.314  10.707
23596SOL    HW272796  -7.695   4.336  10.853
23597SOL     OW72797   3.542  10.853  10.331
23597SOL    HW172798  58.671  10.858  10.397
23597SOL    HW272799  14.573  10.764  10.295
23598SOL     OW72800   2.655   7.219  11.185
23598SOL    HW172801   2.684   7.282   0.080
23598SOL    HW272802  24.806   7.215   0.209
23599SOL     OW72803   8.499   3.785   2.863
23599SOL    HW172804 -13.632 -29.358   2.940
23599SOL    HW272805 -13.500  -7.217   2.899
23600SOL     OW72806   4.685   4.081   3.260
23600SOL    HW172807   4.728  15.144  -7.862
23600SOL    HW272808   4.696   3.986   3.267
23601SOL     OW72809   9.960   3.905  11.222
23601SOL    HW172810  21.027   3.979  11.276
23601SOL    HW272811   9.921   3.843   0.245
23602SOL     OW72812   5.329   9.897   4.559
23602SOL    HW172813   5.353   9.842  15.673
23602SOL    HW272814  27.455   9.979   4.573
23603SOL     OW72815   3.226  10.220   5.261
23603SOL    HW172816   3.295  -0.851  27.282
23603SOL    HW272817   3.237  10.168  27.420
23604SOL     OW72818   9.663   6.106   3.258
23604SOL    HW172819   9.632   6.193  25.313
23604SOL    HW272820   9.623   6.090  -7.696
23605SOL     OW72821   7.092   7.523   5.292
23605SOL    HW172822   7.158  18.528  -5.808
23605SOL    HW272823   7.100   7.618   5.286
23606SOL     OW72824   6.144   1.252   3.375
23606SOL    HW172825   6.235   1.275   3.353
23606SOL    HW272826   6.123  -9.731  14.489
23607SOL     OW72827   9.396   3.082   7.822
23607SOL    HW172828   9.433   3.170   7.834
23607SOL    HW272829   9.405   3.065   7.729
23608SOL     OW72830   4.963  10.324   1.972
23608SOL    HW172831   4.988  21.455   1.972
23608SOL    HW272832   4.875  10.323   2.010
23609SOL     OW72833   3.036   5.085   8.508
23609SOL    HW172834  13.989   5.050   8.485
23609SOL    HW272835   3.084   5.010   8.541
23610SOL     OW72836   6.883   0.247   4.919
23610SOL    HW172837   6.803   0.274   4.963
23610SOL    HW272838   6.941   0.323  15.963
23611SOL     OW72839   8.754   0.311   2.231
23611SOL    HW172840  19.729   0.297  13.202
23611SOL    HW272841   8.711   0.371   2.292
23612SOL     OW72842   7.853   2.640   8.864
23612SOL    HW172843   7.917   2.678  19.964
23612SOL    HW272844   7.800   2.715   8.837
23613SOL     OW72845   5.927   3.602   4.813
23613SOL    HW172846  17.043   3.643   4.773
23613SOL    HW272847  27.998   3.644  -6.141
23614SOL     OW72848   3.307   0.499   2.159
23614SOL    HW172849   3.358   0.490   2.239
23614SOL    HW272850   3.224   0.454  24.257
23615SOL     OW72851   7.729   0.938   9.373
23615SOL    HW172852   7.679   0.861  -1.693
23615SOL    HW272853  -3.228   0.903   9.406
23616SOL     OW72854   7.215   7.652  10.435
23616SOL    HW172855   7.126  -3.423 -11.641
23616SOL    HW272856 -14.832   7.642  10.525
23617SOL     OW72857   2.615   6.712   6.369
23617SOL    HW172858  24.626  28.728  17.387
23617SOL    HW272859   2.592   6.790   6.319
23618SOL     OW72860   1.257   6.478  10.131
23618SOL    HW172861   1.288 -15.691  10.133
23618SOL    HW272862  12.329  -4.523  -0.827
23619SOL     OW72863   5.340   0.309   3.244
23619SOL    HW172864   5.264   0.251   3.241
23619SOL    HW272865   5.303   0.397   3.241
23620SOL     OW72866   1.683   1.565   8.480
23620SOL    HW172867  -9.366   1.541   8.388
23620SOL    HW272868   1.605   1.528   8.522
23621SOL     OW72869   2.853   4.036   1.053
23621SOL    HW172870  35.996  15.167  45.196
23621SOL    HW272871  13.830   4.040   1.125
23622SOL     OW72872  10.757   2.339   3.204
23622SOL    HW172873  10.794   2.404  -7.896
23622SOL    HW272874  10.668   2.369 -18.859
23623SOL     OW72875   0.817   5.097   4.137
23623SOL    HW172876   0.794   5.101  15.084
23623SOL    HW272877   0.756  -5.883   4.180
23624SOL     OW72878  10.633   0.822   4.705
23624SOL    HW172879 -11.432   0.916   4.716
23624SOL    HW272880  10.715   0.790  15.707
23625SOL     OW72881   4.358   3.480   6.748
23625SOL    HW172882   4.450   3.474   6.724
23625SOL    HW272883 -39.845   3.421   6.687
23626SOL     OW72884   4.824   9.447  -0.372
23626SOL    HW172885   4.816  31.614  10.632
23626SOL    HW272886   4.860   9.395  -0.444
23627SOL     OW72887   7.224   7.728   0.852
23627SOL    HW172888 -14.892  18.686   0.886
23627SOL    HW272889   7.273  18.804 -10.114
23628SOL     OW72890   2.267  10.576   4.532
23628SOL    HW172891  13.309  10.618   4.618
23628SOL    HW272892  13.321  10.647   4.470
23629SOL     OW72893   9.266   8.992   3.776
23629SOL    HW172894   9.312   9.052   3.835
23629SOL    HW272895   9.258   8.911   3.826
23630SOL     OW72896  10.547   4.785   8.674
23630SOL    HW172897  -0.549   4.842   8.622
23630SOL    HW272898 -11.558   4.696   8.649
23631SOL     OW72899  11.577   7.610   7.594
23631SOL    HW172900  11.651  18.693   7.637
23631SOL    HW272901   0.519  29.613  18.689
23632SOL     OW72902  -0.055   7.482   3.386
23632SOL    HW172903  -0.100   7.560   3.418
23632SOL    HW272904  22.117   7.502   3.398
23633SOL     OW72905   7.343   3.434   2.972
23633SOL    HW172906   7.278   3.463   2.909
23633SOL    HW272907   7.393   3.514   2.993
23634SOL     OW72908   5.939   5.548   9.653
23634SOL    HW172909  16.917   5.578   9.719
23634SOL    HW272910   5.929   5.453   9.652
23635SOL     OW72911  11.717   7.289  10.735
23635SOL    HW172912  22.742   7.317  10.825
23635SOL    HW272913 -21.485  18.291 -11.372
23636SOL     OW72914   3.127   6.770   7.915
23636SOL    HW172915   3.198  -4.330   7.934
23636SOL    HW272916   3.087   6.787  -3.040
23637SOL     OW72917   4.554   8.226  10.277
23637SOL    HW172918  -6.496   8.183  -0.677
23637SOL    HW272919   4.475   8.279  10.267
23638SOL     OW72920   4.657   7.287   6.205
23638SOL    HW172921  26.792   7.235 -59.973
23638SOL    HW272922   4.674   7.251   6.118
23639SOL     OW72923   2.880   2.930   4.076
23639SOL    HW172924   2.881   2.986   4.155
23639SOL    HW272925   2.791   2.894   4.074
23640SOL     OW72926  10.335   5.652   6.458
23640SOL    HW172927  10.396   5.643  17.424
23640SOL    HW272928  -0.756   5.571  28.534
23641SOL     OW72929   5.430  12.059   3.695
23641SOL    HW172930   5.456  -9.996  14.646
23641SOL    HW272931  16.533  12.105  25.830
23642SOL     OW72932  11.355   2.752   6.737
23642SOL    HW172933 -21.715   2.672   6.754
23642SOL    HW272934   0.382   2.821  39.856
23643SOL     OW72935   9.724  10.209   2.094
23643SOL    HW172936 -12.443  10.200   2.128
23643SOL    HW272937   9.747  21.340   2.111
23644SOL     OW72938   6.750  10.202   6.402
23644SOL    HW172939  17.763  32.307   6.313
23644SOL    HW272940  -4.243 -11.960   6.390
23645SOL     OW72941   8.235   6.306   2.169
23645SOL    HW172942  19.224   6.388  -8.876
23645SOL    HW272943   8.168 -15.841  13.220
23646SOL     OW72944   6.119   5.646   2.995
23646SOL    HW172945  17.217   5.718   2.970
23646SOL    HW272946  17.218   5.581   3.035
23647SOL     OW72947   5.068  -1.851  11.451
23647SOL    HW172948   5.096   9.217  11.538
23647SOL    HW272949   5.005  31.198 -10.611
23648SOL     OW72950   3.695   3.806   6.744
23648SOL    HW172951   3.626   3.852   6.791
23648SOL    HW272952   3.777   3.836  28.864
23649SOL     OW72953   8.421   9.756   0.434
23649SOL    HW172954   8.504   9.740   0.479
23649SOL    HW272955   8.370   9.809   0.496
23650SOL     OW72956   7.450   7.328   3.530
23650SOL    HW172957   7.510 -14.825  -7.505
23650SOL    HW272958   7.365   7.291   3.554
23651SOL     OW72959   4.888   9.010   0.787
23651SOL    HW172960  15.835   9.037   0.793
23651SOL    HW272961   4.934   9.089   0.759
23652SOL     OW72962   7.380   9.025   9.521
23652SOL    HW172963   7.324  31.181   9.526
23652SOL    HW272964  -3.719   8.952 -12.573
23653SOL     OW72965   2.986   6.754   3.525
23653SOL    HW172966   3.062   6.811   3.524
23653SOL    HW272967   2.928   6.791  14.631
23654SOL     OW72968   5.812   0.072   8.225
23654SOL    HW172969  -5.229   0.016   8.148
23654SOL    HW272970   5.896  33.171 -13.811
23655SOL     OW72971   7.159   7.695   3.609
23655SOL    HW172972   7.237   7.660   3.651
23655SOL    HW272973   7.146 -14.439  14.571
23656SOL     OW72974  12.208  10.363   7.076
23656SOL    HW172975  -9.896  10.273   7.055
23656SOL    HW272976  12.273  10.354   7.146
23657SOL     OW72977   6.007   1.386   6.088
23657SOL    HW172978  -4.960  12.459   6.035
23657SOL    HW272979  -5.088   1.339  28.104
23658SOL     OW72980  10.118   6.459   7.138
23658SOL    HW172981  10.161   6.520  -3.842
23658SOL    HW272982  10.188   6.402  -3.934
23659SOL     OW72983   9.203   3.895  10.839
23659SOL    HW172984   9.284   3.876  10.791
23659SOL    HW272985   9.151  -7.092  10.778
23660SOL     OW72986   6.154   3.284   1.373
23660SOL    HW172987   6.100   3.363   1.369
23660SOL    HW272988   6.192   3.277   1.285
23661SOL     OW72989   4.709  -0.630  10.215
23661SOL    HW172990   4.741  -0.544  10.188
23661SOL    HW272991 -17.378  21.399  10.134
23662SOL     OW72992  -0.807   1.374   3.025
23662SOL    HW172993  -0.893   1.376   2.982
23662SOL    HW272994  21.267   1.302   3.087
23663SOL     OW72995   2.465   9.725   3.005
23663SOL    HW172996   2.556   9.726  14.013
23663SOL    HW272997  -8.571   9.673  -7.954
23664SOL     OW72998   4.357  -0.014   8.030
23664SOL    HW172999   4.302 -11.132  19.062
23664SOL    HW273000   4.441  44.112  19.102
23665SOL     OW73001   3.541  -2.530   8.115
23665SOL    HW173002   3.488  19.469   8.119
23665SOL    HW273003   3.477  30.659   8.120
23666SOL     OW73004   8.623  10.724  10.819
23666SOL    HW173005  19.686  -0.381  -0.286
23666SOL    HW273006   8.672  21.738  10.897
23667SOL     OW73007   3.900   5.594  11.588
23667SOL    HW173008   3.922 -16.494 -10.398
23667SOL    HW273009   3.911  16.545 -10.526
23668SOL     OW73010  10.736   4.615   5.732
23668SOL    HW173011  10.829  15.646   5.750
23668SOL    HW273012  10.693  15.638   5.816
23669SOL     OW73013   5.747   3.060   6.026
23669SOL    HW173014   5.704   3.132   6.074
23669SOL    HW273015  27.766  25.119   5.954
23670SOL     OW73016   4.325   4.676  10.474
23670SOL    HW173017   4.264   4.710  -0.631
23670SOL    HW273018   4.277  15.645  10.518
23671SOL     OW73019  10.569   4.998  10.323
23671SOL    HW173020  32.641   5.093  -0.707
23671SOL    HW273021 -33.495   4.981  10.326
23672SOL     OW73022   7.568   5.658   5.655
23672SOL    HW173023   7.535   5.699  27.654
23672SOL    HW273024  -3.545   5.663  -5.323
23673SOL     OW73025   2.894   4.607   4.411
23673SOL    HW173026   2.948   4.585   4.335
23673SOL    HW273027  -8.221   4.548   4.404
23674SOL     OW73028  11.446  11.847   4.332
23674SOL    HW173029  11.391 -10.156   4.351
23674SOL    HW273030   0.469  11.845   4.404
23675SOL     OW73031   0.669   2.282   2.969
23675SOL    HW173032  22.818   2.315   2.912
23675SOL    HW273033   0.714   2.235   3.038
23676SOL     OW73034   3.314   3.399   2.966
23676SOL    HW173035   3.406  -7.617   2.978
23676SOL    HW273036   3.297   3.417  -8.166
23677SOL     OW73037   3.548   2.514   9.772
23677SOL    HW173038   3.503   2.593  -1.297
23677SOL    HW273039  25.625  -8.520   9.867
23678SOL     OW73040   5.215   0.770   2.699
23678SOL    HW173041   5.251  22.927   2.654
23678SOL    HW273042   5.268   0.762   2.778
23679SOL     OW73043   4.744   6.728   2.241
23679SOL    HW173044 -17.312   6.706  -8.709
23679SOL    HW273045   4.653  17.796 -19.833
23680SOL     OW73046   2.136   4.904   6.480
23680SOL    HW173047   2.202   4.879   6.545
23680SOL    HW273048   2.063   4.845   6.496
23681SOL     OW73049  10.281   4.561  10.028
23681SOL    HW173050  10.223  15.550  10.085
23681SOL    HW273051  21.343  15.541   9.957
23682SOL     OW73052   8.787   6.761   7.406
23682SOL    HW173053  -2.340  -4.312   7.424
23682SOL    HW273054   8.803   6.741   7.314
23683SOL     OW73055  10.186   2.768  10.037
23683SOL    HW173056  10.265   2.784  -0.952
23683SOL    HW273057  10.115   2.803  10.092
23684SOL     OW73058   7.954   7.183   5.238
23684SOL    HW173059   7.865   7.176   5.203
23684SOL    HW273060  19.037   7.103  -5.832
23685SOL     OW73061   1.701   7.953  -2.302
23685SOL    HW173062   1.796 -14.116  41.863
23685SOL    HW273063   1.685   7.859   8.744
23686SOL     OW73064   5.414   9.504  10.594
23686SOL    HW173065  -5.711 -23.610  10.635
23686SOL    HW273066   5.400   9.536  10.505
23687SOL     OW73067   3.576   8.398   2.128
23687SOL    HW173068   3.486   8.374   2.103
23687SOL    HW273069   3.583   8.491   2.107
23688SOL     OW73070   6.622   9.475   2.468
23688SOL    HW173071  -4.344   9.443   2.520
23688SOL    HW273072   6.559   9.403  13.509
23689SOL     OW73073  10.464   9.305  10.216
23689SOL    HW173074  10.532   9.342  10.273
23689SOL    HW273075  10.509  -1.752  10.133
23690SOL     OW73076   2.150  10.073   7.923
23690SOL    HW173077  13.166   9.990   7.881
23690SOL    HW273078   2.114  -0.973   8.011
23691SOL     OW73079   5.365   5.815   9.922
23691SOL    HW173080   5.409  16.771   9.934
23691SOL    HW273081  -5.640   5.850   9.840
23692SOL     OW73082   7.378   3.711  11.728
23692SOL    HW173083   7.470   3.731  11.743
23692SOL    HW273084   7.371  14.738 -10.446
23693SOL     OW73085  10.527   3.035   6.678
23693SOL    HW173086  10.560   3.066   6.594
23693SOL    HW273087 -11.562  14.154  -4.308
23694SOL     OW73088   4.800   4.119   4.615
23694SOL    HW173089   4.820   4.209   4.644
23694SOL    HW273090   4.872 -18.012   4.651
23695SOL     OW73091   5.731   0.900   3.400
23695SOL    HW173092   5.702 -10.223   3.435
23695SOL    HW273093  16.748   0.898   3.307
23696SOL     OW73094   1.438   8.477   5.682
23696SOL    HW173095  -9.613   8.562   5.724
23696SOL    HW273096   1.385   8.482  -5.437
23697SOL     OW73097   1.512   3.645   1.145
23697SOL    HW173098   1.512  -7.352   1.231
23697SOL    HW273099  12.459   3.630   1.126
23698SOL     OW73100   1.047   7.316   7.683
23698SOL    HW173101   0.983   7.300   7.614
23698SOL    HW273102  23.205  -3.769   7.654
23699SOL     OW73103   5.005   2.900   1.045
23699SOL    HW173104   5.003   2.904  12.180
23699SOL    HW273105  26.996   2.924   1.018
23700SOL     OW73106   6.497   5.327   5.705
23700SOL    HW173107  28.545  27.495   5.688
23700SOL    HW273108  17.466  16.310   5.674
23701SOL     OW73109   7.137  11.511  10.772
23701SOL    HW173110  29.235   0.380 -11.326
23701SOL    HW273111  18.087  11.524  10.739
23702SOL     OW73112   4.427   3.118  11.630
23702SOL    HW173113  -6.614   3.202 -21.443
23702SOL    HW273114  -6.692   3.074 -10.422
23703SOL     OW73115   4.820  10.101   8.948
23703SOL    HW173116   4.739  10.115  -2.043
23703SOL    HW273117 -17.281  10.032  19.924
23704SOL     OW73118   8.893   6.034   0.791
23704SOL    HW173119   8.983  -5.037 -10.247
23704SOL    HW273120   8.871   6.039   0.698
23705SOL     OW73121  11.023  10.973   4.504
23705SOL    HW173122  10.951  10.958   4.444
23705SOL    HW273123  11.065  11.053   4.472
23706SOL     OW73124   6.759   0.594   3.091
23706SOL    HW173125 -37.417   0.525   3.156
23706SOL    HW273126   6.705   0.570   3.016
23707SOL     OW73127  10.048   6.900   9.190
23707SOL    HW173128  21.015  17.878 -12.894
23707SOL    HW273129  10.051   6.941   9.104
23708SOL     OW73130   3.597  -0.887   9.332
23708SOL    HW173131   3.649  21.207   9.252
23708SOL    HW273132  -7.518  -0.829  -1.717
23709SOL     OW73133   6.480   8.969  -0.296
23709SOL    HW173134  -4.578  20.103  -0.302
23709SOL    HW273135   6.398  31.011  10.776
23710SOL     OW73136   4.473   3.094   8.126
23710SOL    HW173137   4.533   3.053  19.104
23710SOL    HW273138   4.446  -8.016  30.264
23711SOL     OW73139   4.292  10.588   5.042
23711SOL    HW173140   4.255  10.563   5.127
23711SOL    HW273141   4.352  10.660   5.062
23712SOL     OW73142   3.355   9.776   5.863
23712SOL    HW173143   3.386   9.736   5.945
23712SOL    HW273144   3.260  -1.278 -16.214
23713SOL     OW73145  11.779   2.861   4.675
23713SOL    HW173146 -10.348   2.801  15.657
23713SOL    HW273147  11.870   2.852   4.648
23714SOL     OW73148  -0.376   7.169   3.260
23714SOL    HW173149  -0.364   7.101  14.233
23714SOL    HW273150  10.648   7.120   3.341
23715SOL     OW73151   3.387  11.645   2.859
23715SOL    HW173152   3.450   0.624  25.007
23715SOL    HW273153 -18.638 -21.495   2.783
23716SOL     OW73154   4.864  10.537   3.490
23716SOL    HW173155   4.952  10.573   3.478
23716SOL    HW273156 -17.241  10.508   3.402
23717SOL     OW73157   9.942   0.047  10.284
23717SOL    HW173158  20.906   0.100  -0.782
23717SOL    HW273159   9.992   0.035  21.242
23718SOL     OW73160   2.574  10.457   8.611
23718SOL    HW173161   2.565  10.371   8.652
23718SOL    HW273162   2.515  10.453   8.536
23719SOL     OW73163   7.273  10.252   2.703
23719SOL    HW173164   7.337  10.274  -8.404
23719SOL    HW273165   7.242  -0.702  35.852
23720SOL     OW73166   7.170  10.424   1.952
23720SOL    HW173167  18.205  10.499   2.011
23720SOL    HW273168   7.258  10.388  13.005
23721SOL     OW73169   1.508   2.386   9.466
23721SOL    HW173170   1.459   2.332   9.529
23721SOL    HW273171  12.523   2.476   9.487
23722SOL     OW73172   0.201   3.887   4.286
23722SOL    HW173173   0.222  25.912   4.363
23722SOL    HW273174   0.271  14.992   4.283
23723SOL     OW73175  10.886  10.206  11.170
23723SOL    HW173176  10.862  -0.914 -10.956
23723SOL    HW273177  10.837  10.201  11.253
23724SOL     OW73178   2.162  13.163  10.038
23724SOL    HW173179  13.127   2.122  10.099
23724SOL    HW273180  24.305 -19.899  10.080
23725SOL     OW73181   4.530   0.929   9.091
23725SOL    HW173182 -17.535   0.872   9.016
23725SOL    HW273183 -17.615  11.922   9.144
23726SOL     OW73184  10.305   4.943   7.679
23726SOL    HW173185  10.291   4.896  18.637
23726SOL    HW273186  -0.810   5.000 -14.391
23727SOL     OW73187   7.137   1.960   5.577
23727SOL    HW173188   7.213   1.993   5.529
23727SOL    HW273189  29.182   2.035   5.625
23728SOL     OW73190   9.005   1.428   5.128
23728SOL    HW173191   8.949   1.419   5.205
23728SOL    HW273192   8.980   1.513   5.091
23729SOL     OW73193   6.080   7.264   1.930
23729SOL    HW173194   6.083   7.228   1.841
23729SOL    HW273195   6.070  -3.852  13.026
23730SOL     OW73196   0.697   0.515  11.569
23730SOL    HW173197 -10.420  11.500  11.555
23730SOL    HW273198   0.662   0.601   0.554
23731SOL     OW73199   0.921   8.761   3.755
23731SOL    HW173200  12.003   8.680  -7.313
23731SOL    HW273201  12.027   8.828   3.741
23732SOL     OW73202   4.097   2.717  10.159
23732SOL    HW173203  26.236  13.684  10.141
23732SOL    HW273204   4.152  24.862  -0.839
23733SOL     OW73205   3.229   6.889  10.022
23733SOL    HW173206 -29.899   6.858  -1.107
23733SOL    HW273207  25.396   6.863  10.048
23734SOL     OW73208   6.171   7.225   0.204
23734SOL    HW173209  -4.924  18.343   0.200
23734SOL    HW273210  -4.889   7.177   0.123
23735SOL     OW73211   2.650   9.200   8.519
23735SOL    HW173212   2.733   9.176   8.560
23735SOL    HW273213   2.596  20.161  19.566
23736SOL     OW73214   9.641   2.290   2.393
23736SOL    HW173215 -12.427   2.346  13.356
23736SOL    HW273216   9.728   2.253   2.409
23737SOL     OW73217   0.374   6.045   5.937
23737SOL    HW173218   0.374  39.252  16.939
23737SOL    HW273219  11.381  28.068   5.866
23738SOL     OW73220   7.564   6.781   2.895
23738SOL    HW173221   7.581   6.838   2.969
23738SOL    HW273222  18.543   6.714  25.008
23739SOL     OW73223   6.867   5.649   0.280
23739SOL    HW173224   6.854   5.583   0.348
23739SOL    HW273225   6.866   5.599   0.198
23740SOL     OW73226   8.275   4.955   9.044
23740SOL    HW173227   8.248   4.898   9.116
23740SOL    HW273228  19.282   4.910   8.965
23741SOL     OW73229   6.723   3.481   3.685
23741SOL    HW173230  17.847   3.476   3.728
23741SOL    HW273231  17.703 -18.647   3.742
23742SOL     OW73232   3.546   1.616   5.050
23742SOL    HW173233   3.486   1.635   4.979
23742SOL    HW273234   3.622  12.616   5.008
23743SOL     OW73235   4.579   1.221   4.658
23743SOL    HW173236  15.597  12.305   4.576
23743SOL    HW273237   4.497   1.177 -17.396
23744SOL     OW73238   6.244   2.387   8.424
23744SOL    HW173239  -4.788  -8.593   8.349
23744SOL    HW273240   6.248  13.339   8.386
23745SOL     OW73241   4.256   6.626   6.437
23745SOL    HW173242   4.275   6.585  17.392
23745SOL    HW273243  15.369   6.600 -26.625
23746SOL     OW73244   9.074   5.529   9.029
23746SOL    HW173245   9.097   5.488   9.112
23746SOL    HW273246   8.992   5.487   9.003
23747SOL     OW73247   9.412  11.288   8.536
23747SOL    HW173248  31.456 -21.893   8.599
23747SOL    HW273249   9.393   0.209   8.450
23748SOL     OW73250   6.045   7.640   6.774
23748SOL    HW173251  -4.979   7.604   6.687
23748SOL    HW273252   6.095   7.583   6.833
23749SOL     OW73253   3.870   2.720   6.366
23749SOL    HW173254   3.914  13.692   6.418
23749SOL    HW273255   3.913  24.880   6.392
23750SOL     OW73256   4.637   5.961   9.509
23750SOL    HW173257  15.769  -5.104   9.508
23750SOL    HW273258  15.632   5.894   9.457
23751SOL     OW73259   8.669   9.845   4.753
23751SOL    HW173260   8.635   9.838   4.664
23751SOL    HW273261  19.631   9.842   4.809
23752SOL     OW73262   4.629   8.391   1.493
23752SOL    HW173263   4.703   8.373   1.550
23752SOL    HW273264  26.634   8.400   1.552
23753SOL     OW73265   6.663   7.609   8.103
23753SOL    HW173266  17.642  -3.423   8.029
23753SOL    HW273267   6.709   7.526   8.089
23754SOL     OW73268   4.280   2.077  11.341
23754SOL    HW173269   4.246   2.010   0.243
23754SOL    HW273270  37.340   2.075  11.417
23755SOL     OW73271  11.759   5.009   4.917
23755SOL    HW173272  11.804  15.993  -6.186
23755SOL    HW273273 -21.346  27.044 -17.078
23756SOL     OW73274   4.128   2.797   6.791
23756SOL    HW173275   4.073   2.727   6.826
23756SOL    HW273276   4.099   2.807   6.700
23757SOL     OW73277   2.429   5.823   9.247
23757SOL    HW173278   2.523   5.807   9.258
23757SOL    HW273279   2.400   5.755   9.186
23758SOL     OW73280   3.154  10.248   6.166
23758SOL    HW173281  -7.882  -0.730   6.239
23758SOL    HW273282  -7.890  32.241   6.208
23759SOL     OW73283  12.185   9.364   3.510
23759SOL    HW173284  12.187   9.401   3.422
23759SOL    HW273285 -20.845  20.418   3.543
23760SOL     OW73286   5.598   8.372   5.241
23760SOL    HW173287  16.543   8.373 -16.850
23760SOL    HW273288   5.612   8.390   5.333
23761SOL     OW73289  -0.404   5.087   5.341
23761SOL    HW173290  -0.464   5.076   5.414
23761SOL    HW273291  10.664   5.178   5.345
23762SOL     OW73292   5.681   5.726   8.349
23762SOL    HW173293  38.804   5.702   8.256
23762SOL    HW273294  16.806  -5.275   8.368
23763SOL     OW73295   2.635   5.090   5.517
23763SOL    HW173296   2.612  27.089   5.471
23763SOL    HW273297   2.666  38.179  27.682
23764SOL     OW73298   4.370   4.552  12.451
23764SOL    HW173299  -6.670  15.683 -31.679
23764SOL    HW273300  15.397   4.501  12.531
23765SOL     OW73301   5.505   5.052   2.849
23765SOL    HW173302   5.519  27.144  -8.097
23765SOL    HW273303   5.510   4.958  -8.203
23766SOL     OW73304   1.335   9.368   1.930
23766SOL    HW173305   1.412   9.312   1.936
23766SOL    HW273306   1.261   9.308   1.943
23767SOL     OW73307   3.457   5.002   3.321
23767SOL    HW173308   3.531   4.947   3.346
23767SOL    HW273309   3.420   5.032   3.404
23768SOL     OW73310   4.469  10.323   2.765
23768SOL    HW173311   4.540 -11.696   2.787
23768SOL    HW273312   4.476  10.311   2.670
23769SOL     OW73313   4.549   1.853   2.399
23769SOL    HW173314  37.710   1.938  13.424
23769SOL    HW273315   4.617   1.799  -8.602
23770SOL     OW73316   8.907   4.458   2.644
23770SOL    HW173317   9.003   4.460 -30.472
23770SOL    HW273318   8.885   4.365   2.639
23771SOL     OW73319  11.592   1.647   4.116
23771SOL    HW173320   0.573   1.740  -6.918
23771SOL    HW273321  11.663  -9.430  15.104
23772SOL     OW73322   4.579   6.214   1.270
23772SOL    HW173323   4.598   6.130   1.229
23772SOL    HW273324 -17.588   6.205   1.305
23773SOL     OW73325   0.498   4.265   1.786
23773SOL    HW173326  11.569   4.345   1.829
23773SOL    HW273327 -10.512   4.194   1.843
23774SOL     OW73328   2.235  -0.194   9.336
23774SOL    HW173329   2.185  10.796   9.272
23774SOL    HW273330   2.232  -0.103   9.304
23775SOL     OW73331   6.184   1.114  10.154
23775SOL    HW173332  39.309   1.159  10.069
23775SOL    HW273333   6.093   1.128  10.182
23776SOL     OW73334   8.464   1.806   1.031
23776SOL    HW173335  30.613   1.759   1.077
23776SOL    HW273336   8.493   1.810   0.940
23777SOL     OW73337   6.652   7.906   7.054
23777SOL    HW173338   6.605 -25.146   7.005
23777SOL    HW273339  -4.426   7.908  -3.898
23778SOL     OW73340   9.367  10.262   8.686
23778SOL    HW173341  20.452  -0.703 -13.432
23778SOL    HW273342   9.416  10.242   8.765
23779SOL     OW73343   9.252   1.707   0.931
23779SOL    HW173344   9.296  -9.353   0.848
23779SOL    HW273345   9.221   1.622  23.042
23780SOL     OW73346   1.162   3.063   1.763
23780SOL    HW173347   1.101   3.136   1.760
23780SOL    HW273348   1.249   3.103   1.764
23781SOL     OW73349  10.322   2.853   5.805
23781SOL    HW173350  10.346   2.779   5.748
23781SOL    HW273351  10.398   2.867  16.899
23782SOL     OW73352   9.977   4.835   3.113
23782SOL    HW173353   9.941  -6.137  -7.984
23782SOL    HW273354   9.947   4.753   3.075
23783SOL     OW73355   8.905   8.398   1.473
23783SOL    HW173356  19.899   8.471   1.515
23783SOL    HW273357   8.940   8.346  23.624
23784SOL     OW73358   8.948   1.977   6.878
23784SOL    HW173359   8.972  46.060   6.823
23784SOL    HW273360   8.996  24.130   6.839
23785SOL     OW73361   9.350   3.584   4.460
23785SOL    HW173362   9.309   3.520   4.518
23785SOL    HW273363   9.440   3.590   4.490
23786SOL     OW73364  12.679   3.390   2.346
23786SOL    HW173365  -9.307   3.414   2.352
23786SOL    HW273366 -20.439   3.300  13.351
23787SOL     OW73367   4.534   6.475   9.584
23787SOL    HW173368   4.533  -4.636   9.648
23787SOL    HW273369   4.511  -4.606   9.501
23788SOL     OW73370   3.767   1.625   9.411
23788SOL    HW173371  -7.318   1.690   9.357
23788SOL    HW273372   3.773   1.664   9.497
23789SOL     OW73373   1.408   5.523   2.772
23789SOL    HW173374  23.444 -16.516  24.927
23789SOL    HW273375   1.338   5.476 -30.392
23790SOL     OW73376   9.440  10.440   6.126
23790SOL    HW173377   9.364  -0.601   6.067
23790SOL    HW273378  -1.637  21.469  -4.826
23791SOL     OW73379   6.973   9.482   8.852
23791SOL    HW173380   6.922   9.532   8.915
23791SOL    HW273381   6.985  -1.498   8.778
23792SOL     OW73382   2.674   0.643   6.966
23792SOL    HW173383   2.767   0.619 -15.107
23792SOL    HW273384   2.629 -10.461   7.022
23793SOL     OW73385   4.856   5.287   3.688
23793SOL    HW173386  15.985  -5.783   3.701
23793SOL    HW273387  -6.188   5.369   3.737
23794SOL     OW73388   3.042   5.560   6.023
23794SOL    HW173389   3.075  -5.391  28.116
23794SOL    HW273390   2.966  -5.469  17.006
23795SOL     OW73391   3.792   2.754   2.036
23795SOL    HW173392  -7.322   2.766   2.095
23795SOL    HW273393   3.867   2.786 -19.993
23796SOL     OW73394   0.574   3.480   4.256
23796SOL    HW173395   0.539  -7.480   4.216
23796SOL    HW273396   0.611   3.431  37.301
23797SOL     OW73397  10.685   6.909   8.562
23797SOL    HW173398  10.672   6.814   8.565
23797SOL    HW273399  -0.364   6.931 -13.610
23798SOL     OW73400   6.084   6.682   5.612
23798SOL    HW173401   6.156   6.642   5.660
23798SOL    HW273402  17.107  17.662  16.578
23799SOL     OW73403   3.453   2.716  -0.313
23799SOL    HW173404  14.571 -30.454 -11.337
23799SOL    HW273405   3.473   2.802  32.843
23800SOL     OW73406   7.535   2.523   6.818
23800SOL    HW173407   7.486  13.510  -4.285
23800SOL    HW273408   7.529 -30.645   6.900
23801SOL     OW73409   5.853   8.737   3.264
23801SOL    HW173410   5.824   8.823   3.235
23801SOL    HW273411   5.812   8.676   3.203
23802SOL     OW73412   3.279   8.384  -0.027
23802SOL    HW173413   3.361  30.513  11.010
23802SOL    HW273414   3.229   8.416  -0.102
23803SOL     OW73415   6.006   3.503   7.058
23803SOL    HW173416   5.988   3.469   6.971
23803SOL    HW273417  16.981  14.500   7.114
23804SOL     OW73418   4.179  10.770   5.994
23804SOL    HW173419   4.227  10.853  -5.052
23804SOL    HW273420   4.095  10.793   6.032
23805SOL     OW73421   8.000   6.009   7.415
23805SOL    HW173422   7.926   6.008   7.476
23805SOL    HW273423   7.959   6.002  -3.711
23806SOL     OW73424  -1.201   6.105   6.335
23806SOL    HW173425  -1.295   6.122   6.336
23806SOL    HW273426  20.918  28.267   6.358
23807SOL     OW73427   4.882   0.239   8.053
23807SOL    HW173428   4.803   0.224  30.080
23807SOL    HW273429   4.850   0.287   8.130
23808SOL     OW73430   1.973   7.426   7.807
23808SOL    HW173431  24.016   7.478   7.735
23808SOL    HW273432  35.034   7.350  18.853
23809SOL     OW73433   6.533   2.482   6.858
23809SOL    HW173434   6.615   2.498   6.813
23809SOL    HW273435   6.504   2.569  17.926
23810SOL     OW73436   2.317   5.736   3.129
23810SOL    HW173437   2.410  38.878  14.171
23810SOL    HW273438   2.278  27.863   3.202
23811SOL     OW73439   8.127   6.996   9.156
23811SOL    HW173440   8.205   7.016   9.208
23811SOL    HW273441   8.058   6.979   9.221
23812SOL     OW73442   6.640   9.726   1.222
23812SOL    HW173443   6.721   9.761   1.259
23812SOL    HW273444   6.660   9.633   1.206
23813SOL     OW73445  11.077   1.128  10.386
23813SOL    HW173446 -22.000   1.044  10.406
23813SOL    HW273447  10.985   1.114  10.407
23814SOL     OW73448   1.136   4.683   4.242
23814SOL    HW173449   1.175   4.770  26.307
23814SOL    HW273450   1.091  15.703   4.160
23815SOL     OW73451   4.575   6.872  -0.138
23815SOL    HW173452   4.568   6.786  -0.097
23815SOL    HW273453   4.596   6.853  21.849
23816SOL     OW73454  -0.799   4.741   2.611
23816SOL    HW173455  21.340   4.815 -19.462
23816SOL    HW273456  -0.753   4.669   2.652
23817SOL     OW73457   0.189  10.507   5.700
23817SOL    HW173458   0.128  10.578   5.681
23817SOL    HW273459   0.221  10.479  -5.426
23818SOL     OW73460   2.199   6.675   9.880
23818SOL    HW173461   2.163   6.734   9.947
23818SOL    HW273462   2.259   6.730   9.829
23819SOL     OW73463   4.248   5.362   3.286
23819SOL    HW173464   4.321  16.363   3.334
23819SOL    HW273465  -6.858   5.293   3.283
23820SOL     OW73466   6.555   4.008   6.466
23820SOL    HW173467   6.594   3.930   6.506
23820SOL    HW273468   6.513 -18.105   6.387
23821SOL     OW73469   8.523   8.715   2.592
23821SOL    HW173470   8.512   8.781   2.524
23821SOL    HW273471   8.437 -13.367   2.636
23822SOL     OW73472   7.470   6.928   1.892
23822SOL    HW173473   7.387  17.973   1.938
23822SOL    HW273474   7.525  18.033   1.934
23823SOL     OW73475   8.458   2.242   3.592
23823SOL    HW173476   8.390   2.206   3.537
23823SOL    HW273477   8.412  -8.748 -18.420
23824SOL     OW73478   1.651   4.592   9.718
23824SOL    HW173479   1.582   4.631   9.772
23824SOL    HW273480  12.697   4.649   9.642
23825SOL     OW73481   8.522   7.370   3.249
23825SOL    HW173482   8.450   7.310   3.232
23825SOL    HW273483   8.487  29.512   3.312
23826SOL     OW73484   4.176   6.022   4.985
23826SOL    HW173485   4.184   6.115   5.006
23826SOL    HW273486  15.266  39.097   5.052
23827SOL     OW73487   7.967   6.078   2.864
23827SOL    HW173488   7.966   6.067   2.959
23827SOL    HW273489  30.041  -4.866  13.890
23828SOL     OW73490  12.845   8.339   1.066
23828SOL    HW173491 -20.353   8.349   1.015
23828SOL    HW273492   1.798   8.406  23.214
23829SOL     OW73493   8.249   6.950   1.022
23829SOL    HW173494 -24.818   6.873  23.123
23829SOL    HW273495 -13.893   6.958   1.094
23830SOL     OW73496   1.092   1.280   2.619
23830SOL    HW173497   1.063   1.312   2.705
23830SOL    HW273498 -10.009   1.209   2.598
23831SOL     OW73499   9.003   1.654  10.616
23831SOL    HW173500  20.026  12.787  21.668
23831SOL    HW273501  20.127  12.690  -0.467
23832SOL     OW73502   7.715   8.980   0.958
23832SOL    HW173503   7.720 -13.060   0.870
23832SOL    HW273504   7.805 -13.094   0.991
23833SOL     OW73505   4.741  11.786   8.076
23833SOL    HW173506  15.812  11.730  -3.035
23833SOL    HW273507   4.746 -10.205   8.040
23834SOL     OW73508   4.379   5.991   1.801
23834SOL    HW173509   4.382   5.939   1.881
23834SOL    HW273510  37.566   5.955  -9.294
23835SOL     OW73511   0.413   6.995   2.490
23835SOL    HW173512   0.334   6.949  13.559
23835SOL    HW273513  22.495   6.979 -19.683
23836SOL     OW73514   1.502   5.075  11.601
23836SOL    HW173515  -9.555   5.045   0.651
23836SOL    HW273516  -9.480  -5.889   0.572
23837SOL     OW73517   8.997   3.347   8.320
23837SOL    HW173518  -2.005   3.259   8.324
23837SOL    HW273519 -24.083   3.393   8.394
23838SOL     OW73520   9.264   6.063   3.131
23838SOL    HW173521   9.279  -5.013   3.218
23838SOL    HW273522  20.344  -5.040   3.072
23839SOL     OW73523   9.636   4.849  10.953
23839SOL    HW173524   9.707  15.873  11.014
23839SOL    HW273525   9.591   4.764  10.947
23840SOL     OW73526   4.277   2.756   5.029
23840SOL    HW173527  26.419  13.799   4.957
23840SOL    HW273528   4.198   2.719  -6.049
23841SOL     OW73529   1.260   8.157   8.029
23841SOL    HW173530   1.262   8.116  -2.925
23841SOL    HW273531  12.277  19.288   8.047
23842SOL     OW73532   1.522   6.466   6.677
23842SOL    HW173533  -9.502   6.560   6.687
23842SOL    HW273534   1.449   6.459   6.615
23843SOL     OW73535   1.950   1.724   9.660
23843SOL    HW173536  12.994   1.631   9.684
23843SOL    HW273537   1.987   1.728   9.572
23844SOL     OW73538   1.013   3.715   8.301
23844SOL    HW173539   1.070   3.749   8.232
23844SOL    HW273540   0.930   3.760   8.288
23845SOL     OW73541   4.132   0.668   8.016
23845SOL    HW173542   4.040   0.659   7.989
23845SOL    HW273543   4.147 -10.277   8.015
23846SOL     OW73544   2.980   8.933   6.587
23846SOL    HW173545   2.899   8.892   6.616
23846SOL    HW273546   2.975   8.932   6.491
23847SOL     OW73547   3.068   1.814   4.183
23847SOL    HW173548   3.038   1.893   4.227
23847SOL    HW273549  25.069   1.779   4.140
23848SOL     OW73550  10.218   8.292  -0.349
23848SOL    HW173551  10.282   8.221  -0.355
23848SOL    HW273552  10.137   8.248  10.716
23849SOL     OW73553  10.628   1.818  -0.007
23849SOL    HW173554  -0.327   1.855  22.049
23849SOL    HW273555  -0.472   1.856  -0.070
23850SOL     OW73556   2.566   6.550   9.604
23850SOL    HW173557   2.474   6.526  20.648
23850SOL    HW273558  -8.428   6.468   9.586
23851SOL     OW73559   8.746   8.766   5.825
23851SOL    HW173560   8.695   8.832   5.778
23851SOL    HW273561   8.769  19.741   5.758
23852SOL     OW73562   2.268   2.510   4.531
23852SOL    HW173563 -30.878   2.566   4.604
23852SOL    HW273564   2.309   2.435   4.574
23853SOL     OW73565   9.754   5.503   7.413
23853SOL    HW173566   9.755   5.538   7.502
23853SOL    HW273567  31.904   5.551   7.369
23854SOL     OW73568   1.233   6.530   4.093
23854SOL    HW173569   1.163   6.501   4.034
23854SOL    HW273570  -9.729 -15.595   4.061
23855SOL     OW73571   2.223   1.609   3.929
23855SOL    HW173572   2.206   1.518   3.905
23855SOL    HW273573  24.282 -20.421  -7.190
23856SOL     OW73574  -0.089   0.015   3.047
23856SOL    HW173575   0.002  11.081   3.060
23856SOL    HW273576  10.949  22.053   2.961
23857SOL     OW73577   2.699   1.072  10.490
23857SOL    HW173578   2.671  -9.917  10.566
23857SOL    HW273579   2.658   1.116  10.416
23858SOL     OW73580   4.202   4.769   3.710
23858SOL    HW173581   4.186  15.890  14.795
23858SOL    HW273582   4.214   4.704   3.779
23859SOL     OW73583   9.601   1.269   5.359
23859SOL    HW173584  -1.427  12.369  16.471
23859SOL    HW273585   9.530 -20.772   5.307
23860SOL     OW73586   1.215   1.009  11.028
23860SOL    HW173587   1.249   0.954  10.958
23860SOL    HW273588   1.288   1.067  11.051
23861SOL     OW73589   8.538   7.153  -0.241
23861SOL    HW173590   8.611   7.215  21.841
23861SOL    HW273591  19.535   7.163  -0.156
23862SOL     OW73592   1.970   1.605   8.341
23862SOL    HW173593  -9.115   1.684   8.312
23862SOL    HW273594   1.931   1.584   8.425
23863SOL     OW73595   9.626  -0.417   1.096
23863SOL    HW173596   9.555  -0.469   1.060
23863SOL    HW273597   9.699  10.608 -10.004
23864SOL     OW73598   2.814   4.209   3.648
23864SOL    HW173599   2.834   4.165   3.565
23864SOL    HW273600   2.793   4.137   3.708
23865SOL     OW73601   6.517   9.373   6.688
23865SOL    HW173602   6.610   9.374 -15.369
23865SOL    HW273603   6.502   9.283   6.656
23866SOL     OW73604   0.352  10.821   4.221
23866SOL    HW173605   0.277  10.840   4.166
23866SOL    HW273606   0.321  10.836 -17.769
23867SOL     OW73607  10.857   8.092  10.549
23867SOL    HW173608  10.826   8.127  10.465
23867SOL    HW273609 -11.302   8.079  10.600
23868SOL     OW73610   5.384   6.111   9.794
23868SOL    HW173611   5.371   6.203   9.818
23868SOL    HW273612  -5.737   6.068 -23.299
23869SOL     OW73613   9.140   0.499   9.732
23869SOL    HW173614   9.082   0.539   9.797
23869SOL    HW273615   9.228   0.517   9.764
23870SOL     OW73616   2.179   9.712  10.922
23870SOL    HW173617   2.186  20.661  10.953
23870SOL    HW273618  13.173   9.705  10.838
23871SOL     OW73619   2.656   5.878   1.437
23871SOL    HW173620  13.767  -5.169   1.374
23871SOL    HW273621  13.688   5.972   1.454
23872SOL     OW73622   6.381   7.454   7.995
23872SOL    HW173623  -4.599   7.486   7.927
23872SOL    HW273624   6.333   7.531   8.024
23873SOL     OW73625   0.185   0.567   6.596
23873SOL    HW173626   0.197   0.579 -15.389
23873SOL    HW273627   0.153  11.691   6.565
23874SOL     OW73628   8.188   7.133   5.774
23874SOL    HW173629   8.219  -3.890   5.863
23874SOL    HW273630   8.268   7.119   5.723
23875SOL     OW73631   0.179   5.076   8.303
23875SOL    HW173632 -10.922 -16.952  -2.685
23875SOL    HW273633  11.167   5.004   8.267
23876SOL     OW73634   8.911   1.147  -0.244
23876SOL    HW173635   8.903   1.088  -0.169
23876SOL    HW273636   9.006  -9.886  21.819
23877SOL     OW73637   2.552   4.574   2.016
23877SOL    HW173638   2.543  48.828   2.016
23877SOL    HW273639  -8.458  15.593   1.927
23878SOL     OW73640   9.152  11.537   9.472
23878SOL    HW173641   9.237 -21.624  -1.583
23878SOL    HW273642   9.142   0.496   9.567
23879SOL     OW73643   6.941   7.269   4.102
23879SOL    HW173644  17.987 -14.715  -6.935
23879SOL    HW273645  -4.119  -3.796   4.193
23880SOL     OW73646   4.261   2.484   4.734
23880SOL    HW173647   4.339   2.531   4.763
23880SOL    HW273648   4.234   2.529  15.694
23881SOL     OW73649   5.744   3.704   9.476
23881SOL    HW173650  38.873  14.823  -1.617
23881SOL    HW273651   5.798  36.757   9.433
23882SOL     OW73652  12.173   4.539   8.091
23882SOL    HW173653  12.179   4.548   7.996
23882SOL    HW273654  -9.999   4.553  -2.928
23883SOL     OW73655   7.554   9.717   7.624
23883SOL    HW173656  -3.501  31.703   7.639
23883SOL    HW273657   7.639 -12.346   7.665
23884SOL     OW73658   8.845   8.664   2.847
23884SOL    HW173659   8.830   8.648   2.753
23884SOL    HW273660   8.782  41.726   2.891
23885SOL     OW73661   7.124   5.341   2.287
23885SOL    HW173662   7.116   5.287   2.209
23885SOL    HW273663   7.070  16.336   2.353
23886SOL     OW73664   5.141   6.374   3.010
23886SOL    HW173665   5.131   6.280   2.998
23886SOL    HW273666  -5.972  -4.641   3.067
23887SOL     OW73667   4.808   0.318  10.631
23887SOL    HW173668   4.900   0.304  10.610
23887SOL    HW273669   4.807   0.392  10.692
23888SOL     OW73670  10.930  10.699   7.224
23888SOL    HW173671  10.987  10.691  18.340
23888SOL    HW273672  10.856  10.641  40.361
23889SOL     OW73673   9.133   5.252   8.217
23889SOL    HW173674   9.188  16.280  -2.899
23889SOL    HW273675   9.045   5.269  -2.858
23890SOL     OW73676   2.883   3.153   3.192
23890SOL    HW173677   2.896   3.062   3.218
23890SOL    HW273678   2.832  14.231   3.263
23891SOL     OW73679   3.912   2.716   5.609
23891SOL    HW173680  15.009   2.640  16.656
23891SOL    HW273681   3.919   2.742  16.557
23892SOL     OW73682  10.497   6.961   5.678
23892SOL    HW173683  10.520   6.868  16.720
23892SOL    HW273684  10.446  18.011  -5.442
23893SOL     OW73685   8.907   4.720   8.977
23893SOL    HW173686  -2.129   4.808   8.939
23893SOL    HW273687   8.829   4.680  19.977
23894SOL     OW73688   8.667   3.721   4.784
23894SOL    HW173689   8.609   3.670   4.728
23894SOL    HW273690   8.613 -18.284  26.892
23895SOL     OW73691   8.908   6.326   2.531
23895SOL    HW173692  19.893  -4.701  13.493
23895SOL    HW273693  20.017   6.266  -8.538
23896SOL     OW73694   3.598   1.158   3.715
23896SOL    HW173695  14.720  -9.833   3.713
23896SOL    HW273696   3.615   1.080   3.662
23897SOL     OW73697   9.279   5.351   8.421
23897SOL    HW173698  20.247   5.329  19.401
23897SOL    HW273699   9.353  -5.741   8.391
23898SOL     OW73700  10.381   8.433   6.965
23898SOL    HW173701  10.447  -2.589   7.032
23898SOL    HW273702  10.405  19.387  -4.111
23899SOL     OW73703   5.987   1.762   9.771
23899SOL    HW173704  17.000   1.716   9.691
23899SOL    HW273705   6.010  12.732   9.833
23900SOL     OW73706   8.349   8.249  10.301
23900SOL    HW173707   8.372   8.298  10.223
23900SOL    HW273708   8.410   8.175  21.342
23901SOL     OW73709   4.960   5.046  10.091
23901SOL    HW173710   5.017   5.101  10.145
23901SOL    HW273711   4.900  38.124  -0.886
23902SOL     OW73712   0.244   4.584   3.472
23902SOL    HW173713  22.377   4.584  -7.488
23902SOL    HW273714  11.208   4.637  -7.545
23903SOL     OW73715   0.300   1.328   3.361
23903SOL    HW173716   0.355  23.474   3.400
23903SOL    HW273717   0.248   1.374   3.296
23904SOL     OW73718   3.521   7.663   9.967
23904SOL    HW173719  -7.560   7.592  10.017
23904SOL    HW273720  25.527  -3.329  -1.112
23905SOL     OW73721   0.066   1.871   6.752
23905SOL    HW173722   0.048  23.945   6.658
23905SOL    HW273723   0.162   1.869   6.758
23906SOL     OW73724   3.672   4.986   4.767
23906SOL    HW173725   3.764  16.035  15.781
23906SOL    HW273726 -29.446   4.997   4.862
23907SOL     OW73727   6.451  12.871   4.176
23907SOL    HW173728  17.506   1.852  -6.956
23907SOL    HW273729  -4.632  -9.130   4.211
23908SOL     OW73730   2.049   9.725   3.789
23908SOL    HW173731   2.118  20.830 -18.306
23908SOL    HW273732   2.066  -1.383   3.724
23909SOL     OW73733  11.001   7.955   9.550
23909SOL    HW173734  10.982   8.049   9.555
23909SOL    HW273735  11.006   7.926   9.641
23910SOL     OW73736   9.162   3.733  10.129
23910SOL    HW173737   9.110   3.656  10.151
23910SOL    HW273738   9.224   3.741  10.202
23911SOL     OW73739   9.803   7.554  10.498
23911SOL    HW173740   9.722   7.523  10.537
23911SOL    HW273741   9.867   7.554  10.569
23912SOL     OW73742   8.412   1.574   6.328
23912SOL    HW173743  19.470   1.519   6.251
23912SOL    HW273744  19.523   1.555  17.428
23913SOL     OW73745   2.552   0.481   7.156
23913SOL    HW173746  -8.428   0.442  18.261
23913SOL    HW273747   2.465   0.451  -3.858
23914SOL     OW73748   2.387   5.847   5.746
23914SOL    HW173749  -8.650   5.793   5.667
23914SOL    HW273750   2.465   5.820   5.795
23915SOL     OW73751   5.677   2.307   9.280
23915SOL    HW173752   5.748   2.248   9.257
23915SOL    HW273753   5.676   2.307   9.376
23916SOL     OW73754   6.073   5.629  10.355
23916SOL    HW173755   6.068   5.598  10.445
23916SOL    HW273756   6.148  27.662  10.317
23917SOL     OW73757   0.825   6.834   3.396
23917SOL    HW173758   0.886  17.857  14.507
23917SOL    HW273759  11.912   6.891  14.375
23918SOL     OW73760   5.600   7.641   9.481
23918SOL    HW173761   5.632   7.560   9.520
23918SOL    HW273762   5.565   7.613  -1.644
23919SOL     OW73763   5.719   5.836   5.249
23919SOL    HW173764   5.805   5.877   5.262
23919SOL    HW273765   5.726   5.791   5.165
23920SOL     OW73766   4.840   2.866   5.413
23920SOL    HW173767 -28.206   2.899  -5.573
23920SOL    HW273768   4.793  13.984   5.385
23921SOL     OW73769   7.005  12.005   8.698
23921SOL    HW173770   6.918 -10.048  30.806
23921SOL    HW273771   7.013   1.001   8.610
23922SOL     OW73772   9.703   0.085   2.707
23922SOL    HW173773   9.630   0.073   2.647
23922SOL    HW273774   9.684   0.167   2.753
23923SOL     OW73775   7.538   8.068   4.212
23923SOL    HW173776   7.487 -14.091   4.202
23923SOL    HW273777  -3.540   8.129   4.150
23924SOL     OW73778   5.174   8.024   8.944
23924SOL    HW173779   5.249   7.965  31.034
23924SOL    HW273780   5.116   8.002   9.017
23925SOL     OW73781   7.513   0.254   5.021
23925SOL    HW173782   7.479  11.308   4.932
23925SOL    HW273783   7.527   0.342   5.055
23926SOL     OW73784   6.691   1.983   5.285
23926SOL    HW173785   6.738   2.064   5.264
23926SOL    HW273786   6.709   1.968  -5.662
23927SOL     OW73787   7.069   9.438   9.182
23927SOL    HW173788  -3.911   9.498   9.138
23927SOL    HW273789  -3.925   9.353   9.180
23928SOL     OW73790   1.075   3.430   2.691
23928SOL    HW173791  12.049   3.463   2.752
23928SOL    HW273792   1.156  14.465   2.742
23929SOL     OW73793   4.646   6.135   7.877
23929SOL    HW173794   4.612   6.181  29.879
23929SOL    HW273795   4.588   6.162   7.949
23930SOL     OW73796   8.565  11.025   8.167
23930SOL    HW173797   8.507  11.015   8.243
23930SOL    HW273798   8.555 -33.042  19.180
23931SOL     OW73799  11.576   1.380  10.012
23931SOL    HW173800 -10.486  12.326  10.011
23931SOL    HW273801 -10.589   1.389  10.052
23932SOL     OW73802  10.827  13.752   3.250
23932SOL    HW173803  10.780 -41.517  -7.834
23932SOL    HW273804  -0.127 -19.365   3.208
23933SOL     OW73805   9.957   6.676   8.113
23933SOL    HW173806   9.954   6.694   8.019
23933SOL    HW273807  10.005   6.750   8.150
23934SOL     OW73808   1.169   1.030   5.415
23934SOL    HW173809   1.194   0.938   5.419
23934SOL    HW273810   1.081 -10.007   5.452
23935SOL     OW73811   6.427   5.258   1.229
23935SOL    HW173812   6.415   5.332   1.290
23935SOL    HW273813 -15.582   5.286   1.171
23936SOL     OW73814   8.211   4.524   1.349
23936SOL    HW173815   8.149  26.598  -9.618
23936SOL    HW273816  19.223  37.573   1.289
23937SOL     OW73817   4.060  10.406   4.571
23937SOL    HW173818   4.121  10.480   4.571
23937SOL    HW273819   4.104  10.338   4.623
23938SOL     OW73820   6.282   9.203   7.818
23938SOL    HW173821  17.263   9.150   7.871
23938SOL    HW273822  17.265   9.242   7.752
23939SOL     OW73823   3.241   7.021   5.036
23939SOL    HW173824   3.192  -4.010  -6.085
23939SOL    HW273825   3.322   7.069   5.020
23940SOL     OW73826   7.157   1.115   2.072
23940SOL    HW173827 -14.931   1.113   2.168
23940SOL    HW273828 -25.876   1.155   2.057
23941SOL     OW73829   2.094   7.312   8.171
23941SOL    HW173830   2.043   7.253   8.116
23941SOL    HW273831   2.067   7.400  -2.895
23942SOL     OW73832   5.317   9.992  11.151
23942SOL    HW173833   5.386 -34.103 -10.911
23942SOL    HW273834   5.239 -23.089 -55.046
23943SOL     OW73835  -0.403   6.162   6.198
23943SOL    HW173836  10.677  28.235  17.151
23943SOL    HW273837  -0.491  -4.845   6.181
23944SOL     OW73838   5.024   1.446   4.047
23944SOL    HW173839   5.105   1.475   4.089
23944SOL    HW273840   5.045   1.359  37.132
23945SOL     OW73841   9.453   4.633   5.734
23945SOL    HW173842   9.533  -6.421   5.684
23945SOL    HW273843   9.428   4.547  16.806
23946SOL     OW73844  10.284   9.601   1.349
23946SOL    HW173845  10.265   9.606   1.443
23946SOL    HW273846  10.299   9.691   1.322
23947SOL     OW73847   3.598   5.651   9.709
23947SOL    HW173848  14.574   5.717   9.682
23947SOL    HW273849  25.651 -27.490   9.799
23948SOL     OW73850  10.696   0.840   2.628
23948SOL    HW173851  10.606   0.871   2.621
23948SOL    HW273852  10.748  22.985   2.582
23949SOL     OW73853   0.097   7.363   9.228
23949SOL    HW173854   0.058   7.277   9.242
23949SOL    HW273855   0.100   7.373  -1.906
23950SOL     OW73856  10.859   2.295   5.043
23950SOL    HW173857  10.903   2.213  -5.973
23950SOL    HW273858  -0.130  24.409   4.969
23951SOL     OW73859   9.639   1.381   2.672
23951SOL    HW173860   9.641  -9.614   2.757
23951SOL    HW273861  20.616   1.309 -19.395
23952SOL     OW73862   2.811   7.376   6.404
23952SOL    HW173863  35.838   7.378  -4.608
23952SOL    HW273864  24.920   7.467   6.410
23953SOL     OW73865   8.033  10.644   0.987
23953SOL    HW173866   8.062 -11.358   0.939
23953SOL    HW273867   7.937  10.646   0.982
23954SOL     OW73868   3.951   3.280  10.508
23954SOL    HW173869   3.905   3.363  -0.518
23954SOL    HW273870   3.953   3.239  10.594
23955SOL     OW73871  -0.587   8.510   1.579
23955SOL    HW173872  21.470  -2.444   1.616
23955SOL    HW273873  -0.523  -2.566   1.641
23956SOL     OW73874   9.739   5.113   8.082
23956SOL    HW173875   9.731   5.017   8.079
23956SOL    HW273876  20.778   5.139   7.990
23957SOL     OW73877   7.556   2.938   3.239
23957SOL    HW173878   7.499   2.969   3.309
23957SOL    HW273879  18.548   2.864  14.240
23958SOL     OW73880   9.777   6.766   6.346
23958SOL    HW173881 -34.352   6.847   6.388
23958SOL    HW273882   9.846   6.744 -15.795
23959SOL     OW73883   3.159   3.747   0.164
23959SOL    HW173884  -7.927  14.707   0.190
23959SOL    HW273885   3.090  -7.228   0.151
23960SOL     OW73886   5.709   5.933  10.120
23960SOL    HW173887   5.663   5.908  10.200
23960SOL    HW273888   5.746   5.851  10.087
23961SOL     OW73889   9.737   8.537  10.974
23961SOL    HW173890   9.784  -2.424  10.947
23961SOL    HW273891  -1.324  30.632   0.027
23962SOL     OW73892   6.865   7.058   3.936
23962SOL    HW173893  17.987   7.022  15.008
23962SOL    HW273894   6.853 -25.981 -29.131
23963SOL     OW73895   3.302   8.308   7.044
23963SOL    HW173896   3.327   8.231   6.992
23963SOL    HW273897   3.301  -2.762   7.134
23964SOL     OW73898   5.747   0.859   9.960
23964SOL    HW173899  27.829   0.876   9.866
23964SOL    HW273900   5.715 -10.099   9.999
23965SOL     OW73901   9.644   5.058   5.457
23965SOL    HW173902  -1.393   4.985   5.519
23965SOL    HW273903   9.721   5.045  16.441
23966SOL     OW73904   8.429   2.844   9.698
23966SOL    HW173905   8.509   2.880   9.736
23966SOL    HW273906  -2.663  13.855   9.773
23967SOL     OW73907   7.053   4.718   2.720
23967SOL    HW173908 -15.093   4.649 -30.390
23967SOL    HW273909   7.136   4.672   2.732
23968SOL     OW73910   9.672   4.221   3.843
23968SOL    HW173911   9.577  15.264   3.852
23968SOL    HW273912   9.693   4.295  14.825
23969SOL     OW73913  10.648   2.295   2.930
23969SOL    HW173914  10.666  -8.789  14.052
23969SOL    HW273915  10.644  13.427  -8.087
23970SOL     OW73916   6.954   1.678  10.261
23970SOL    HW173917   7.039  12.752  21.328
23970SOL    HW273918   6.934   1.611  10.327
23971SOL     OW73919   4.812  10.120   4.895
23971SOL    HW173920   4.832 -11.911  37.933
23971SOL    HW273921  15.936  10.111  15.978
23972SOL     OW73922   2.365   2.509   8.800
23972SOL    HW173923   2.437   2.542   8.854
23972SOL    HW273924   2.322   2.444   8.856
23973SOL     OW73925   8.777   2.151   3.403
23973SOL    HW173926   8.865   2.159 -29.753
23973SOL    HW273927   8.774  35.181   3.437
23974SOL     OW73928   9.201  10.396   3.779
23974SOL    HW173929   9.109  21.457 -18.315
23974SOL    HW273930   9.200  10.307  14.853
23975SOL     OW73931   0.233   4.461   6.034
23975SOL    HW173932  11.339   4.392   6.030
23975SOL    HW273933  33.274  15.456   6.068
23976SOL     OW73934   4.486  10.741   5.434
23976SOL    HW173935   4.425  10.778   5.497
23976SOL    HW273936   4.483  10.647   5.450
23977SOL     OW73937   4.595   1.517  11.127
23977SOL    HW173938   4.647   1.595   0.104
23977SOL    HW273939 -17.570  -9.489  11.101
23978SOL     OW73940   8.832   6.199  10.559
23978SOL    HW173941  19.855   6.132  -0.415
23978SOL    HW273942   8.777 -26.945  10.484
23979SOL     OW73943   3.038   0.546   5.590
23979SOL    HW173944   2.999   0.616   5.643
23979SOL    HW273945  14.031   0.467   5.616
23980SOL     OW73946   1.872   2.112  11.012
23980SOL    HW173947   1.936   2.105  11.082
23980SOL    HW273948  -9.119   2.094  10.932
23981SOL     OW73949   3.628   5.184   8.679
23981SOL    HW173950   3.723   5.175   8.671
23981SOL    HW273951   3.613  -5.845  19.812
23982SOL     OW73952   4.818   0.094   8.428
23982SOL    HW173953   4.768  22.112  30.453
23982SOL    HW273954   4.833  11.087   8.509
23983SOL     OW73955   2.248   8.469   8.612
23983SOL    HW173956   2.295   8.524   8.549
23983SOL    HW273957   2.156   8.493  19.639
23984SOL     OW73958   2.768   3.382   4.657
23984SOL    HW173959   2.856   3.401   4.625
23984SOL    HW273960  -8.263   3.381   4.752
23985SOL     OW73961  -0.027   8.335  11.407
23985SOL    HW173962   0.002   8.403 -10.610
23985SOL    HW273963  11.020  -2.786  11.456
23986SOL     OW73964   2.664   3.092   5.631
23986SOL    HW173965   2.579   3.067   5.667
23986SOL    HW273966   2.643   3.145   5.555
23987SOL     OW73967  -2.792   9.095   6.657
23987SOL    HW173968  19.337   9.065 -15.498
23987SOL    HW273969  41.414  -1.869  17.729
23988SOL     OW73970   3.093  10.535   1.747
23988SOL    HW173971 -19.066  10.555  12.738
23988SOL    HW273972  -7.889  10.493   1.683
23989SOL     OW73973   2.672   8.205   2.421
23989SOL    HW173974   2.694   8.112   2.419
23989SOL    HW273975  13.773   8.246   2.361
23990SOL     OW73976   7.608   6.518   4.216
23990SOL    HW173977   7.554   6.443  15.232
23990SOL    HW273978   7.696   6.494   4.187
23991SOL     OW73979   2.463  11.170   4.891
23991SOL    HW173980   2.544 -10.949   4.859
23991SOL    HW273981   2.397  11.146   4.826
23992SOL     OW73982   7.003   6.630  10.069
23992SOL    HW173983   6.951   6.704  10.101
23992SOL    HW273984   7.049   6.665  21.031
23993SOL     OW73985   0.663   6.942   7.284
23993SOL    HW173986  11.634   6.886   7.321
23993SOL    HW273987 -21.461   6.993  -3.823
23994SOL     OW73988  11.257   0.204  11.411
23994SOL    HW173989   0.155   0.185  11.341
23994SOL    HW273990  11.291   0.291   0.350
23995SOL     OW73991  -0.673   3.335   7.505
23995SOL    HW173992  -0.682   3.340   7.600
23995SOL    HW273993  32.513  14.440   7.483
23996SOL     OW73994  10.857   9.708   4.871
23996SOL    HW173995  10.786   9.772   4.863
23996SOL    HW273996  -0.120   9.750   4.931
23997SOL     OW73997   0.403   8.359   7.811
23997SOL    HW173998   0.328  52.576  18.848
23997SOL    HW273999   0.463   8.399   7.873
23998SOL     OW74000   8.041   2.806   9.438
23998SOL    HW174001   8.118   2.860   9.458
23998SOL    HW274002   8.072  24.795   9.450
23999SOL     OW74003   9.065   3.621   6.406
23999SOL    HW174004   9.041   3.700   6.453
23999SOL    HW274005   9.051  -7.397   6.314
24000SOL     OW74006   0.642   8.516   8.612
24000SOL    HW174007 -10.451   8.578   8.563
24000SOL    HW274008   0.712   8.568  19.689
24001SOL     OW74009   4.713   7.487   5.951
24001SOL    HW174010   4.697  -3.646   5.964
24001SOL    HW274011  15.746  -3.540   5.857
24002SOL     OW74012   9.158   0.837   7.926
24002SOL    HW174013   9.104   0.906   7.964
24002SOL    HW274014   9.237   0.836   7.979
24003SOL     OW74015   7.762   1.743   3.280
24003SOL    HW174016   7.682   1.794   3.273
24003SOL    HW274017   7.734   1.660   3.318
24004SOL     OW74018  11.070   7.397   8.970
24004SOL    HW174019  10.996   7.450   9.000
24004SOL    HW274020 -33.128   7.331   8.913
24005SOL     OW74021   1.077   6.812   8.559
24005SOL    HW174022   1.150  -4.165   8.559
24005SOL    HW274023   1.118   6.727   8.570
24006SOL     OW74024   0.610   5.871   3.225
24006SOL    HW174025   0.583   5.815   3.298
24006SOL    HW274026  33.721   5.960   3.260
24007SOL     OW74027   0.800   0.534   4.991
24007SOL    HW174028   0.755  22.654   5.065
24007SOL    HW274029 -10.278   0.447   4.985
24008SOL     OW74030   5.503  -0.381  10.838
24008SOL    HW174031   5.580  10.670  10.894
24008SOL    HW274032  -5.558  -0.293  10.807
24009SOL     OW74033   9.816  10.123   8.818
24009SOL    HW174034  20.846  10.043   8.766
24009SOL    HW274035   9.815 -11.885   8.754
24010SOL     OW74036   6.035   8.142   3.266
24010SOL    HW174037   6.116   8.131  25.394
24010SOL    HW274038  -5.005 -13.846   3.239
24011SOL     OW74039   3.193   7.199   6.670
24011SOL    HW174040   3.182   7.291  -4.348
24011SOL    HW274041 -41.043   7.157   6.707
24012SOL     OW74042   9.641   9.179   4.439
24012SOL    HW174043   9.725   9.134   4.447
24012SOL    HW274044  -1.381   9.255   4.384
24013SOL     OW74045   8.246   3.576   3.027
24013SOL    HW174046  -2.827  14.548   2.967
24013SOL    HW274047 -13.742   3.551   3.042
24014SOL     OW74048  10.356  10.097   3.452
24014SOL    HW174049  10.290  10.027  -7.588
24014SOL    HW274050  -0.620  -0.969   3.386
24015SOL     OW74051   2.008   4.023   6.477
24015SOL    HW174052   1.915   4.044   6.462
24015SOL    HW274053   2.054   4.071  17.448
24016SOL     OW74054   2.449   2.896   1.008
24016SOL    HW174055  35.638   2.875   1.069
24016SOL    HW274056  24.455  -8.117   1.065
24017SOL     OW74057   8.990   4.495   6.749
24017SOL    HW174058  -2.028   4.512   6.841
24017SOL    HW274059  -2.077   4.581   6.715
24018SOL     OW74060  11.094   7.394   8.206
24018SOL    HW174061  11.147  18.366   8.248
24018SOL    HW274062 -22.070   7.348  19.175
24019SOL     OW74063  10.988   3.932  10.781
24019SOL    HW174064  10.942   4.014  10.799
24019SOL    HW274065  11.026   3.907  10.865
24020SOL     OW74066   1.402   3.989   7.523
24020SOL    HW174067   1.474   3.929  -3.499
24020SOL    HW274068   1.332   3.961 -14.499
24021SOL     OW74069   5.027   9.679   1.788
24021SOL    HW174070 -16.983   9.620  23.896
24021SOL    HW274071 -17.048   9.753  12.888
24022SOL     OW74072   1.915   7.947   3.162
24022SOL    HW174073   1.874   7.900   3.090
24022SOL    HW274074  35.110  30.069   3.122
24023SOL     OW74075   8.900  10.824   4.678
24023SOL    HW174076  -2.078  10.891   4.709
24023SOL    HW274077  19.995  10.751   4.650
24024SOL     OW74078   5.406   6.148   2.070
24024SOL    HW174079  16.439   6.103   2.155
24024SOL    HW274080   5.495  -4.910  13.080
24025SOL     OW74081  10.653  -0.818   4.202
24025SOL    HW174082  10.665  21.247   4.108
24025SOL    HW274083  10.577  21.207   4.224
24026SOL     OW74084   3.717   6.910   5.271
24026SOL    HW174085   3.654   6.974   5.238
24026SOL    HW274086  -7.320   6.843 -16.876
24027SOL     OW74087   7.332  10.544   9.269
24027SOL    HW174088   7.370 -22.501   9.221
24027SOL    HW274089   7.406  21.547   9.318
24028SOL     OW74090   9.216   1.364  -0.524
24028SOL    HW174091  20.194   1.385  10.446
24028SOL    HW274092  -1.763   1.437  -0.523
24029SOL     OW74093   0.713   4.082   9.462
24029SOL    HW174094   0.723   3.989   9.479
24029SOL    HW274095 -10.372   4.086 -12.701
24030SOL     OW74096   0.302   4.865   7.311
24030SOL    HW174097   0.331   4.774  29.392
24030SOL    HW274098   0.223   4.866  18.405
24031SOL     OW74099   5.415   0.557   1.254
24031SOL    HW174100   5.413   0.649   1.278
24031SOL    HW274101   5.508   0.535 -20.831
24032SOL     OW74102  10.235   8.413   6.728
24032SOL    HW174103  10.313   8.412   6.671
24032SOL    HW274104  -0.769   8.429  17.855
24033SOL     OW74105   1.685   8.227  10.262
24033SOL    HW174106  -9.342   8.132 -11.825
24033SOL    HW274107  -9.322   8.262  10.180
24034SOL     OW74108   5.437   7.077   7.803
24034SOL    HW174109 -16.671   7.021  18.771
24034SOL    HW274110   5.367   7.142   7.813
24035SOL     OW74111   2.861   3.481   2.847
24035SOL    HW174112   2.922   3.526   2.789
24035SOL    HW274113 -19.185   3.500   2.935
24036SOL     OW74114  11.125   3.850  11.003
24036SOL    HW174115   0.093   3.901 -22.035
24036SOL    HW274116  11.213   3.850  10.965
24037SOL     OW74117   6.016   1.519   2.229
24037SOL    HW174118   5.967  12.593   2.304
24037SOL    HW274119   5.997   1.581   2.159
24038SOL     OW74120   7.419   6.435   2.686
24038SOL    HW174121  -3.636   6.467   2.775
24038SOL    HW274122   7.333   6.438 -30.475
24039SOL     OW74123   3.407   1.435   2.061
24039SOL    HW174124 -18.758   1.452   2.100
24039SOL    HW274125   3.430   1.516   2.017
24040SOL     OW74126   4.978   3.463   4.615
24040SOL    HW174127   4.928  14.513   4.695
24040SOL    HW274128   5.010   3.551   4.595
24041SOL     OW74129   9.057   4.941   8.255
24041SOL    HW174130   9.019   4.965   8.339
24041SOL    HW274131  31.216 -17.085 -13.831
24042SOL     OW74132   8.960   5.098   9.801
24042SOL    HW174133   9.003  -6.025   9.781
24042SOL    HW274134   8.868   5.083   9.780
24043SOL     OW74135   6.167   0.553   9.430
24043SOL    HW174136  -4.850  11.672   9.383
24043SOL    HW274137   6.141   0.491   9.362
24044SOL     OW74138   2.376   4.137   7.854
24044SOL    HW174139   2.315   4.209  40.956
24044SOL    HW274140   2.342   4.094   7.932
24045SOL     OW74141  11.499  10.445   1.178
24045SOL    HW174142   0.408  -0.631   1.251
24045SOL    HW274143  11.464  -0.506   1.167
24046SOL     OW74144   1.130   1.544   1.207
24046SOL    HW174145   1.177   1.593   1.139
24046SOL    HW274146   1.198  12.550   1.265
24047SOL     OW74147   6.095   3.764   7.707
24047SOL    HW174148   6.115  14.779  -3.423
24047SOL    HW274149   6.174  14.846 -14.340
24048SOL     OW74150   9.201   7.539   4.300
24048SOL    HW174151   9.144 -14.610   4.267
24048SOL    HW274152  20.229 -36.548   4.236
24049SOL     OW74153   1.605   3.726   2.766
24049SOL    HW174154   1.520   3.715   2.808
24049SOL    HW274155   1.644   3.639   2.767
24050SOL     OW74156   9.857   6.171   0.532
24050SOL    HW174157   9.784 -15.922   0.592
24050SOL    HW274158   9.933   6.183   0.589
24051SOL     OW74159   7.703   1.948  11.149
24051SOL    HW174160   7.610   1.950  11.129
24051SOL    HW274161   7.737   2.030   0.075
24052SOL     OW74162   0.550   2.470   2.416
24052SOL    HW174163   0.629  35.556   2.460
24052SOL    HW274164  11.623   2.519   2.340
24053SOL     OW74165   6.216   2.718   9.500
24053SOL    HW174166  28.378   2.721   9.451
24053SOL    HW274167  17.244   2.807  20.572
24054SOL     OW74168   8.462   4.146   4.269
24054SOL    HW174169   8.455  -6.883   4.174
24054SOL    HW274170   8.393   4.203   4.305
24055SOL     OW74171   5.713   8.474   0.632
24055SOL    HW174172  -5.370 -13.573   0.554
24055SOL    HW274173   5.683   8.533   0.702
24056SOL     OW74174   8.524   6.256  -0.821
24056SOL    HW174175   8.521 -26.770  32.324
24056SOL    HW274176   8.586   6.255  -0.895
24057SOL     OW74177  10.430   4.439   7.259
24057SOL    HW174178  10.428   4.417   7.165
24057SOL    HW274179  10.417   4.534   7.261
24058SOL     OW74180   7.734   4.723  11.722
24058SOL    HW174181  29.889   4.780 -10.342
24058SOL    HW274182  -3.306  -6.377  11.797
24059SOL     OW74183   4.688   0.281   6.955
24059SOL    HW174184   4.604   0.255   6.994
24059SOL    HW274185   4.699   0.220   6.882
24060SOL     OW74186   6.485   7.642   1.628
24060SOL    HW174187  28.634   7.613 -20.392
24060SOL    HW274188  17.473   7.704   1.680
24061SOL     OW74189   6.357   3.419   6.552
24061SOL    HW174190 -15.806   3.445   6.513
24061SOL    HW274191   6.421   3.433   6.483
24062SOL     OW74192   3.429   9.103   3.882
24062SOL    HW174193   3.428   9.061   3.796
24062SOL    HW274194  25.429   9.070   3.926
24063SOL     OW74195   7.147   5.630   2.305
24063SOL    HW174196  -3.908   5.669   2.218
24063SOL    HW274197   7.152  -5.504  -8.751
24064SOL     OW74198  11.649  11.399   7.367
24064SOL    HW174199 -10.367 -21.668 -14.762
24064SOL    HW274200  11.696  11.372  -3.594
24065SOL     OW74201  10.619  10.905  10.709
24065SOL    HW174202  10.563  10.865  10.775
24065SOL    HW274203  10.614  10.847  -0.406
24066SOL     OW74204  11.135   8.070  10.166
24066SOL    HW174205   0.125   8.135  10.230
24066SOL    HW274206  11.209   8.060  10.106
24067SOL     OW74207   5.914   1.190   5.048
24067SOL    HW174208   5.865   1.175   4.967
24067SOL    HW274209  -5.123   1.285   5.057
24068SOL     OW74210   7.240   5.595   7.464
24068SOL    HW174211 -14.757   5.550 -14.594
24068SOL    HW274212  18.218  -5.474   7.532
24069SOL     OW74213   8.036   8.295  -0.615
24069SOL    HW174214   8.093   8.219  10.408
24069SOL    HW274215   7.948  19.299  -0.622
24070SOL     OW74216   6.059   2.264   7.595
24070SOL    HW174217   5.964 -30.859   7.602
24070SOL    HW274218  17.123   2.341   7.646
24071SOL     OW74219   7.669   8.474   5.300
24071SOL    HW174220   7.752   8.427  -5.730
24071SOL    HW274221   7.605  19.459   5.346
24072SOL     OW74222  11.474   1.009   3.049
24072SOL    HW174223 -10.562  12.068   2.966
24072SOL    HW274224  11.397   1.066   3.049
24073SOL     OW74225   8.461   6.736   1.444
24073SOL    HW174226  19.449  17.777  12.564
24073SOL    HW274227   8.399   6.712   1.376
24074SOL     OW74228   7.081   7.169   5.646
24074SOL    HW174229   7.147   7.207   5.589
24074SOL    HW274230   6.998 -14.874   5.615
24075SOL     OW74231   0.428   0.820   1.356
24075SOL    HW174232   0.475   0.895 -20.761
24075SOL    HW274233   0.372   0.859   1.423
24076SOL     OW74234   4.272   1.545   1.506
24076SOL    HW174235   4.194   1.525   1.455
24076SOL    HW274236   4.243   1.542  -9.443
24077SOL     OW74237   0.907   4.986   2.135
24077SOL    HW174238  11.890  26.988   2.128
24077SOL    HW274239  11.914  16.085   2.066
24078SOL     OW74240   4.291  10.434   9.508
24078SOL    HW174241 -28.852  10.353  -1.488
24078SOL    HW274242   4.305  10.496   9.579
24079SOL     OW74243   6.006   3.017   7.628
24079SOL    HW174244 -16.009   3.029  18.737
24079SOL    HW274245  -5.028   2.924  29.685
24080SOL     OW74246   2.939  -1.023   6.036
24080SOL    HW174247  25.003  21.149 -16.026
24080SOL    HW274248   2.934  -1.064  17.161
24081SOL     OW74249  10.111   4.279   0.054
24081SOL    HW174250  10.186   4.304   0.107
24081SOL    HW274251  10.057   4.358   0.051
24082SOL     OW74252   3.630   2.568   0.711
24082SOL    HW174253  -7.378   2.545  22.878
24082SOL    HW274254   3.699   2.537   0.652
24083SOL     OW74255   8.655   3.843   3.109
24083SOL    HW174256   8.693  14.798  36.204
24083SOL    HW274257   8.730   3.898   3.132
24084SOL     OW74258   1.556   6.765   6.210
24084SOL    HW174259   1.578  39.795   6.182
24084SOL    HW274260   1.639   6.803   6.237
24085SOL     OW74261   1.907   8.932   9.747
24085SOL    HW174262   1.957   8.942  20.705
24085SOL    HW274263  12.857  -2.085   9.723
24086SOL     OW74264  10.014   5.767   3.154
24086SOL    HW174265  10.075 -16.240   3.136
24086SOL    HW274266   9.983  -5.256   3.243
24087SOL     OW74267   6.284   9.081   4.218
24087SOL    HW174268  17.230   9.072   4.200
24087SOL    HW274269   6.291   9.067   4.313
24088SOL     OW74270   5.445   0.186   7.129
24088SOL    HW174271   5.401   0.102  18.152
24088SOL    HW274272   5.510  11.206  29.275
24089SOL     OW74273  10.468   5.361   7.882
24089SOL    HW174274  10.443   5.453  18.915
24089SOL    HW274275  10.478   5.346 -14.103
24090SOL     OW74276   6.505  -0.557   0.496
24090SOL    HW174277  17.521  -0.504   0.572
24090SOL    HW274278 -15.636  10.409   0.498
24091SOL     OW74279  -1.010   7.048  11.001
24091SOL    HW174280  10.074   7.114  10.948
24091SOL    HW274281   9.936   7.068  10.991
24092SOL     OW74282   2.925   2.149  10.884
24092SOL    HW174283 -19.097   2.089  -0.204
24092SOL    HW274284   2.966   2.234  10.873
24093SOL     OW74285   7.697  10.679   2.249
24093SOL    HW174286  18.822  10.639   2.263
24093SOL    HW274287 -14.376  10.765  13.329
24094SOL     OW74288   7.533   2.665   5.912
24094SOL    HW174289  18.601  -8.375   6.004
24094SOL    HW274290   7.586   2.734   5.872
24095SOL     OW74291   8.509  10.914  -1.132
24095SOL    HW174292  19.600  10.885  20.871
24095SOL    HW274293  19.609  10.907  -1.058
24096SOL     OW74294   5.540   2.020   1.106
24096SOL    HW174295   5.512  -9.074   1.032
24096SOL    HW274296   5.482  13.032   1.178
24097SOL     OW74297   9.563  10.794   3.061
24097SOL    HW174298   9.515  10.775  -7.898
24097SOL    HW274299   9.580  10.708   3.022
24098SOL     OW74300  10.496   1.485   4.385
24098SOL    HW174301  10.566   1.542  26.434
24098SOL    HW274302  10.502  -9.551   4.481
24099SOL     OW74303   5.595   4.331   4.981
24099SOL    HW174304   5.686 -17.735  -6.034
24099SOL    HW274305   5.596   4.335  -6.155
24100SOL     OW74306   7.088   1.910   3.425
24100SOL    HW174307   7.088   1.852  -7.691
24100SOL    HW274308   7.037   1.986   3.397
24101SOL     OW74309   0.995   2.605   6.806
24101SOL    HW174310   0.901   2.590   6.805
24101SOL    HW274311  12.053   2.636   6.894
24102SOL     OW74312   5.975   4.316   4.093
24102SOL    HW174313   5.901   4.353   4.142
24102SOL    HW274314  -5.097   4.307   4.004
24103SOL     OW74315   1.454  10.396  11.382
24103SOL    HW174316  23.582  10.332  11.433
24103SOL    HW274317   1.522  -0.593 -10.742
24104SOL     OW74318   0.634   6.450   4.095
24104SOL    HW174319   0.634   6.358   4.069
24104SOL    HW274320   0.575  -4.547  15.073
24105SOL     OW74321   9.067   2.678  -0.476
24105SOL    HW174322   9.146   2.655  21.651
24105SOL    HW274323   9.065   2.774  -0.474
24106SOL     OW74324  11.787  -0.246  12.649
24106SOL    HW174325   0.793  10.728 -20.523
24106SOL    HW274326   0.784  -0.163  -9.461
24107SOL     OW74327  -1.121  10.846  10.404
24107SOL    HW174328   9.982  10.790  10.360
24107SOL    HW274329   9.939  10.934  -0.668
24108SOL     OW74330   0.118   9.840   0.575
24108SOL    HW174331   0.157   9.766   0.528
24108SOL    HW274332   0.067  20.839   0.645
24109SOL     OW74333   7.766   7.771   9.070
24109SOL    HW174334   7.815   7.849   9.046
24109SOL    HW274335   7.702   7.803   9.134
24110SOL     OW74336   8.227   7.484   5.472
24110SOL    HW174337   8.293  18.458   5.452
24110SOL    HW274338  19.195   7.465   5.411
24111SOL     OW74339   7.600   8.988   4.150
24111SOL    HW174340   7.668   8.926   4.173
24111SOL    HW274341  29.720   9.045   4.085
24112SOL     OW74342   8.298   9.522   3.476
24112SOL    HW174343   8.300 -12.486 -18.667
24112SOL    HW274344   8.380  -1.565   3.462
24113SOL     OW74345  10.911  -0.637   3.677
24113SOL    HW174346  10.936  21.424   3.768
24113SOL    HW274347  10.892  -0.723   3.640
24114SOL     OW74348   3.732   8.036   1.377
24114SOL    HW174349  -7.267   8.111   1.334
24114SOL    HW274350 -18.277   7.999  -9.608
24115SOL     OW74351   2.036   5.213   9.723
24115SOL    HW174352  13.104  27.202   9.711
24115SOL    HW274353  13.088   5.230   9.816
24116SOL     OW74354  10.093   5.511   2.372
24116SOL    HW174355  21.050 -16.531 -19.675
24116SOL    HW274356  10.158  -5.460   2.388
24117SOL     OW74357  10.948   5.901   0.116
24117SOL    HW174358  -0.147   5.865  11.225
24117SOL    HW274359  11.031 -16.227  11.163
24118SOL     OW74360   4.155   4.075   3.599
24118SOL    HW174361  -6.833   4.153   3.580
24118SOL    HW274362   4.199   4.034 -18.405
24119SOL     OW74363   5.393  10.218   3.024
24119SOL    HW174364  -5.558  10.218  25.140
24119SOL    HW274365   5.391 -11.784   2.967
24120SOL     OW74366   9.018   5.532   3.778
24120SOL    HW174367   8.965   5.463  14.857
24120SOL    HW274368   8.993  -5.507   3.686
24121SOL     OW74369   1.755   5.226   9.758
24121SOL    HW174370   1.844  -5.820   9.724
24121SOL    HW274371   1.711   5.286  -1.342
24122SOL     OW74372   7.633   7.627  10.809
24122SOL    HW174373  40.710  18.701  -0.152
24122SOL    HW274374  18.765  -3.390  10.819
24123SOL     OW74375   9.159   3.933   8.277
24123SOL    HW174376   9.214   3.856  30.373
24123SOL    HW274377   9.220  -7.040  30.325
24124SOL     OW74378   5.764   3.459   8.423
24124SOL    HW174379  38.796   3.435   8.455
24124SOL    HW274380   5.791   3.532  -2.561
24125SOL     OW74381   5.943   0.505   5.557
24125SOL    HW174382  -5.128   0.499  -5.392
24125SOL    HW274383  17.055  11.607   5.560
24126SOL     OW74384   3.561  10.390  10.155
24126SOL    HW174385   3.626 -11.636  10.109
24126SOL    HW274386   3.507 -33.807  10.086
24127SOL     OW74387   6.633   0.832   2.592
24127SOL    HW174388   6.614   0.905   2.651
24127SOL    HW274389   6.728   0.834   2.580
24128SOL     OW74390  -0.078   4.734   5.328
24128SOL    HW174391  -0.078  -6.250   5.407
24128SOL    HW274392  10.878   4.689   5.330
24129SOL     OW74393   6.927   7.182   6.134
24129SOL    HW174394  -4.039   7.222   6.179
24129SOL    HW274395   6.967  18.161  -4.969
24130SOL     OW74396  11.360  -0.344   1.118
24130SOL    HW174397   0.241  21.686   1.140
24130SOL    HW274398  11.379  21.786   1.196
24131SOL     OW74399   3.981  -0.425   6.292
24131SOL    HW174400  14.941  21.695   6.257
24131SOL    HW274401   4.000  -0.377   6.373
24132SOL     OW74402   2.639  10.007   1.168
24132SOL    HW174403   2.709  10.067   1.139
24132SOL    HW274404  13.724 -23.192   1.190
24133SOL     OW74405  10.376   6.070   5.642
24133SOL    HW174406  10.334   6.154   5.623
24133SOL    HW274407  21.348   6.019   5.685
24134SOL     OW74408   6.767  10.657   7.780
24134SOL    HW174409 -15.373  10.726   7.752
24134SOL    HW274410   6.732  10.578   7.739
24135SOL     OW74411   8.338   1.277   6.440
24135SOL    HW174412   8.304  -9.772  -4.511
24135SOL    HW274413   8.424  -9.722   6.450
24136SOL     OW74414   7.319   8.422   1.612
24136SOL    HW174415   7.302   8.336   1.573
24136SOL    HW274416   7.343   8.478   1.539
24137SOL     OW74417   7.816   1.282   7.651
24137SOL    HW174418 -14.266   1.337 -14.351
24137SOL    HW274419   7.904   1.293 -14.463
24138SOL     OW74420   7.443   4.471   6.490
24138SOL    HW174421   7.394   4.451   6.569
24138SOL    HW274422 -14.648   4.565  17.517
24139SOL     OW74423  10.451   9.507   1.659
24139SOL    HW174424  10.471   9.442   1.727
24139SOL    HW274425  10.410   9.456   1.589
24140SOL     OW74426   2.808   3.328   8.558
24140SOL    HW174427   2.778   3.256   8.614
24140SOL    HW274428  13.779   3.338  -2.547
24141SOL     OW74429   3.768   7.210   1.399
24141SOL    HW174430   3.768   7.128  -9.591
24141SOL    HW274431   3.857  -3.823   1.364
24142SOL     OW74432  11.431   9.488  10.092
24142SOL    HW174433 -32.642  20.568  10.107
24142SOL    HW274434   0.403  20.437  10.121
24143SOL     OW74435   8.946   6.148   3.324
24143SOL    HW174436   8.983   6.073   3.277
24143SOL    HW274437   8.871   6.174   3.271
24144SOL     OW74438   4.038   8.486   9.509
24144SOL    HW174439   4.100   8.516   9.444
24144SOL    HW274440   4.002  -2.635   9.472
24145SOL     OW74441   0.074   2.594   2.201
24145SOL    HW174442   0.048  13.724  -8.857
24145SOL    HW274443  -0.008   2.550  -8.816
24146SOL     OW74444   9.666   2.351   0.682
24146SOL    HW174445   9.647   2.336   0.775
24146SOL    HW274446   9.595   2.408  11.691
24147SOL     OW74447   5.951   1.849   4.242
24147SOL    HW174448 -16.077   1.883   4.316
24147SOL    HW274449   6.016  23.907   4.176
24148SOL     OW74450   3.533   5.028   3.975
24148SOL    HW174451   3.489   5.000   4.054
24148SOL    HW274452   3.625   5.039   4.001
24149SOL     OW74453   8.597   0.911   5.111
24149SOL    HW174454  19.547   0.886  16.170
24149SOL    HW274455  19.690   0.861   5.173
24150SOL     OW74456   2.271   2.857   8.530
24150SOL    HW174457   2.248   2.858   8.437
24150SOL    HW274458   2.252   2.945   8.561
24151SOL     OW74459   7.108   8.300  10.165
24151SOL    HW174460   7.198   8.272  10.179
24151SOL    HW274461   7.116   8.386  -0.916
24152SOL     OW74462   8.948  11.883   6.594
24152SOL    HW174463 -13.169  11.950   6.651
24152SOL    HW274464 -13.101 -10.147  -4.522
24153SOL     OW74465   5.849  -0.678  10.736
24153SOL    HW174466   5.914  21.418  10.804
24153SOL    HW274467   5.859  -0.605  -0.365
24154SOL     OW74468   1.272   9.911   5.644
24154SOL    HW174469   1.315   9.906 -16.350
24154SOL    HW274470 -20.754 -12.105   5.594
24155SOL     OW74471   8.561   6.543   2.840
24155SOL    HW174472 -24.526  -4.415   2.801
24155SOL    HW274473   8.590  -4.565   2.779
24156SOL     OW74474   4.140   4.250   6.597
24156SOL    HW174475   4.215  15.239   6.628
24156SOL    HW274476   4.174   4.299   6.522
24157SOL     OW74477   3.601   0.636  10.980
24157SOL    HW174478   3.574   0.694  10.909
24157SOL    HW274479   3.560   0.552  10.960
24158SOL     OW74480   4.145   3.919  10.622
24158SOL    HW174481   4.238  -7.106  10.608
24158SOL    HW274482  15.181  -7.183  -0.344
24159SOL     OW74483   8.854   8.901  10.350
24159SOL    HW174484 -46.438   8.887  21.398
24159SOL    HW274485   8.863  -2.043  10.356
24160SOL     OW74486  11.036  11.081   4.736
24160SOL    HW174487  10.986 -22.094   4.796
24160SOL    HW274488  11.040 -11.047  -6.385
24161SOL     OW74489   6.989   1.010   3.551
24161SOL    HW174490   7.065   1.065   3.570
24161SOL    HW274491 -15.084  11.979   3.615
24162SOL     OW74492   1.830   2.115   6.641
24162SOL    HW174493   1.870  24.117  17.639
24162SOL    HW274494  -9.175   2.189   6.592
24163SOL     OW74495   5.505   1.324   1.649
24163SOL    HW174496  -5.607   1.386  -9.403
24163SOL    HW274497 -16.495   1.377  12.683
24164SOL     OW74498   3.415   6.492   0.386
24164SOL    HW174499   3.355   6.425   0.419
24164SOL    HW274500   3.359   6.551   0.335
24165SOL     OW74501   1.793   3.849   9.357
24165SOL    HW174502   1.744  -7.133  20.456
24165SOL    HW274503   1.844   3.792  -1.625
24166SOL     OW74504   7.005  10.458   7.047
24166SOL    HW174505   7.072  10.448   7.114
24166SOL    HW274506   6.996  10.371   7.008
24167SOL     OW74507   2.046   3.672  -0.409
24167SOL    HW174508   2.064   3.695  -0.318
24167SOL    HW274509  24.125   3.756  10.584
24168SOL     OW74510   6.396   7.959   5.993
24168SOL    HW174511   6.420  19.037  17.117
24168SOL    HW274512   6.338   7.886   6.014
24169SOL     OW74513   7.513  13.266   6.108
24169SOL    HW174514   7.535 -19.794   6.036
24169SOL    HW274515   7.563  -8.893  -4.950
24170SOL     OW74516   0.730   2.498   4.172
24170SOL    HW174517   0.777   2.550   4.106
24170SOL    HW274518  11.838   2.450  15.258
24171SOL     OW74519   8.677   6.175   0.298
24171SOL    HW174520  -2.365   6.086   0.262
24171SOL    HW274521  -2.347   6.231   0.223
24172SOL     OW74522  10.640   7.319   1.362
24172SOL    HW174523  10.723   7.352   1.395
24172SOL    HW274524  10.658 -14.851   1.337
24173SOL     OW74525   9.695   4.911   9.330
24173SOL    HW174526   9.709   4.983   9.391
24173SOL    HW274527   9.602  -6.151  -1.700
24174SOL     OW74528  10.100   4.104   3.649
24174SOL    HW174529  10.101  15.177   3.738
24174SOL    HW274530  -1.001   4.161  25.682
24175SOL     OW74531   1.427   3.648   4.359
24175SOL    HW174532   1.493  -7.451   4.394
24175SOL    HW274533   1.477   3.720   4.322
24176SOL     OW74534   1.018   1.011   4.497
24176SOL    HW174535   1.033   1.104   4.513
24176SOL    HW274536   0.952   1.009  -6.612
24177SOL     OW74537   5.480   9.410   3.289
24177SOL    HW174538   5.485   9.366  -7.835
24177SOL    HW274539   5.571   9.414   3.319
24178SOL     OW74540   9.884  11.406   3.735
24178SOL    HW174541   9.860   0.277   3.711
24178SOL    HW274542   9.941  11.436   3.665
24179SOL     OW74543  10.158   9.130   4.628
24179SOL    HW174544  10.099   9.174  -6.351
24179SOL    HW274545  -0.855   9.050  -6.366
24180SOL     OW74546   3.694   6.973   9.523
24180SOL    HW174547   3.610   6.951   9.563
24180SOL    HW274548   3.724   6.891   9.485
24181SOL     OW74549   8.501   3.257  10.881
24181SOL    HW174550  -2.521   3.338  10.928
24181SOL    HW274551   8.484  -7.848  10.949
24182SOL     OW74552   6.668   9.707   3.235
24182SOL    HW174553   6.692   9.800  14.273
24182SOL    HW274554   6.613   9.699   3.313
24183SOL     OW74555   2.253   7.478   5.731
24183SOL    HW174556   2.192   7.431   5.788
24183SOL    HW274557   2.339   7.455   5.764
24184SOL     OW74558   9.635   4.309   0.651
24184SOL    HW174559 -23.446  26.407   0.736
24184SOL    HW274560   9.560   4.368   0.643
24185SOL     OW74561   2.408  11.093   6.408
24185SOL    HW174562   2.427   0.029 -15.762
24185SOL    HW274563   2.448   0.140   6.417
24186SOL     OW74564   0.725   8.744   0.272
24186SOL    HW174565   0.671   8.664  11.314
24186SOL    HW274566   0.795 -13.356   0.210
24187SOL     OW74567   0.091   6.620   6.846
24187SOL    HW174568   0.161  -4.472   6.807
24187SOL    HW274569   0.081   6.583  17.974
24188SOL     OW74570  10.572   1.442  10.513
24188SOL    HW174571  10.518   1.431  10.435
24188SOL    HW274572  10.573  -9.684  10.554
24189SOL     OW74573   8.390   5.864   9.551
24189SOL    HW174574 -13.649 -27.198   9.484
24189SOL    HW274575   8.296  -5.169  -1.504
24190SOL     OW74576   9.002   6.442   8.723
24190SOL    HW174577   8.932   6.469   8.663
24190SOL    HW274578  -2.054   6.349   8.739
24191SOL     OW74579   2.983   9.621   4.480
24191SOL    HW174580   2.903  42.768   4.525
24191SOL    HW274581   2.952 -12.494   4.396
24192SOL     OW74582   2.216   3.819   8.583
24192SOL    HW174583   2.251   3.903   8.615
24192SOL    HW274584  13.269   3.822   8.488
24193SOL     OW74585   0.782  11.935  10.186
24193SOL    HW174586  11.799  11.950  -0.762
24193SOL    HW274587  22.776 -21.186  10.141
24194SOL     OW74588   9.424   0.622   6.867
24194SOL    HW174589  20.532   0.603  17.842
24194SOL    HW274590   9.367   0.686  17.863
24195SOL     OW74591   0.376   4.597   7.345
24195SOL    HW174592   0.294 -17.501   7.391
24195SOL    HW274593   0.375  26.620  18.308
24196SOL     OW74594   9.677   5.053   8.335
24196SOL    HW174595   9.599 -17.081  30.406
24196SOL    HW274596   9.703   5.071  -2.795
24197SOL     OW74597  11.321   3.306   3.348
24197SOL    HW174598  11.295   3.308   3.256
24197SOL    HW274599 -32.768   3.240   3.352
24198SOL     OW74600   1.386   3.979   8.951
24198SOL    HW174601   1.421   3.934   8.874
24198SOL    HW274602  23.403   3.916   8.989
24199SOL     OW74603   7.985   9.877  10.383
24199SOL    HW174604   7.920   9.826  10.431
24199SOL    HW274605   8.047   9.906  10.450
24200SOL     OW74606   1.106   5.071  10.633
24200SOL    HW174607   1.167   5.141  10.658
24200SOL    HW274608   1.163  -6.041  10.607
24201SOL     OW74609   9.859   5.292   4.358
24201SOL    HW174610   9.854  16.319  -6.586
24201SOL    HW274611  -1.090   5.269   4.336
24202SOL     OW74612   6.900   6.376   7.530
24202SOL    HW174613   6.833   6.396   7.595
24202SOL    HW274614  -4.166   6.292   7.492
24203SOL     OW74615   9.017   1.105   5.433
24203SOL    HW174616   8.956   1.032   5.427
24203SOL    HW274617   9.056   1.097 -16.560
24204SOL     OW74618   9.895   9.421   5.587
24204SOL    HW174619   9.962   9.485  27.687
24204SOL    HW274620  20.909   9.442   5.497
24205SOL     OW74621   4.276   7.227   8.337
24205SOL    HW174622   4.336  -3.884   8.316
24205SOL    HW274623  -6.707  18.343  -2.691
24206SOL     OW74624   8.876   4.262  11.454
24206SOL    HW174625   8.941   4.291  11.518
24206SOL    HW274626   8.798  -6.799 -21.612
24207SOL     OW74627   6.545   3.154  11.140
24207SOL    HW174628   6.566   3.148  11.233
24207SOL    HW274629   6.626 -29.933   0.060
24208SOL     OW74630   9.417   3.642   1.906
24208SOL    HW174631   9.451   3.575   1.965
24208SOL    HW274632   9.483   3.650   1.837
24209SOL     OW74633   4.074   4.971   5.408
24209SOL    HW174634   4.030  38.006  -5.646
24209SOL    HW274635   4.057   5.020   5.327
24210SOL     OW74636   6.152   0.154   5.666
24210SOL    HW174637   6.109  11.231  27.668
24210SOL    HW274638   6.129   0.062  -5.375
24211SOL     OW74639   4.366  11.536   2.996
24211SOL    HW174640   4.288  22.557   2.944
24211SOL    HW274641   4.399 -10.460   2.961
24212SOL     OW74642   5.730  -1.275   3.189
24212SOL    HW174643   5.682  31.886   3.260
24212SOL    HW274644   5.743   9.674   3.220
24213SOL     OW74645   7.291   6.995   3.860
24213SOL    HW174646   7.381   6.996   3.892
24213SOL    HW274647  -3.786   7.078   3.891
24214SOL     OW74648  -0.142  10.343   6.124
24214SOL    HW174649  -0.190  10.385  -4.844
24214SOL    HW274650  10.984  21.364 -15.919
24215SOL     OW74651   7.658   9.494   4.057
24215SOL    HW174652   7.565 -12.606  -6.981
24215SOL    HW274653   7.674   9.525   3.968
24216SOL     OW74654   7.002   8.480   3.112
24216SOL    HW174655   6.914   8.482   3.073
24216SOL    HW274656   6.996   8.538   3.188
24217SOL     OW74657   9.535   9.635   7.918
24217SOL    HW174658   9.496  20.622   7.848
24217SOL    HW274659   9.490  20.646  -3.042
24218SOL     OW74660   8.502   0.349   2.117
24218SOL    HW174661  19.474   0.344   2.048
24218SOL    HW274662   8.496   0.265   2.162
24219SOL     OW74663   4.190   0.450  -2.861
24219SOL    HW174664   4.164   0.376  19.164
24219SOL    HW274665   4.169  11.567  41.244
24220SOL     OW74666   2.240   2.674   3.052
24220SOL    HW174667   2.170   2.633  47.159
24220SOL    HW274668   2.209   2.764   3.068
24221SOL     OW74669   5.574   1.178   2.578
24221SOL    HW174670 -16.515  -9.886  -8.554
24221SOL    HW274671   5.607   1.267   2.575
24222SOL     OW74672   1.229   3.919   7.730
24222SOL    HW174673   1.134   3.911   7.717
24222SOL    HW274674  12.298   3.829  -3.296
24223SOL     OW74675   7.041   6.974   8.377
24223SOL    HW174676   7.027  -4.034  19.328
24223SOL    HW274677   6.970  17.950   8.391
24224SOL     OW74678   8.918   8.856   5.532
24224SOL    HW174679   8.850   8.868   5.598
24224SOL    HW274680 -13.204   8.878   5.450
24225SOL     OW74681   6.021   0.620  -0.101
24225SOL    HW174682   6.067   0.637  10.856
24225SOL    HW274683   6.073   0.666  -0.035
24226SOL     OW74684   4.350   9.597   8.280
24226SOL    HW174685  -6.671   9.526   8.217
24226SOL    HW274686  -6.642   9.571   8.359
24227SOL     OW74687   6.859   8.286  10.642
24227SOL    HW174688  -4.159   8.350  10.709
24227SOL    HW274689   6.888   8.326  10.560
24228SOL     OW74690   7.410   1.042   3.013
24228SOL    HW174691   7.448   0.986 -19.134
24228SOL    HW274692   7.333   0.994  14.083
24229SOL     OW74693   0.492   3.450   9.226
24229SOL    HW174694   0.483   3.534  -1.768
24229SOL    HW274695   0.508   3.473  20.174
24230SOL     OW74696  10.906  10.997   7.356
24230SOL    HW174697  10.897 -11.149   7.288
24230SOL    HW274698  10.909  -0.091 -14.641
24231SOL     OW74699   1.658   9.729   6.954
24231SOL    HW174700  12.605   9.723 -26.140
24231SOL    HW274701   1.692   9.801 -15.072
24232SOL     OW74702   9.956   2.317   2.224
24232SOL    HW174703  10.000   2.269   2.294
24232SOL    HW274704  10.004 -30.825   2.145
24233SOL     OW74705   6.355   1.017   9.112
24233SOL    HW174706  -4.661   1.046   9.200
24233SOL    HW274707  -4.632 -10.100  -1.943
24234SOL     OW74708   0.294   1.800  11.807
24234SOL    HW174709   0.268   1.723  11.858
24234SOL    HW274710  11.254   1.828 -10.316
24235SOL     OW74711  -0.321   0.191   1.295
24235SOL    HW174712  32.884   0.155   1.313
24235SOL    HW274713  -0.347   0.235   1.376
24236SOL     OW74714   5.502   4.499   7.381
24236SOL    HW174715  -5.452  15.499  -3.645
24236SOL    HW274716   5.517   4.593   7.391
24237SOL     OW74717   8.891   8.904   4.126
24237SOL    HW174718  19.979   8.919   4.207
24237SOL    HW274719   8.894   8.809   4.113
24238SOL     OW74720   4.252   6.301  10.184
24238SOL    HW174721   4.249   6.205  10.181
24238SOL    HW274722  26.301  28.407  10.097
24239SOL     OW74723   5.249   5.289  10.580
24239SOL    HW174724   5.233   5.267  10.488
24239SOL    HW274725   5.196  16.267  10.629
24240SOL     OW74726  -0.521   5.322   3.832
24240SOL    HW174727  10.524   5.292  -7.299
24240SOL    HW274728  -0.598  49.436 -18.212
24241SOL     OW74729   0.180   8.646   3.585
24241SOL    HW174730   0.256   8.593  -7.432
24241SOL    HW274731   0.201  19.773   3.619
24242SOL     OW74732   7.230   7.285   5.472
24242SOL    HW174733   7.299   7.346   5.446
24242SOL    HW274734   7.182  18.307   5.392
24243SOL     OW74735  11.416   3.732   2.719
24243SOL    HW174736   0.469   3.746   2.739
24243SOL    HW274737  11.415   3.701   2.629
24244SOL     OW74738   6.997   8.128   2.541
24244SOL    HW174739  29.027   8.174   2.473
24244SOL    HW274740   6.952   8.044  13.590
24245SOL     OW74741   9.603   5.788   4.070
24245SOL    HW174742   9.673   5.848   4.043
24245SOL    HW274743  20.626  16.849  15.201
24246SOL     OW74744   8.170   9.115   1.324
24246SOL    HW174745  30.307   9.191   1.329
24246SOL    HW274746   8.091   9.148  12.319
24247SOL     OW74747  10.524   1.020  10.622
24247SOL    HW174748  10.488  -9.958  10.558
24247SOL    HW274749  10.557   1.075  10.692
24248SOL     OW74750   0.850   6.698   1.006
24248SOL    HW174751   0.936 -15.417 -10.054
24248SOL    HW274752   0.835 -15.406   1.098
24249SOL     OW74753   1.846   9.012   8.301
24249SOL    HW174754   1.866   9.084  19.280
24249SOL    HW274755   1.869   8.933   8.253
24250SOL     OW74756   5.813   4.803   4.215
24250SOL    HW174757   5.777   4.741   4.151
24250SOL    HW274758   5.816   4.886  15.207
24251SOL     OW74759   2.731   7.857   5.547
24251SOL    HW174760   2.712  30.014   5.598
24251SOL    HW274761   2.820  29.911 -16.507
24252SOL     OW74762   6.860   0.917   2.933
24252SOL    HW174763   6.780   0.969   2.948
24252SOL    HW274764  17.873   0.827   2.950
24253SOL     OW74765   4.061   7.726   5.551
24253SOL    HW174766  37.228   7.805   5.527
24253SOL    HW274767   4.043   7.735   5.644
24254SOL     OW74768   1.968   0.612   6.303
24254SOL    HW174769   1.893  11.674  -4.791
24254SOL    HW274770   2.023   0.559   6.247
24255SOL     OW74771   0.996   3.883   9.370
24255SOL    HW174772   0.922   3.850   9.420
24255SOL    HW274773  45.185 -29.160   9.420
24256SOL     OW74774   5.515   6.012   4.932
24256SOL    HW174775   5.582   5.954   4.895
24256SOL    HW274776   5.553 -15.979   4.925
24257SOL     OW74777   9.976   8.452  -0.606
24257SOL    HW174778   9.972  -2.572  10.527
24257SOL    HW274779   9.895  -2.635  10.414
24258SOL     OW74780   7.100   8.084   7.126
24258SOL    HW174781   7.153   8.004  -3.913
24258SOL    HW274782   7.160   8.153 -14.979
24259SOL     OW74783   3.500   8.438   6.348
24259SOL    HW174784   3.444  -2.645  -4.627
24259SOL    HW274785   3.439   8.484   6.291
24260SOL     OW74786   9.435   7.952   9.991
24260SOL    HW174787   9.358   7.948 -12.032
24260SOL    HW274788  20.542  18.943  10.039
24261SOL     OW74789  -0.175   7.359   7.778
24261SOL    HW174790  -0.259   7.319   7.801
24261SOL    HW274791  10.904   7.297   7.716
24262SOL     OW74792   3.649   9.361   5.275
24262SOL    HW174793   3.655  20.394   5.370
24262SOL    HW274794   3.557   9.342 -27.864
24263SOL     OW74795   6.819   5.785   4.383
24263SOL    HW174796   6.891   5.783   4.321
24263SOL    HW274797   6.787   5.695  26.466
24264SOL     OW74798   8.333   6.254   5.885
24264SOL    HW174799 -13.720   6.345   5.872
24264SOL    HW274800 -35.753   6.214  16.972
24265SOL     OW74801  10.418  11.591   8.897
24265SOL    HW174802  10.485 -10.428   8.931
24265SOL    HW274803  21.440  11.623  -2.231
24266SOL     OW74804   3.915   6.234   5.761
24266SOL    HW174805   3.981   6.228   5.830
24266SOL    HW274806   3.852   6.297  16.833
24267SOL     OW74807   6.144   2.420   9.889
24267SOL    HW174808   6.070   2.359   9.889
24267SOL    HW274809  -4.921   2.488   9.826
24268SOL     OW74810   6.363   1.554   3.450
24268SOL    HW174811   6.285  23.628   3.505
24268SOL    HW274812  -4.673   1.645 -18.658
24269SOL     OW74813  10.566  -0.230   3.937
24269SOL    HW174814  10.485  10.763   3.959
24269SOL    HW274815  10.608  -0.284   3.870
24270SOL     OW74816   1.359   3.208   3.060
24270SOL    HW174817   1.433   3.149  -7.989
24270SOL    HW274818   1.358   3.231   3.153
24271SOL     OW74819   7.074   5.335   9.818
24271SOL    HW174820   7.078  16.312   9.745
24271SOL    HW274821  29.243   5.337   9.852
24272SOL     OW74822   7.026   5.992   1.787
24272SOL    HW174823  -3.919  -5.055   1.774
24272SOL    HW274824   7.007 -15.994  -9.267
24273SOL     OW74825  10.463   4.040  10.791
24273SOL    HW174826  10.546   4.075  10.760
24273SOL    HW274827  10.461  15.101  10.884
24274SOL     OW74828   5.227   1.730   8.929
24274SOL    HW174829   5.138   1.756   8.905
24274SOL    HW274830   5.262   1.690   8.850
24275SOL     OW74831   4.577   4.572   5.114
24275SOL    HW174832  15.577   4.545   5.031
24275SOL    HW274833   4.566   4.496   5.171
24276SOL     OW74834   0.830   1.308   4.044
24276SOL    HW174835   0.899   1.245   4.022
24276SOL    HW274836  11.892   1.338   4.132
24277SOL     OW74837  10.894   6.595   6.684
24277SOL    HW174838  10.977   6.604   6.731
24277SOL    HW274839  10.920   6.576   6.594
24278SOL     OW74840   1.229   5.281   1.431
24278SOL    HW174841   1.310   5.286   1.481
24278SOL    HW274842   1.161  16.304  -9.542
24279SOL     OW74843   5.628   7.307   4.372
24279SOL    HW174844  27.687   7.401   4.377
24279SOL    HW274845   5.635   7.290   4.278
24280SOL     OW74846   6.330   4.566   2.894
24280SOL    HW174847   6.361   4.596 -19.100
24280SOL    HW274848   6.408   4.535   2.848
24281SOL     OW74849   8.008   6.144   2.259
24281SOL    HW174850   7.927 -15.889   2.278
24281SOL    HW274851   8.048   6.129   2.344
24282SOL     OW74852   1.789   3.451   9.585
24282SOL    HW174853   1.754   3.420  20.540
24282SOL    HW274854   1.722   3.427   9.649
24283SOL     OW74855   1.922  10.362   7.939
24283SOL    HW174856   1.830  10.390   7.939
24283SOL    HW274857  12.973  10.317   8.022
24284SOL     OW74858  11.791   7.962   9.981
24284SOL    HW174859 -32.460   7.971   9.959
24284SOL    HW274860   0.762   7.869  10.003
24285SOL     OW74861   1.716   3.891   3.059
24285SOL    HW174862   1.787   3.950   3.085
24285SOL    HW274863  23.723  -7.126  -7.922
24286SOL     OW74864   8.580   8.950   8.732
24286SOL    HW174865   8.509   8.975   8.673
24286SOL    HW274866   8.633   8.889   8.681
24287SOL     OW74867   9.756   5.151   4.588
24287SOL    HW174868  20.726 -16.864   4.600
24287SOL    HW274869   9.715   5.081   4.537
24288SOL     OW74870   5.982  -0.465  10.897
24288SOL    HW174871   6.015  -0.380  10.869
24288SOL    HW274872  39.178  10.519  10.899
24289SOL     OW74873   1.490   5.731   5.790
24289SOL    HW174874   1.563  -5.370   5.786
24289SOL    HW274875   1.519  -5.233   5.740
24290SOL     OW74876   6.646   3.404   4.755
24290SOL    HW174877  -4.313   3.427  15.749
24290SOL    HW274878   6.608   3.488   4.781
24291SOL     OW74879   2.205   0.851   9.914
24291SOL    HW174880  13.324   0.900   9.894
24291SOL    HW274881   2.235   0.761  20.967
24292SOL     OW74882   2.598   2.287   8.019
24292SOL    HW174883   2.604  -8.804   7.939
24292SOL    HW274884  24.622   2.362   7.995
24293SOL     OW74885   7.384   5.432   4.680
24293SOL    HW174886   7.436  16.542   4.642
24293SOL    HW274887   7.390   5.361   4.616
24294SOL     OW74888   4.326   4.920   5.510
24294SOL    HW174889  15.285   4.959   5.474
24294SOL    HW274890   4.332   4.834   5.467
24295SOL     OW74891   4.807   2.263   3.023
24295SOL    HW174892   4.843   2.209   3.093
24295SOL    HW274893   4.734   2.211   2.987
24296SOL     OW74894  10.037   6.056   4.202
24296SOL    HW174895  10.038   6.056   4.106
24296SOL    HW274896  10.127   6.033  48.385
24297SOL     OW74897   9.610   7.543   1.385
24297SOL    HW174898   9.655  51.734   1.464
24297SOL    HW274899  20.579  18.645   1.369
24298SOL     OW74900   2.357   1.488   1.580
24298SOL    HW174901   2.281  23.520   1.613
24298SOL    HW274902   2.356  -9.468   1.626
24299SOL     OW74903   8.463   6.804   7.468
24299SOL    HW174904  19.519  17.930   7.506
24299SOL    HW274905   8.410   6.823   7.390
24300SOL     OW74906   4.981   1.872   6.611
24300SOL    HW174907   5.043 -20.252   6.667
24300SOL    HW274908   4.978  45.979  -4.509
24301SOL     OW74909   4.801   9.462  10.331
24301SOL    HW174910   4.880 -12.595  10.281
24301SOL    HW274911   4.734   9.521  10.298
24302SOL     OW74912   4.030  10.619   1.240
24302SOL    HW174913  -6.950  10.605  12.206
24302SOL    HW274914   4.021  10.533  12.320
24303SOL     OW74915   9.547  10.713   8.844
24303SOL    HW174916   9.608  10.668   8.786
24303SOL    HW274917  20.636  10.788   8.878
24304SOL     OW74918   7.244   3.331   5.257
24304SOL    HW174919  -3.851   3.286  -5.719
24304SOL    HW274920  18.371  -7.711 -16.784
24305SOL     OW74921   8.906   8.244   3.087
24305SOL    HW174922   8.881   8.163   3.132
24305SOL    HW274923 -13.164  -2.731   3.157
24306SOL     OW74924  10.683   9.692   9.170
24306SOL    HW174925  10.670  20.716  20.116
24306SOL    HW274926  10.620   9.760   9.192
24307SOL     OW74927   3.772   5.222   8.417
24307SOL    HW174928   3.743   5.286   8.352
24307SOL    HW274929  -7.213  -5.879   8.368
24308SOL     OW74930   0.623   1.001   7.818
24308SOL    HW174931 -10.452   0.931   7.763
24308SOL    HW274932   0.586   1.081   7.781
24309SOL     OW74933   9.019   4.414   3.211
24309SOL    HW174934   9.051   4.379   3.128
24309SOL    HW274935   9.005  -6.532   3.195
24310SOL     OW74936   1.853   0.398   3.343
24310SOL    HW174937   1.853   0.478   3.291
24310SOL    HW274938  12.845  22.500   3.423
24311SOL     OW74939   8.150   3.514   3.841
24311SOL    HW174940   8.129   3.570   3.766
24311SOL    HW274941  19.145  14.471 -18.258
24312SOL     OW74942  10.634   6.192   0.155
24312SOL    HW174943  10.713  17.254   0.106
24312SOL    HW274944  10.597   6.276   0.181
24313SOL     OW74945  10.057   0.173   2.789
24313SOL    HW174946  10.145   0.199  -8.277
24313SOL    HW274947  10.030   0.109   2.723
24314SOL     OW74948   5.883   1.078   5.284
24314SOL    HW174949   5.871   1.122   5.200
24314SOL    HW274950   5.932   1.140   5.337
24315SOL     OW74951   5.761   5.158  11.059
24315SOL    HW174952   5.675   5.119  11.074
24315SOL    HW274953   5.819   5.113   0.082
24316SOL     OW74954   5.457   4.352   5.308
24316SOL    HW174955  -5.666   4.342   5.354
24316SOL    HW274956   5.441   4.314  38.340
24317SOL     OW74957   1.191  10.163   9.019
24317SOL    HW174958   1.238  10.215   8.953
24317SOL    HW274959   1.100  10.189   9.010
24318SOL     OW74960   9.252   9.966   5.668
24318SOL    HW174961   9.307 -12.192   5.664
24318SOL    HW274962  20.202   9.933  27.740
24319SOL     OW74963   7.431   6.686  10.213
24319SOL    HW174964   7.421   6.778  10.238
24319SOL    HW274965   7.366   6.673  10.144
24320SOL     OW74966  -0.517   0.676   1.096
24320SOL    HW174967  10.617   0.669   1.081
24320SOL    HW274968  -0.536   0.769   1.091
24321SOL     OW74969  10.139   4.302   6.004
24321SOL    HW174970  10.176   4.387   6.028
24321SOL    HW274971  10.213  -6.786  -5.072
24322SOL     OW74972   5.061   9.866  10.388
24322SOL    HW174973 -28.084   9.828  -0.735
24322SOL    HW274974   4.984   9.857  10.444
24323SOL     OW74975   2.045   4.919   6.851
24323SOL    HW174976  -9.065  15.906   6.813
24323SOL    HW274977   2.001   4.999   6.880
24324SOL     OW74978   3.838   9.563   5.251
24324SOL    HW174979   3.915   9.523   5.209
24324SOL    HW274980   3.773 -34.666   5.254
24325SOL     OW74981   1.185   2.945   3.161
24325SOL    HW174982   1.178   2.948  14.105
24325SOL    HW274983  -9.939   2.977  25.272
24326SOL     OW74984  10.815   4.185   1.159
24326SOL    HW174985  10.851 -17.867   1.074
24326SOL    HW274986 -33.409 -17.961   1.136
24327SOL     OW74987  10.084  11.992   3.580
24327SOL    HW174988  10.001 -21.093  14.655
24327SOL    HW274989  10.075  11.897   3.584
24328SOL     OW74990   6.055   6.263   8.172
24328SOL    HW174991  17.048   6.241   8.253
24328SOL    HW274992   6.034  -4.685   8.156
24329SOL     OW74993   1.853  10.535  -0.501
24329SOL    HW174994   1.776  -0.518  -0.556
24329SOL    HW274995   1.879  21.487  10.567
24330SOL     OW74996  11.767   5.050   9.267
24330SOL    HW174997 -10.367   5.064  -1.849
24330SOL    HW274998  11.773   5.136   9.309
24331SOL     OW74999   3.070  10.037   3.963
24331SOL    HW175000  25.120 -11.957   3.931
24331SOL    HW275001   3.027 -12.051   4.049
24332SOL     OW75002  -0.064   3.727  10.271
24332SOL    HW175003  -0.125   3.800  10.279
24332SOL    HW275004  10.935   3.656  -0.719
24333SOL     OW75005   3.392   0.680  10.030
24333SOL    HW175006   3.469   0.623  10.026
24333SOL    HW275007   3.380   0.698  21.162
24334SOL     OW75008   9.968   4.264   3.220
24334SOL    HW175009  10.032   4.322  -7.862
24334SOL    HW275010   9.900   4.323   3.252
24335SOL     OW75011   3.487   4.483   2.365
24335SOL    HW175012   3.507   4.570   2.331
24335SOL    HW275013  14.536  15.464   2.290
24336SOL     OW75014   4.913   4.040   8.234
24336SOL    HW175015   4.860   4.056   8.312
24336SOL    HW275016   4.871  -7.074   8.191
24337SOL     OW75017   1.327   4.078   9.561
24337SOL    HW175018   1.241  15.146   9.532
24337SOL    HW275019   1.317   3.985 -12.499
24338SOL     OW75020   3.605   8.629   6.539
24338SOL    HW175021   3.542  -2.338   6.533
24338SOL    HW275022   3.555   8.552   6.512
24339SOL     OW75023   3.497  10.477   2.158
24339SOL    HW175024   3.511  10.413   2.089
24339SOL    HW275025   3.410  -0.584   2.193
24340SOL     OW75026   3.842   7.836   5.331
24340SOL    HW175027  37.000  18.955  27.447
24340SOL    HW275028   3.915   7.776  49.477
24341SOL     OW75029   7.706   9.368  10.535
24341SOL    HW175030  18.784  20.494  10.522
24341SOL    HW275031   7.701   9.331  10.446
24342SOL     OW75032   0.462   7.126   5.199
24342SOL    HW175033   0.543   7.157   5.160
24342SOL    HW275034   0.488 -14.991  -5.756
24343SOL     OW75035   5.263   4.294   7.416
24343SOL    HW175036   5.284  -6.830  -3.583
24343SOL    HW275037  16.212   4.285   7.387
24344SOL     OW75038  10.249   3.168  10.534
24344SOL    HW175039  10.292   3.091  10.497
24344SOL    HW275040  21.349   3.241  10.516
24345SOL     OW75041   2.712   0.557   4.228
24345SOL    HW175042   2.800   0.550  -6.847
24345SOL    HW275043   2.669   0.621   4.171
24346SOL     OW75044   4.577  11.621   2.239
24346SOL    HW175045 -17.565  11.647   2.172
24346SOL    HW275046   4.526 -10.467   2.319
24347SOL     OW75047   3.422   6.868   7.072
24347SOL    HW175048  14.367  -4.156   7.079
24347SOL    HW275049   3.445   6.822   7.153
24348SOL     OW75050   7.403   3.865   5.312
24348SOL    HW175051   7.441  -7.138   5.392
24348SOL    HW275052   7.463  -7.147   5.243
24349SOL     OW75053   5.729   0.837   5.315
24349SOL    HW175054  -5.398   0.840  16.315
24349SOL    HW275055   5.769   0.921  16.331
24350SOL     OW75056   9.563   4.714   9.896
24350SOL    HW175057   9.646   4.671   9.874
24350SOL    HW275058   9.542 -28.353  -1.221
24351SOL     OW75059   0.630  10.934   2.036
24351SOL    HW175060   0.643  10.891   1.952
24351SOL    HW275061  22.797  10.950   2.070
24352SOL     OW75062   5.153   9.355   9.783
24352SOL    HW175063   5.209  -1.681   9.705
24352SOL    HW275064  -5.874   9.267   9.818
24353SOL     OW75065   8.980   1.334   8.971
24353SOL    HW175066  20.089   1.312  -2.130
24353SOL    HW275067   8.968   1.255   9.024
24354SOL     OW75068   0.735   3.270   2.437
24354SOL    HW175069   0.792   3.314   2.374
24354SOL    HW275070  11.803  -7.738   2.523
24355SOL     OW75071   8.086   7.920   9.845
24355SOL    HW175072   8.147   7.944   9.916
24355SOL    HW275073   8.142   7.882   9.778
24356SOL     OW75074   2.763   5.526   6.331
24356SOL    HW175075  13.884   5.477   6.317
24356SOL    HW275076   2.771  -5.478  28.499
24357SOL     OW75077   2.148   4.440   1.731
24357SOL    HW175078   2.216   4.407   1.789
24357SOL    HW275079   2.105  -6.679   1.697
24358SOL     OW75080   1.485   0.142   9.397
24358SOL    HW175081   1.554  22.251   9.457
24358SOL    HW275082   1.498   0.048   9.391
24359SOL     OW75083   3.663   9.143   6.303
24359SOL    HW175084   3.743  -1.866   6.345
24359SOL    HW275085   3.691  -1.973   6.252
24360SOL     OW75086  -0.307   5.822   3.359
24360SOL    HW175087  10.727   5.727   3.356
24360SOL    HW275088  10.823   5.842   3.335
24361SOL     OW75089   1.659   0.800   3.784
24361SOL    HW175090 -20.360  11.853   3.857
24361SOL    HW275091  12.651   0.720   3.806
24362SOL     OW75092   9.100   5.219   4.055
24362SOL    HW175093  -1.958   5.156   4.124
24362SOL    HW275094   9.195 -16.857   4.050
24363SOL     OW75095   1.685   4.512   2.778
24363SOL    HW175096  23.711   4.450  -8.213
24363SOL    HW275097   1.755  26.615  -8.201
24364SOL     OW75098   4.391   7.334   6.038
24364SOL    HW175099   4.484   7.348 -16.027
24364SOL    HW275100  26.436  18.347  -4.916
24365SOL     OW75101   4.357   7.673   5.613
24365SOL    HW175102 -17.811  -3.396   5.590
24365SOL    HW275103   4.394   7.600   5.663
24366SOL     OW75104   4.064   0.525   9.354
24366SOL    HW175105  -6.904   0.485   9.404
24366SOL    HW275106   4.004   0.453 -23.783
24367SOL     OW75107   6.270   4.463   7.564
24367SOL    HW175108   6.189  15.548  18.580
24367SOL    HW275109   6.337   4.531   7.558
24368SOL     OW75110   8.519   4.705   8.797
24368SOL    HW175111 -24.573   4.777  19.779
24368SOL    HW275112  -2.595  15.704   8.751
24369SOL     OW75113  -0.682   2.333   3.707
24369SOL    HW175114  32.422   2.241  14.768
24369SOL    HW275115  10.298   2.381   3.764
24370SOL     OW75116  10.073   8.930   3.718
24370SOL    HW175117  10.063   9.005 -29.460
24370SOL    HW275118  10.072   8.968  14.845
24371SOL     OW75119   5.524   2.389   8.773
24371SOL    HW175120  16.604   2.392   8.687
24371SOL    HW275121   5.432   2.370   8.757
24372SOL     OW75122   3.491  12.268   0.856
24372SOL    HW175123   3.494   1.298  11.962
24372SOL    HW275124  -7.500  -9.774   0.782
24373SOL     OW75125   1.910   5.702   0.614
24373SOL    HW175126  12.883   5.633   0.621
24373SOL    HW275127   1.865  16.821  11.682
24374SOL     OW75128  10.312   8.052   1.495
24374SOL    HW175129  10.245   8.120  -9.536
24374SOL    HW275130 -33.787   8.085  23.506
24375SOL     OW75131   1.945  10.179   7.726
24375SOL    HW175132   1.910  21.297   7.769
24375SOL    HW275133   2.024  10.157  18.815
24376SOL     OW75134  11.615   3.720   8.580
24376SOL    HW175135   0.646   3.785   8.575
24376SOL    HW275136  11.549   3.760   8.636
24377SOL     OW75137   3.115   2.987   8.028
24377SOL    HW175138   3.070   2.934   8.094
24377SOL    HW275139  -7.912   3.072   8.069
24378SOL     OW75140   1.965   9.419   8.367
24378SOL    HW175141   2.023  -1.649  -2.743
24378SOL    HW275142  12.969   9.502   8.336
24379SOL     OW75143   8.041   1.102   4.821
24379SOL    HW175144  -2.981   1.092   4.728
24379SOL    HW275145   7.952   1.136   4.825
24380SOL     OW75146   8.642   5.222   4.689
24380SOL    HW175147   8.683 -16.816 -28.505
24380SOL    HW275148   8.550  -5.829   4.664
24381SOL     OW75149   4.561   9.210   5.662
24381SOL    HW175150  15.682   9.242   5.701
24381SOL    HW275151   4.553   9.120   5.695
24382SOL     OW75152   2.492   8.934   2.662
24382SOL    HW175153   2.441   8.922  57.779
24382SOL    HW275154   2.519   9.026   2.660
24383SOL     OW75155   5.108   8.487   0.767
24383SOL    HW175156  -5.955   8.489   0.860
24383SOL    HW275157 -27.939   8.424   0.762
24384SOL     OW75158   2.991  10.711   0.708
24384SOL    HW175159   2.906  10.748  22.811
24384SOL    HW275160   2.991  10.624   0.749
24385SOL     OW75161   3.216   2.703   4.481
24385SOL    HW175162 -18.878   2.777   4.422
24385SOL    HW275163   3.135   2.696  26.611
24386SOL     OW75164   8.271   9.589   9.232
24386SOL    HW175165  30.393   9.624   9.310
24386SOL    HW275166   8.178   9.586   9.256
24387SOL     OW75167   8.320   2.755   1.449
24387SOL    HW175168   8.249   2.779   1.389
24387SOL    HW275169   8.377   2.831   1.450
24388SOL     OW75170   2.223   7.089   9.253
24388SOL    HW175171 -19.931   7.115   9.306
24388SOL    HW275172   2.193  18.051  20.245
24389SOL     OW75173   5.389   7.555  10.961
24389SOL    HW175174 -27.810  -3.537  10.961
24389SOL    HW275175 -16.636 -14.563  10.893
24390SOL     OW75176   0.665  11.682   4.757
24390SOL    HW175177  11.730   0.714   4.699
24390SOL    HW275178 -10.361   0.677   4.845
24391SOL     OW75179   3.356   5.718   3.648
24391SOL    HW175180   3.300   5.713   3.725
24391SOL    HW275181   3.403  -5.239   3.658
24392SOL     OW75182   9.054  10.733   7.570
24392SOL    HW175183   9.046  10.681  -3.550
24392SOL    HW275184  20.033  -0.234   7.557
24393SOL     OW75185   9.107   4.202   6.763
24393SOL    HW175186   9.014  15.262   6.748
24393SOL    HW275187   9.147   4.285   6.786
24394SOL     OW75188   1.492   3.977   7.021
24394SOL    HW175189   1.471  15.107   7.044
24394SOL    HW275190  -9.574  26.005  18.137
24395SOL     OW75191   5.960   8.439  -2.655
24395SOL    HW175192   6.030   8.386  30.427
24395SOL    HW275193  17.004   8.522  19.376
24396SOL     OW75194   8.566  11.061   2.609
24396SOL    HW175195   8.657  11.074  13.621
24396SOL    HW275196   8.530 -10.930  35.732
24397SOL     OW75197   7.707   8.043   1.716
24397SOL    HW175198   7.787  -3.040   1.686
24397SOL    HW275199   7.639  30.055   1.708
24398SOL     OW75200   4.546   6.394   2.604
24398SOL    HW175201   4.624  28.418   2.598
24398SOL    HW275202  26.657  17.522 -19.495
24399SOL     OW75203   5.367   8.432   1.661
24399SOL    HW175204   5.281  19.441   1.632
24399SOL    HW275205   5.348   8.493  -9.308
24400SOL     OW75206   0.483   9.156   0.907
24400SOL    HW175207   0.426  -1.961   0.916
24400SOL    HW275208   0.556  -1.915   0.854
24401SOL     OW75209   0.215   2.310   3.344
24401SOL    HW175210   0.170   2.285   3.425
24401SOL    HW275211   0.249  13.267   3.308
24402SOL     OW75212   2.246   4.396   6.068
24402SOL    HW175213   2.212   4.483   6.047
24402SOL    HW275214   2.341  26.484   6.061
24403SOL     OW75215   8.320   5.069  10.978
24403SOL    HW175216   8.368   5.150  10.961
24403SOL    HW275217   8.388   5.003  10.990
24404SOL     OW75218  10.226   8.746   6.368
24404SOL    HW175219  10.165  19.714  17.392
24404SOL    HW275220  10.312  30.788   6.349
24405SOL     OW75221   7.691   0.034   5.234
24405SOL    HW175222   7.660   0.024   5.144
24405SOL    HW275223   7.641  -0.030  16.324
24406SOL     OW75224   0.808   7.342   4.118
24406SOL    HW175225  22.906   7.254   4.152
24406SOL    HW275226   0.803   7.330   4.023
24407SOL     OW75227  10.826   3.731   2.681
24407SOL    HW175228  10.767   3.805   2.696
24407SOL    HW275229  10.785   3.658  24.806
24408SOL     OW75230   7.764   4.007   2.220
24408SOL    HW175231   7.797  15.026  13.347
24408SOL    HW275232   7.775   4.102  13.252
24409SOL     OW75233  10.544   8.614   9.731
24409SOL    HW175234  10.621   8.671  -1.304
24409SOL    HW275235  -0.492   8.562   9.811
24410SOL     OW75236   7.371   6.699   9.055
24410SOL    HW175237   7.453   6.666   9.093
24410SOL    HW275238  29.382   6.651   9.101
24411SOL     OW75239   0.124   7.707   3.301
24411SOL    HW175240   0.191   7.775   3.291
24411SOL    HW275241   0.046   7.753 -18.749
24412SOL     OW75242   9.298  12.323   1.466
24412SOL    HW175243   9.220  -9.761   1.522
24412SOL    HW275244   9.339   1.366   1.489
24413SOL     OW75245   3.195   6.039   5.938
24413SOL    HW175246   3.233   6.111   5.888
24413SOL    HW275247   3.117   6.077  -5.060
24414SOL     OW75248  12.228   3.539   6.434
24414SOL    HW175249   1.152  -7.583  17.504
24414SOL    HW275250  -9.820   3.582   6.514
24415SOL     OW75251  10.246   6.289   5.607
24415SOL    HW175252  10.208   6.328  16.726
24415SOL    HW275253  21.229  -4.721   5.536
24416SOL     OW75254   7.322   7.289   1.908
24416SOL    HW175255   7.376   7.237   1.849
24416SOL    HW275256   7.339  -3.788   1.995
24417SOL     OW75257  10.355   0.223   9.613
24417SOL    HW175258  10.428   0.267  20.694
24417SOL    HW275259  10.375   0.130   9.621
24418SOL     OW75260   0.623   1.791   8.136
24418SOL    HW175261   0.535   1.829   8.133
24418SOL    HW275262   0.681  23.944   8.151
24419SOL     OW75263   5.206   6.551   6.794
24419SOL    HW175264   5.253   6.482   6.747
24419SOL    HW275265   5.196   6.517   6.883
24420SOL     OW75266  10.078   6.762   8.590
24420SOL    HW175267  10.118   6.694   8.644
24420SOL    HW275268  10.052  17.756  -2.530
24421SOL     OW75269   8.305   9.219   9.845
24421SOL    HW175270   8.375  20.303  -1.241
24421SOL    HW275271  19.272 -12.797   9.846
24422SOL     OW75272   1.461   2.842   5.987
24422SOL    HW175273  23.526   2.816   5.896
24422SOL    HW275274   1.528  13.950  -5.058
24423SOL     OW75275   9.146   7.321   9.273
24423SOL    HW175276   9.219   7.261   9.289
24423SOL    HW275277   9.069   7.270   9.296
24424SOL     OW75278  10.818   7.947   2.855
24424SOL    HW175279  10.879   7.884   2.817
24424SOL    HW275280  10.743   7.947   2.796
24425SOL     OW75281  10.774   8.383   0.240
24425SOL    HW175282  10.853 -13.717  11.329
24425SOL    HW275283  10.804   8.441  11.210
24426SOL     OW75284  10.178  12.774  10.285
24426SOL    HW175285  10.168  -9.210  10.290
24426SOL    HW275286  10.110   1.701  10.344
24427SOL     OW75287   9.145   6.398   9.296
24427SOL    HW175288   9.171  39.568 -12.859
24427SOL    HW275289   9.093  28.537   9.349
24428SOL     OW75290   0.058   1.298   9.296
24428SOL    HW175291  -0.000  12.295   9.359
24428SOL    HW275292   0.005 -20.773  20.256
24429SOL     OW75293   6.363   1.744   0.690
24429SOL    HW175294  -4.601   1.685   0.693
24429SOL    HW275295  -4.676  23.859   0.601
24430SOL     OW75296  11.757   7.106   0.707
24430SOL    HW175297 -10.280 -37.117   0.763
24430SOL    HW275298  11.664  -3.940   0.729
24431SOL     OW75299   9.339   9.361   0.604
24431SOL    HW175300  -1.746   9.301   0.663
24431SOL    HW275301   9.418   9.313   0.577
24432SOL     OW75302   0.286   7.073  11.371
24432SOL    HW175303   0.280   7.157  11.325
24432SOL    HW275304   0.379  -3.985   0.334
24433SOL     OW75305   4.775   0.986   1.991
24433SOL    HW175306  15.847  11.946   1.950
24433SOL    HW275307   4.854 -10.004   2.012
24434SOL     OW75308   7.410   6.760   5.468
24434SOL    HW175309  -3.669   6.689   5.519
24434SOL    HW275310   7.336   6.814   5.440
24435SOL     OW75311   1.424   9.078   8.506
24435SOL    HW175312  -9.667  31.153   8.425
24435SOL    HW275313   1.424   9.171 -24.590
24436SOL     OW75314   2.252   8.808   2.145
24436SOL    HW175315  -8.860   8.768   2.193
24436SOL    HW275316   2.268   8.749  13.111
24437SOL     OW75317   3.858   7.843   6.589
24437SOL    HW175318   3.908   7.801   6.659
24437SOL    HW275319   3.903  18.856  50.667
24438SOL     OW75320   4.027   9.458   8.900
24438SOL    HW175321   4.004   9.449   8.808
24438SOL    HW275322   3.977   9.534  19.970
24439SOL     OW75323   6.944  -0.754   3.218
24439SOL    HW175324   6.861  -0.726   3.256
24439SOL    HW275325   6.988  21.406   3.194
24440SOL     OW75326   0.688   8.210   9.393
24440SOL    HW175327   0.760   8.183   9.450
24440SOL    HW275328   0.640  -2.764  20.484
24441SOL     OW75329   2.325   4.075   8.532
24441SOL    HW175330  24.426   4.158   8.489
24441SOL    HW275331   2.257   4.098  -2.445
24442SOL     OW75332   1.342   3.777   3.502
24442SOL    HW175333  12.309  -7.224   3.552
24442SOL    HW275334   1.369   3.701   3.553
24443SOL     OW75335   3.229   6.456   7.499
24443SOL    HW175336  -7.732   6.510   7.511
24443SOL    HW275337   3.191   6.486   7.416
24444SOL     OW75338   9.101   5.058   1.073
24444SOL    HW175339   9.035   5.046   1.005
24444SOL    HW275340   9.055   5.035   1.154
24445SOL     OW75341   4.915   1.743   4.131
24445SOL    HW175342   4.975  23.759   4.170
24445SOL    HW275343   4.837   1.693  -6.930
24446SOL     OW75344  -1.175   1.840   8.345
24446SOL    HW175345   9.931   1.781   8.311
24446SOL    HW275346   9.913   1.912   8.385
24447SOL     OW75347  10.951   7.958   7.555
24447SOL    HW175348  10.872   7.905   7.548
24447SOL    HW275349  10.997   7.944  -3.566
24448SOL     OW75350   8.172   0.875   3.407
24448SOL    HW175351   8.121 -10.107   3.350
24448SOL    HW275352 -13.930   0.903   3.496
24449SOL     OW75353   9.773   4.340   8.977
24449SOL    HW175354   9.711  15.453   8.978
24449SOL    HW275355   9.836   4.363   8.909
24450SOL     OW75356   7.864   2.036   9.811
24450SOL    HW175357 -14.210  24.175   9.886
24450SOL    HW275358   7.936  -8.977   9.754
24451SOL     OW75359   7.556  10.043  -0.426
24451SOL    HW175360   7.632  10.099  10.595
24451SOL    HW275361  -3.516  21.112  -0.341
24452SOL     OW75362   4.577  10.808   6.629
24452SOL    HW175363  -6.553  10.778  28.704
24452SOL    HW275364  -6.417 -11.337   6.682
24453SOL     OW75365   6.720   3.733   6.197
24453SOL    HW175366   6.783   3.762 -26.856
24453SOL    HW275367   6.765   3.743   6.114
24454SOL     OW75368   1.253   5.960   8.877
24454SOL    HW175369   1.310  -5.049   8.948
24454SOL    HW275370   1.299   5.883  30.921
24455SOL     OW75371   3.696   1.150   6.095
24455SOL    HW175372   3.776   1.171  39.166
24455SOL    HW275373  -7.333   1.060   6.123
24456SOL     OW75374   6.752   2.117  12.637
24456SOL    HW175375   6.800  -8.962 -31.595
24456SOL    HW275376   6.750  -8.829   1.577
24457SOL     OW75377   0.831   6.746   1.927
24457SOL    HW175378  22.845   6.808   1.896
24457SOL    HW275379   0.781   6.675 -20.112
24458SOL     OW75380   3.471   1.287   9.147
24458SOL    HW175381  25.643   1.310   9.145
24458SOL    HW275382   3.425   1.370   9.136
24459SOL     OW75383   2.050   3.377   7.372
24459SOL    HW175384   2.047   3.330  18.328
24459SOL    HW275385  35.247  -7.608   7.367
24460SOL     OW75386  10.002   2.128   1.244
24460SOL    HW175387  21.033   2.219  -9.824
24460SOL    HW275388   9.969   2.077   1.170
24461SOL     OW75389   8.570   3.472   3.262
24461SOL    HW175390   8.491   3.458  14.354
24461SOL    HW275391  -2.441   3.560   3.284
24462SOL     OW75392   0.079   2.740   6.624
24462SOL    HW175393   0.164   2.714   6.660
24462SOL    HW275394   0.035  35.905 -15.384
24463SOL     OW75395   7.221   5.526   7.756
24463SOL    HW175396   7.155   5.595  29.831
24463SOL    HW275397   7.189   5.458  29.776
24464SOL     OW75398  -2.452   4.185  10.805
24464SOL    HW175399  19.586  48.289  10.872
24464SOL    HW275400  19.660   4.122  -0.299
24465SOL     OW75401   5.748   4.600   9.286
24465SOL    HW175402  16.791  15.708   9.353
24465SOL    HW275403  16.844   4.531  -1.720
24466SOL     OW75404   3.113   0.082   0.029
24466SOL    HW175405   3.198   0.072   0.071
24466SOL    HW275406   3.050   0.075   0.100
24467SOL     OW75407   6.449   3.652   2.910
24467SOL    HW175408   6.489   3.730   2.949
24467SOL    HW275409  -4.684   3.660  -8.108
24468SOL     OW75410   2.334   9.949   6.852
24468SOL    HW175411 -19.785   9.966   6.766
24468SOL    HW275412   2.306   9.861 -15.205
24469SOL     OW75413   7.641   0.235   1.894
24469SOL    HW175414   7.657  22.394   1.843
24469SOL    HW275415   7.679   0.253   1.980
24470SOL     OW75416   8.435   9.951   2.050
24470SOL    HW175417   8.510   9.971   1.993
24470SOL    HW275418  -2.681   9.978   1.999
24471SOL     OW75419   3.099   0.669   6.006
24471SOL    HW175420   3.049   0.691   5.927
24471SOL    HW275421   3.038 -10.355   6.078
24472SOL     OW75422   9.233   2.843   5.202
24472SOL    HW175423   9.228   2.762   5.252
24472SOL    HW275424   9.191   2.823   5.118
24473SOL     OW75425   3.975   5.814   3.935
24473SOL    HW175426   4.043   5.766   3.982
24473SOL    HW275427   4.014   5.899  25.995
24474SOL     OW75428   2.469   3.731   2.557
24474SOL    HW175429   2.477 -18.253   2.564
24474SOL    HW275430   2.530  -7.343  -8.417
24475SOL     OW75431   6.489   0.794   4.197
24475SOL    HW175432   6.573   0.831   4.167
24475SOL    HW275433   6.498   0.788 -17.787
24476SOL     OW75434   2.944  11.033   6.978
24476SOL    HW175435  -8.048  11.105   6.937
24476SOL    HW275436 -30.121  11.008   7.053
24477SOL     OW75437   5.584   2.907   7.215
24477SOL    HW175438  16.670   2.987 -14.839
24477SOL    HW275439   5.644   2.862  -3.883
24478SOL     OW75440   5.535   1.341   1.996
24478SOL    HW175441   5.443  -9.678 -31.139
24478SOL    HW275442   5.573   1.333   1.909
24479SOL     OW75443   0.431   9.699   8.818
24479SOL    HW175444   0.340   9.677  19.836
24479SOL    HW275445   0.459 -12.322   8.747
24480SOL     OW75446   4.339   8.722   3.402
24480SOL    HW175447  15.461   8.769   3.388
24480SOL    HW275448  37.397   8.789   3.433
24481SOL     OW75449   9.086   7.294   7.344
24481SOL    HW175450   9.115   7.367   7.290
24481SOL    HW275451   9.029   7.242  -3.753
24482SOL     OW75452   9.299   1.036   2.848
24482SOL    HW175453   9.303   0.963  24.990
24482SOL    HW275454   9.208   1.066  24.931
24483SOL     OW75455   2.788   5.789   5.257
24483SOL    HW175456  -8.171   5.741 -27.845
24483SOL    HW275457   2.745 -27.379 -16.892
24484SOL     OW75458  -0.502   4.275   9.223
24484SOL    HW175459  10.571   4.309   9.305
24484SOL    HW275460  -0.523   4.183  20.281
24485SOL     OW75461   7.159   6.515   6.102
24485SOL    HW175462  18.126   6.507 -15.914
24485SOL    HW275463   7.177   6.609 -15.982
24486SOL     OW75464   7.268   4.411   0.079
24486SOL    HW175465  -3.814  15.504   0.012
24486SOL    HW275466   7.360  15.476   0.076
24487SOL     OW75467   3.869   9.146   0.907
24487SOL    HW175468   3.779   9.134  11.916
24487SOL    HW275469 -29.196   9.133  11.869
24488SOL     OW75470   7.452   2.449   2.657
24488SOL    HW175471   7.421   2.446  13.606
24488SOL    HW275472   7.526   2.388   2.659
24489SOL     OW75473   4.433   1.764  10.082
24489SOL    HW175474  15.394  12.758  10.113
24489SOL    HW275475  -6.537   1.733  10.139
24490SOL     OW75476   2.767  -0.262   3.449
24490SOL    HW175477   2.750  21.747   3.512
24490SOL    HW275478   2.684  -0.251   3.403
24491SOL     OW75479   3.112   2.940   0.424
24491SOL    HW175480  -7.882   2.856   0.412
24491SOL    HW275481   3.112 -19.100   0.337
24492SOL     OW75482   8.849   3.341  10.206
24492SOL    HW175483  -2.261   3.355  10.143
24492SOL    HW275484   8.891   3.260  21.217
24493SOL     OW75485   2.579  10.493  11.376
24493SOL    HW175486   2.554  10.413  11.330
24493SOL    HW275487   2.645  10.464 -32.719
24494SOL     OW75488   3.708  14.099   2.765
24494SOL    HW175489   3.706 -41.180  13.855
24494SOL    HW275490   3.760 -18.959   2.818
24495SOL     OW75491   6.384  10.971   7.398
24495SOL    HW175492   6.394 -11.051 -47.876
24495SOL    HW275493  17.420  -0.009  -3.567
24496SOL     OW75494   5.345   7.732   4.151
24496SOL    HW175495   5.375  -3.254  -6.815
24496SOL    HW275496   5.324   7.647  15.230
24497SOL     OW75497   3.915   4.047   6.600
24497SOL    HW175498   3.971   4.110  17.595
24497SOL    HW275499   3.877   3.995 -15.550
24498SOL     OW75500   1.510   7.164   4.815
24498SOL    HW175501  23.650  18.277 -17.259
24498SOL    HW275502  23.573   7.152  -6.318
24499SOL     OW75503   1.959   1.559   8.744
24499SOL    HW175504   1.877   1.552   8.794
24499SOL    HW275505   2.028   1.542  30.887
24500SOL     OW75506   9.731   2.449  -0.115
24500SOL    HW175507   9.801   2.505  -0.148
24500SOL    HW275508   9.776   2.376  33.047
24501SOL     OW75509   2.677   2.037   5.850
24501SOL    HW175510   2.768  13.083  -5.160
24501SOL    HW275511   2.680   1.978   5.775
24502SOL     OW75512   4.123  12.725   6.296
24502SOL    HW175513  15.132  -9.343   6.386
24502SOL    HW275514  37.215  -9.443   6.272
24503SOL     OW75515   5.428   2.559   8.230
24503SOL    HW175516   5.340  -8.466   8.265
24503SOL    HW275517  -5.560 -19.448   8.265
24504SOL     OW75518   9.624   9.708   4.388
24504SOL    HW175519   9.574 -23.344  26.419
24504SOL    HW275520  -1.336 -12.326  15.457
24505SOL     OW75521   2.543   6.881   0.541
24505SOL    HW175522  -8.569   6.909   0.485
24505SOL    HW275523   2.581 -15.117   0.575
24506SOL     OW75524   7.752  11.198   8.970
24506SOL    HW175525   7.756  11.114   8.924
24506SOL    HW275526   7.836 -10.838   8.949
24507SOL     OW75527   7.529   2.063   9.117
24507SOL    HW175528  -3.542   2.000   9.051
24507SOL    HW275529   7.491  13.071   9.199
24508SOL     OW75530   0.040   2.133   9.439
24508SOL    HW175531   0.096   2.082   9.498
24508SOL    HW275532  11.109  -8.931  20.391
24509SOL     OW75533   4.312   7.243   1.251
24509SOL    HW175534  -6.668  18.332   1.308
24509SOL    HW275535   4.316   7.153   1.285
24510SOL     OW75536   0.115   3.883   0.700
24510SOL    HW175537   0.190 -29.295   0.709
24510SOL    HW275538   0.153   3.963   0.665
24511SOL     OW75539   4.430   0.521   5.765
24511SOL    HW175540 -17.655   0.446   5.825
24511SOL    HW275541   4.345   0.524 -16.358
24512SOL     OW75542   0.878   8.334   2.366
24512SOL    HW175543   0.957  -2.737 -19.757
24512SOL    HW275544   0.819   8.259   2.367
24513SOL     OW75545   2.516   4.922   8.379
24513SOL    HW175546   2.465   4.853  -2.619
24513SOL    HW275547   2.524 -17.184   8.288
24514SOL     OW75548   1.052   0.974   4.820
24514SOL    HW175549   0.986 -10.022   4.766
24514SOL    HW275550 -10.033  11.938   4.856
24515SOL     OW75551   7.092   2.487   6.139
24515SOL    HW175552   7.071   2.485 -27.073
24515SOL    HW275553   7.007   2.495   6.183
24516SOL     OW75554  -2.015   2.699   5.675
24516SOL    HW175555  31.088  -8.435  16.713
24516SOL    HW275556  20.089   2.720  49.743
24517SOL     OW75557   1.294   9.232   8.839
24517SOL    HW175558  12.289  -1.791  19.962
24517SOL    HW275559   1.242   9.163   8.797
24518SOL     OW75560   9.823   2.437   7.734
24518SOL    HW175561   9.847   2.422   7.825
24518SOL    HW275562   9.899   2.407   7.684
24519SOL     OW75563   0.026   1.965   8.012
24519SOL    HW175564   0.017   1.944   7.919
24519SOL    HW275565   0.017 -31.238   8.057
24520SOL     OW75566   2.586   5.988   2.611
24520SOL    HW175567   2.551   5.964   2.696
24520SOL    HW275568   2.531  28.021 -19.531
24521SOL     OW75569  10.102   2.602  -0.354
24521SOL    HW175570  10.163   2.630  21.793
24521SOL    HW275571  10.144   2.625  -0.436
24522SOL     OW75572  10.191   4.734   6.965
24522SOL    HW175573  10.269   4.679   6.961
24522SOL    HW275574 -22.921   4.791   6.889
24523SOL     OW75575  10.717   2.810   3.484
24523SOL    HW175576  10.783   2.876   3.504
24523SOL    HW275577  10.745  35.891 -29.718
24524SOL     OW75578   1.421   6.768   1.776
24524SOL    HW175579   1.344 -15.357   1.810
24524SOL    HW275580   1.471   6.794   1.854
24525SOL     OW75581   3.383   4.256   1.597
24525SOL    HW175582   3.344 -17.738  -9.421
24525SOL    HW275583   3.442   4.275   1.525
24526SOL     OW75584   9.060   6.899   1.024
24526SOL    HW175585   8.971  28.943   1.032
24526SOL    HW275586  -1.986  -4.076  11.993
24527SOL     OW75587   8.552   6.845   5.568
24527SOL    HW175588   8.566   6.753 -16.489
24527SOL    HW275589  -2.567   6.869   5.616
24528SOL     OW75590  -0.416   7.578   5.515
24528SOL    HW175591  10.532  -3.434  16.564
24528SOL    HW275592  -0.369   7.657 -27.630
24529SOL     OW75593   0.323   5.513   1.037
24529SOL    HW175594   0.349   5.552   0.953
24529SOL    HW275595   0.293   5.425   1.014
24530SOL     OW75596   9.560   8.115   2.203
24530SOL    HW175597   9.554  19.217   2.131
24530SOL    HW275598  20.543   8.150 -19.808
24531SOL     OW75599   6.964   0.026   3.971
24531SOL    HW175600   7.013  -0.051  -7.097
24531SOL    HW275601   6.876  11.052  -7.102
24532SOL     OW75602  13.296   0.124   0.604
24532SOL    HW175603 -19.872   0.169   0.673
24532SOL    HW275604  -8.697   0.108   0.642
24533SOL     OW75605   6.170   5.199   9.028
24533SOL    HW175606  17.201   5.202   8.933
24533SOL    HW275607   6.246  16.181   9.043
24534SOL     OW75608   0.240   4.584   1.966
24534SOL    HW175609  11.208   4.647   1.973
24534SOL    HW275610  22.302   4.537   1.885
24535SOL     OW75611   6.904   5.067   1.312
24535SOL    HW175612   6.876  -5.889   1.349
24535SOL    HW275613  -4.216   5.014   1.310
24536SOL     OW75614  10.115   3.366   1.174
24536SOL    HW175615  10.136 -18.756   1.091
24536SOL    HW275616  10.172  25.522  12.216
24537SOL     OW75617   5.680  10.914   4.150
24537SOL    HW175618   5.666 -11.073 -17.907
24537SOL    HW275619   5.673  -0.171  -6.805
24538SOL     OW75620   1.509   9.972   4.848
24538SOL    HW175621   1.508  10.011   4.760
24538SOL    HW275622   1.444   9.902   4.845
24539SOL     OW75623   7.195   8.671   3.918
24539SOL    HW175624  18.157 -35.517   3.871
24539SOL    HW275625   7.262 -46.516 -18.228
24540SOL     OW75626   3.895   2.603   8.095
24540SOL    HW175627   3.931   2.521   8.063
24540SOL    HW275628   3.953   2.671   8.059
24541SOL     OW75629   6.350   3.812   5.977
24541SOL    HW175630   6.377   3.893   5.932
24541SOL    HW275631  -4.675   3.743   5.912
24542SOL     OW75632  -0.792   8.876   9.838
24542SOL    HW175633  -0.739   8.928   9.899
24542SOL    HW275634  21.222   8.834  -1.145
24543SOL     OW75635   7.313   5.927   9.083
24543SOL    HW175636   7.284 -16.197  -1.877
24543SOL    HW275637   7.300   5.863  42.132
24544SOL     OW75638  -0.590  10.171   6.911
24544SOL    HW175639  -0.497  10.195  -4.124
24544SOL    HW275640  10.406  10.234  -4.071
24545SOL     OW75641  10.031  -0.198   2.075
24545SOL    HW175642  10.038  21.965  -9.011
24545SOL    HW275643  10.122 -11.263  13.130
24546SOL     OW75644   4.993   0.616   7.516
24546SOL    HW175645   5.080   0.608   7.554
24546SOL    HW275646   4.994   0.558   7.440
24547SOL     OW75647   2.499   5.935   6.552
24547SOL    HW175648   2.577   5.901   6.595
24547SOL    HW275649   2.433   5.867   6.563
24548SOL     OW75650   0.141  11.375  10.394
24548SOL    HW175651  11.206   0.249  10.363
24548SOL    HW275652  11.086  11.380  -0.661
24549SOL     OW75653   8.654   2.486   9.199
24549SOL    HW175654   8.677   2.550  20.170
24549SOL    HW275655   8.614   2.414  -1.888
24550SOL     OW75656   6.697  10.268   0.672
24550SOL    HW175657   6.737  10.334   0.729
24550SOL    HW275658   6.603  10.277   0.686
24551SOL     OW75659   5.862   8.206   9.856
24551SOL    HW175660   5.784   8.232   9.905
24551SOL    HW275661  16.867   8.161   9.779
24552SOL     OW75662  10.508   2.264   8.345
24552SOL    HW175663  10.478   2.337  -2.641
24552SOL    HW275664  10.445   2.257  -2.765
24553SOL     OW75665   7.652  -0.982  11.034
24553SOL    HW175666   7.728  -1.002  10.980
24553SOL    HW275667  18.726  21.149  11.107
24554SOL     OW75668   9.241   0.934   0.955
24554SOL    HW175669   9.290   0.863   0.914
24554SOL    HW275670  -1.763  23.020   1.043
24555SOL     OW75671   2.984   2.914   8.837
24555SOL    HW175672  -8.111   2.894   8.761
24555SOL    HW275673   3.063   2.863   8.823
24556SOL     OW75674  10.079   9.045   8.258
24556SOL    HW175675  10.045   8.957  30.347
24556SOL    HW275676  21.191   9.050   8.320
24557SOL     OW75677   6.547   2.315   4.517
24557SOL    HW175678   6.516   2.227 -28.578
24557SOL    HW275679   6.466  -8.674   4.506
24558SOL     OW75680   9.222   1.726  10.114
24558SOL    HW175681  20.264   1.804  -0.870
24558SOL    HW275682  -1.881   1.748  10.045
24559SOL     OW75683  12.773   9.529   1.743
24559SOL    HW175684 -20.325   9.469  23.751
24559SOL    HW275685  12.830   9.501  12.855
24560SOL     OW75686  10.747   0.657   3.327
24560SOL    HW175687  -0.374   0.642   3.279
24560SOL    HW275688  10.811   0.682   3.260
24561SOL     OW75689   7.542   7.241   6.167
24561SOL    HW175690  18.513   7.219   6.104
24561SOL    HW275691   7.619   7.257   6.113
24562SOL     OW75692   5.572   7.006   9.830
24562SOL    HW175693   5.583   6.953   9.751
24562SOL    HW275694  27.624   7.092   9.798
24563SOL     OW75695   7.047  -0.294   7.460
24563SOL    HW175696   7.123  -0.257  -3.534
24563SOL    HW275697   7.056  10.776  -3.670
24564SOL     OW75698   5.109   0.226  10.094
24564SOL    HW175699   5.183   0.186  10.140
24564SOL    HW275700   5.064   0.277  10.162
24565SOL     OW75701   8.086  -1.146   7.118
24565SOL    HW175702   8.046  20.870   7.057
24565SOL    HW275703 -36.146  -1.116   7.172
24566SOL     OW75704  -0.364   7.496   9.551
24566SOL    HW175705  -0.381 -14.582  -1.394
24566SOL    HW275706  21.736  -3.453  20.569
24567SOL     OW75707   9.754   5.452   2.465
24567SOL    HW175708  20.789   5.414  13.592
24567SOL    HW275709   9.669   5.494   2.452
24568SOL     OW75710   7.302  11.428   8.911
24568SOL    HW175711   7.267   0.299  30.991
24568SOL    HW275712   7.393  11.418  -2.101
24569SOL     OW75713   1.314  10.004   4.506
24569SOL    HW175714   1.384  10.056   4.546
24569SOL    HW275715   1.339   9.999   4.413
24570SOL     OW75716   7.134   5.291   7.599
24570SOL    HW175717 -14.993   5.217  -3.404
24570SOL    HW275718  -3.893   5.269  -3.533
24571SOL     OW75719   7.682   4.237   5.733
24571SOL    HW175720   7.654  15.230   5.812
24571SOL    HW275721  29.758   4.330   5.757
24572SOL     OW75722   8.069   0.569   5.416
24572SOL    HW175723  19.031 -10.508   5.376
24572SOL    HW275724  30.138  11.591   5.510
24573SOL     OW75725   2.412  10.854   0.648
24573SOL    HW175726   2.361 -22.333   0.604
24573SOL    HW275727  13.516 -11.199   0.582
24574SOL     OW75728   8.852   6.154   5.369
24574SOL    HW175729 -24.222   6.229  -5.711
24574SOL    HW275730   8.884  28.157   5.320
24575SOL     OW75731   7.110   6.893   3.320
24575SOL    HW175732   7.135   6.842   3.397
24575SOL    HW275733 -14.909  -4.071   3.321
24576SOL     OW75734  11.496   4.948   3.975
24576SOL    HW175735   0.523  15.979  25.986
24576SOL    HW275736  11.502  -6.173  15.064
24577SOL     OW75737   3.493  -0.035   5.771
24577SOL    HW175738   3.552 -11.071 -16.232
24577SOL    HW275739   3.428  21.977  -5.245
24578SOL     OW75740   4.038   1.488   3.741
24578SOL    HW175741   4.117   1.448   3.778
24578SOL    HW275742   4.060 -20.574  14.689
24579SOL     OW75743   2.509   5.981   0.105
24579SOL    HW175744   2.432   6.029   0.075
24579SOL    HW275745  13.514  16.939   0.141
24580SOL     OW75746  10.161   8.289   0.693
24580SOL    HW175747 -11.854   8.288  11.662
24580SOL    HW275748  10.082   8.252   0.655
24581SOL     OW75749   3.824   2.805   2.340
24581SOL    HW175750   3.843   2.711   2.332
24581SOL    HW275751  25.974   2.848  35.411
24582SOL     OW75752   7.963   1.510   9.255
24582SOL    HW175753   7.910  -9.451  31.347
24582SOL    HW275754   8.046   1.543   9.220
24583SOL     OW75755   0.141   9.561   5.443
24583SOL    HW175756   0.102   9.585   5.359
24583SOL    HW275757   0.146   9.643   5.492
24584SOL     OW75758   6.082   8.209  -0.456
24584SOL    HW175759  17.168  19.330  10.599
24584SOL    HW275760  -4.977   8.209  -0.550
24585SOL     OW75761   8.407  10.068   2.755
24585SOL    HW175762   8.416  10.158   2.724
24585SOL    HW275763   8.474  10.059  -8.217
24586SOL     OW75764   8.387  11.893   4.357
24586SOL    HW175765   8.299  11.858  -6.690
24586SOL    HW275766   8.375 -10.091   4.364
24587SOL     OW75767   8.028   6.212   6.639
24587SOL    HW175768  -2.920   6.237 -15.432
24587SOL    HW275769   8.030  17.158   6.623
24588SOL     OW75770   7.040   1.202   0.550
24588SOL    HW175771   7.025  -9.913   0.607
24588SOL    HW275772   7.109   1.174   0.490
24589SOL     OW75773   4.878   7.749   7.905
24589SOL    HW175774  15.859   7.684   7.944
24589SOL    HW275775   4.944  18.805   7.973
24590SOL     OW75776   1.974   0.683  11.946
24590SOL    HW175777  13.059  22.726  12.022
24590SOL    HW275778   2.014  11.809 -21.184
24591SOL     OW75779   9.688   5.771   0.975
24591SOL    HW175780   9.667   5.678   0.971
24591SOL    HW275781   9.719   5.785  23.143
24592SOL     OW75782   2.197   5.599  10.242
24592SOL    HW175783   2.285   5.591  10.207
24592SOL    HW275784   2.209   5.639  10.328
24593SOL     OW75785   1.359   7.698   2.973
24593SOL    HW175786   1.387   7.763   2.909
24593SOL    HW275787   1.428   7.632   2.973
24594SOL     OW75788  11.037   9.117  10.943
24594SOL    HW175789  22.005   9.086  10.998
24594SOL    HW275790 -11.044   9.212  -0.086
24595SOL     OW75791  11.051   2.349   2.037
24595SOL    HW175792  11.114  13.372   1.967
24595SOL    HW275793 -33.086   2.437  13.108
24596SOL     OW75794   7.717   0.665   1.657
24596SOL    HW175795   7.768   0.710   1.724
24596SOL    HW275796   7.782   0.625  12.639
24597SOL     OW75797   9.093   8.300   4.715
24597SOL    HW175798  -1.853  19.340   4.738
24597SOL    HW275799  -1.949   8.335   4.626
24598SOL     OW75800   4.635   5.572  11.555
24598SOL    HW175801   4.636   5.619  11.638
24598SOL    HW275802   4.548  16.627 -10.560
24599SOL     OW75803   0.513   1.552   7.979
24599SOL    HW175804  11.586   1.634   8.017
24599SOL    HW275805  11.459  -9.486   8.000
24600SOL     OW75806  10.773   2.735   9.787
24600SOL    HW175807  10.778  -8.380   9.846
24600SOL    HW275808  -0.178   2.742 -12.329
24601SOL     OW75809   9.284   5.167   8.010
24601SOL    HW175810   9.338   5.211   7.944
24601SOL    HW275811   9.209   5.134   7.960
24602SOL     OW75812  12.799   7.467   7.192
24602SOL    HW175813  -9.344  -3.517   7.147
24602SOL    HW275814   1.738   7.479   7.285
24603SOL     OW75815  -0.016   1.178   7.012
24603SOL    HW175816   0.027   1.263   7.024
24603SOL    HW275817  22.086  12.191  40.041
24604SOL     OW75818   6.730   0.450   6.282
24604SOL    HW175819   6.667   0.378   6.290
24604SOL    HW275820   6.743   0.480   6.373
24605SOL     OW75821  10.890   7.330   1.162
24605SOL    HW175822  10.928  18.407   1.242
24605SOL    HW275823  10.843   7.403   1.122
24606SOL     OW75824   7.961  11.982   0.321
24606SOL    HW175825  18.916 -10.116   0.363
24606SOL    HW275826   7.978 -21.045   0.343
24607SOL     OW75827   5.142   7.088   8.964
24607SOL    HW175828   5.226   7.054   8.993
24607SOL    HW275829  -5.958  40.183   9.035
24608SOL     OW75830   3.067  10.025   6.415
24608SOL    HW175831   3.012   9.968   6.360
24608SOL    HW275832   3.078   9.975   6.496
24609SOL     OW75833   8.798   4.356   3.728
24609SOL    HW175834   8.839   4.442   3.730
24609SOL    HW275835   8.721  -6.673   3.672
24610SOL     OW75836  11.449   1.180   2.018
24610SOL    HW175837   0.502   1.200  13.070
24610SOL    HW275838   0.375   1.174   2.108
24611SOL     OW75839   6.665   7.070   2.052
24611SOL    HW175840   6.740   7.037   2.003
24611SOL    HW275841  17.665  40.253  -9.045
24612SOL     OW75842   9.540   3.459   4.054
24612SOL    HW175843   9.580   3.530   4.104
24612SOL    HW275844  -1.579   3.437   4.102
24613SOL     OW75845   7.571   5.070   7.419
24613SOL    HW175846  18.619  -5.896   7.359
24613SOL    HW275847   7.476 -17.025   7.425
24614SOL     OW75848   2.046   8.312   1.736
24614SOL    HW175849   2.123 -24.863  -9.313
24614SOL    HW275850  13.121   8.400  -9.296
24615SOL     OW75851   2.708  10.057   5.183
24615SOL    HW175852   2.719  10.034   5.276
24615SOL    HW275853   2.789  10.028 -27.978
24616SOL     OW75854   9.340   7.225   3.884
24616SOL    HW175855   9.294  -3.791   3.965
24616SOL    HW275856   9.418   7.178  14.953
24617SOL     OW75857   7.046   1.624   3.910
24617SOL    HW175858  -3.931   1.689   3.878
24617SOL    HW275859   6.972   1.676  14.982
24618SOL     OW75860   1.569   7.705   3.706
24618SOL    HW175861   1.507   7.705   3.778
24618SOL    HW275862   1.649 -36.416   3.742
24619SOL     OW75863   6.382   6.794   1.495
24619SOL    HW175864  -4.643  39.989   1.439
24619SOL    HW275865   6.470  -4.276  12.557
24620SOL     OW75866   9.990   1.533   7.836
24620SOL    HW175867  10.000  12.646   7.896
24620SOL    HW275868  10.047   1.465   7.872
24621SOL     OW75869   8.294   8.035   5.377
24621SOL    HW175870  41.427   8.028   5.283
24621SOL    HW275871  19.349   7.947   5.410
24622SOL     OW75872  -0.656   9.986   9.556
24622SOL    HW175873  -0.679   9.934 -12.447
24622SOL    HW275874  32.545  10.029   9.580
24623SOL     OW75875   3.578   5.031   0.614
24623SOL    HW175876 -29.488   5.103   0.648
24623SOL    HW275877   3.493 -17.010   0.596
24624SOL     OW75878  11.926  10.645   5.690
24624SOL    HW175879 -10.209  10.610  16.661
24624SOL    HW275880  11.866 -44.523  -5.282
24625SOL     OW75881   2.214   4.868   7.037
24625SOL    HW175882   2.164   4.885   6.957
24625SOL    HW275883  24.240  15.844   7.085
24626SOL     OW75884   8.418  -1.230  -0.336
24626SOL    HW175885   8.466  20.776  10.664
24626SOL    HW275886  30.529  65.011  32.873
24627SOL     OW75887   0.010  10.249   8.905
24627SOL    HW175888  11.105  -0.771   8.980
24627SOL    HW275889   0.061  10.279   8.829
24628SOL     OW75890   0.297   6.528   3.262
24628SOL    HW175891   0.373  39.631   3.318
24628SOL    HW275892  11.368   6.586   3.193
24629SOL     OW75893   9.463   3.564   7.165
24629SOL    HW175894   9.464   3.610  18.120
24629SOL    HW275895   9.378  14.625   7.203
24630SOL     OW75896   2.993   9.080   7.127
24630SOL    HW175897  14.091   9.005   7.118
24630SOL    HW275898   2.913   9.044 -25.955
24631SOL     OW75899   6.891   2.719   2.713
24631SOL    HW175900   6.825  -8.276   2.766
24631SOL    HW275901   6.848   2.704  -8.411
24632SOL     OW75902   8.860  10.178   9.066
24632SOL    HW175903   8.776  -0.901   9.045
24632SOL    HW275904   8.885  10.226  20.027
24633SOL     OW75905   3.862   1.522   9.752
24633SOL    HW175906   3.946   1.486   9.782
24633SOL    HW275907 -29.311   1.445   9.738
24634SOL     OW75908   9.779   6.464  10.620
24634SOL    HW175909  31.830   6.555  10.609
24634SOL    HW275910   9.853  17.509  -0.360
24635SOL     OW75911   8.593   1.334   1.965
24635SOL    HW175912   8.661   1.311   2.028
24635SOL    HW275913   8.513   1.294  13.037
24636SOL     OW75914   3.422   0.660   5.970
24636SOL    HW175915 -18.744  11.740 -16.112
24636SOL    HW275916   3.468   0.708   6.039
24637SOL     OW75917  12.031   4.400   2.887
24637SOL    HW175918  12.094   4.351   2.940
24637SOL    HW275919 -21.160  37.537  25.025
24638SOL     OW75920   2.491   2.508   6.810
24638SOL    HW175921   2.437   2.432  28.866
24638SOL    HW275922   2.428   2.579   6.825
24639SOL     OW75923   4.297   0.848   5.459
24639SOL    HW175924  15.291 -10.240  38.647
24639SOL    HW275925  26.428   0.782   5.414
24640SOL     OW75926   1.736   7.247   3.486
24640SOL    HW175927   1.782   7.302  25.628
24640SOL    HW275928  12.684   7.252  -7.527
24641SOL     OW75929  11.406   9.530  10.876
24641SOL    HW175930  11.426   9.533  10.783
24641SOL    HW275931   0.271   9.522  10.880
24642SOL     OW75932   2.361   6.439   2.351
24642SOL    HW175933  24.380   6.430   2.425
24642SOL    HW275934  24.526   6.453   2.390
24643SOL     OW75935   5.103   9.699   1.496
24643SOL    HW175936   5.151   9.756  12.596
24643SOL    HW275937  16.154   9.611   1.531
24644SOL     OW75938   4.211   7.747   8.076
24644SOL    HW175939  15.331  -3.255   8.039
24644SOL    HW275940   4.231   7.655   8.089
24645SOL     OW75941   6.077   3.589   3.449
24645SOL    HW175942   6.167   3.592   3.483
24645SOL    HW275943   6.033   3.524   3.503
24646SOL     OW75944   1.617   2.338  12.392
24646SOL    HW175945   1.693   2.305  12.344
24646SOL    HW275946   1.565 -30.859 -20.709
24647SOL     OW75947   2.584   1.658   5.924
24647SOL    HW175948   2.593   1.564  27.983
24647SOL    HW275949   2.673  -9.351  -5.101
24648SOL     OW75950   4.387   4.054   6.358
24648SOL    HW175951   4.359   4.097   6.439
24648SOL    HW275952   4.400   4.126   6.297
24649SOL     OW75953   9.124   4.433   4.234
24649SOL    HW175954   9.031   4.412   4.245
24649SOL    HW275955   9.170   4.365  15.322
24650SOL     OW75956   8.551  11.605   5.444
24650SOL    HW175957 -13.592   0.559   5.373
24650SOL    HW275958   8.506   0.613  16.553
24651SOL     OW75959   9.874   2.228   8.380
24651SOL    HW175960   9.807   2.264  -2.718
24651SOL    HW275961  -1.202   2.237   8.468
24652SOL     OW75962   4.454   1.349   5.549
24652SOL    HW175963   4.420   1.266   5.583
24652SOL    HW275964  -6.617   1.353   5.459
24653SOL     OW75965   6.859   3.722   4.944
24653SOL    HW175966 -15.182  14.674   4.946
24653SOL    HW275967   6.901   3.765   4.870
24654SOL     OW75968   8.043   7.580   3.476
24654SOL    HW175969 -14.013   7.656  47.688
24654SOL    HW275970  30.187   7.514   3.498
24655SOL     OW75971   0.226   3.144   8.899
24655SOL    HW175972   0.255   3.139   8.808
24655SOL    HW275973   0.136   3.176  -2.145
24656SOL     OW75974   7.943   3.159   1.868
24656SOL    HW175975  19.005   3.215   1.943
24656SOL    HW275976  29.940   3.117   1.894
24657SOL     OW75977   9.076   3.636   0.799
24657SOL    HW175978 -12.979   3.570   0.864
24657SOL    HW275979  -1.919   3.609  11.759
24658SOL     OW75980   0.712   7.653   6.941
24658SOL    HW175981   0.619 -14.424   6.965
24658SOL    HW275982   0.744   7.740  40.081
24659SOL     OW75983   3.444   6.872   9.661
24659SOL    HW175984   3.387   6.882   9.585
24659SOL    HW275985   3.390   6.827   9.727
24660SOL     OW75986  11.126  10.091   5.657
24660SOL    HW175987 -22.068  10.042   5.626
24660SOL    HW275988 -10.882  10.066   5.598
24661SOL     OW75989   1.789   9.696   8.387
24661SOL    HW175990   1.710 -23.445 -24.683
24661SOL    HW275991   1.841   9.749   8.447
24662SOL     OW75992   4.538  10.391   8.645
24662SOL    HW175993  -6.423 -22.699   8.692
24662SOL    HW275994  15.506  10.411  -2.334
24663SOL     OW75995   7.155   4.147   3.697
24663SOL    HW175996   7.075  15.239   3.695
24663SOL    HW275997 -14.928   4.100   3.780
24664SOL     OW75998   6.655   8.178   1.540
24664SOL    HW175999   6.573   8.213  -9.465
24664SOL    HW276000   6.636   8.160  -9.592
24665SOL     OW76001   8.842   9.633  11.013
24665SOL    HW176002   8.812  20.735   0.039
24665SOL    HW276003   8.925  20.640  22.086
24666SOL     OW76004   6.277   7.133   2.809
24666SOL    HW176005   6.357   7.121   2.758
24666SOL    HW276006  50.375   7.177  24.828
24667SOL     OW76007   8.446   7.069   7.550
24667SOL    HW176008   8.489   7.152   7.531
24667SOL    HW276009   8.439  40.185   7.645
24668SOL     OW76010   6.034   4.709   1.657
24668SOL    HW176011   6.064   4.790   1.699
24668SOL    HW276012  28.033   4.687  -9.336
24669SOL     OW76013   0.408   1.735   5.056
24669SOL    HW176014   0.465  23.763   4.999
24669SOL    HW276015  11.471   1.709   5.145
24670SOL     OW76016   5.088   7.179  -0.344
24670SOL    HW176017   5.113   7.097  -0.301
24670SOL    HW276018   5.009   7.207  10.741
24671SOL     OW76019   9.704   6.735  10.640
24671SOL    HW176020   9.725   6.827  10.621
24671SOL    HW276021 -12.450   6.716  10.584
24672SOL     OW76022   8.168   3.786   9.113
24672SOL    HW176023   8.190   3.861   9.058
24672SOL    HW276024   8.085   3.754   9.078
24673SOL     OW76025   2.042   5.195   7.602
24673SOL    HW176026   2.034 -16.899   7.696
24673SOL    HW276027   1.955   5.176   7.567
24674SOL     OW76028   4.740   0.564   7.736
24674SOL    HW176029   4.734   0.498   7.667
24674SOL    HW276030   4.833   0.587  -3.300
24675SOL     OW76031  -1.150   5.037   8.551
24675SOL    HW176032  -1.176  -5.917   8.586
24675SOL    HW276033  20.861   5.017   8.487
24676SOL     OW76034   7.973   2.451   9.266
24676SOL    HW176035   7.981  -8.628   9.179
24676SOL    HW276036   7.889  -8.620   9.299
24677SOL     OW76037  10.128   4.332   1.069
24677SOL    HW176038  10.162  15.377   0.979
24677SOL    HW276039  10.195  15.323  12.157
24678SOL     OW76040   2.287   1.177   4.369
24678SOL    HW176041   2.365   1.127   4.345
24678SOL    HW276042  13.344   1.266 -17.742
24679SOL     OW76043   5.244   2.940   4.556
24679SOL    HW176044   5.171  36.009  15.559
24679SOL    HW276045   5.320   2.915  48.661
24680SOL     OW76046   9.594   6.212   0.696
24680SOL    HW176047   9.540 -15.891   0.621
24680SOL    HW276048   9.624 -38.030 -10.309
24681SOL     OW76049   9.415   6.916   9.174
24681SOL    HW176050   9.364 -15.191   9.098
24681SOL    HW276051   9.503 -15.149   9.141
24682SOL     OW76052   2.916   5.870   9.464
24682SOL    HW176053   3.007   5.900   9.464
24682SOL    HW276054  -8.117  16.815   9.481
24683SOL     OW76055  11.420   8.210   8.757
24683SOL    HW176056  11.501   8.244   8.794
24683SOL    HW276057   0.408   8.148   8.690
24684SOL     OW76058   8.842   4.757  -0.130
24684SOL    HW176059   8.918   4.791  -0.176
24684SOL    HW276060  -2.229  15.871  10.961
24685SOL     OW76061   5.399   9.154   6.701
24685SOL    HW176062   5.468   9.213  -4.308
24685SOL    HW276063  16.383   9.139   6.777
24686SOL     OW76064  -0.191   1.460   7.751
24686SOL    HW176065  21.967   1.409 -14.346
24686SOL    HW276066  -0.205   1.451   7.845
24687SOL     OW76067   2.513   6.160   8.391
24687SOL    HW176068   2.452   6.221 -13.647
24687SOL    HW276069  35.691   6.134   8.461
24688SOL     OW76070   9.901  10.873   5.718
24688SOL    HW176071   9.920  10.830  -5.405
24688SOL    HW276072   9.864  10.804   5.773
24689SOL     OW76073   6.622   7.122   3.447
24689SOL    HW176074  -4.513 -14.958   3.433
24689SOL    HW276075   6.652  18.240  14.440
24690SOL     OW76076   2.368   5.571   3.656
24690SOL    HW176077   2.430   5.607  -7.448
24690SOL    HW276078   2.322   5.502   3.608
24691SOL     OW76079  -1.190   9.685   2.607
24691SOL    HW176080   9.808   9.754   2.556
24691SOL    HW276081   9.928   9.662   2.557
24692SOL     OW76082   1.021  10.153   3.362
24692SOL    HW176083   1.028  10.156   3.458
24692SOL    HW276084   0.928  21.175  14.385
24693SOL     OW76085  -0.562   8.289   7.238
24693SOL    HW176086  10.481   8.207   7.189
24693SOL    HW276087  -0.558 -24.856  51.488
24694SOL     OW76088   4.993  10.690   9.225
24694SOL    HW176089   4.956  10.708  -1.901
24694SOL    HW276090   5.056  -0.280  -1.801
24695SOL     OW76091   9.521   7.735   3.115
24695SOL    HW176092   9.492   7.823  -7.951
24695SOL    HW276093  20.594  -3.293   3.204
24696SOL     OW76094   5.001   8.572  10.441
24696SOL    HW176095   5.020 -13.415  10.459
24696SOL    HW276096  27.166  19.570  10.435
24697SOL     OW76097   8.941  -1.978   6.617
24697SOL    HW176098   8.914  42.264   6.654
24697SOL    HW276099 -13.070  -2.010   6.676
24698SOL     OW76100   1.776   1.493   3.127
24698SOL    HW176101   1.718  -9.472  25.190
24698SOL    HW276102   1.837  23.572   3.054
24699SOL     OW76103   1.342  11.413   3.502
24699SOL    HW176104   1.364  11.365   3.422
24699SOL    HW276105  12.372   0.464  -7.565
24700SOL     OW76106  10.157  10.307   5.881
24700SOL    HW176107  10.244  10.344   5.871
24700SOL    HW276108  21.172  10.327   5.971
24701SOL     OW76109   8.436   2.199   5.150
24701SOL    HW176110  19.444   2.274   5.099
24701SOL    HW276111  19.468   2.125   5.089
24702SOL     OW76112   5.869  11.070   2.725
24702SOL    HW176113  16.885  11.111  24.887
24702SOL    HW276114  -5.121 -10.942  -8.362
24703SOL     OW76115  -0.493   1.350   6.965
24703SOL    HW176116  21.500   1.376  18.039
24703SOL    HW276117  32.622   1.373   6.872
24704SOL     OW76118   8.373   5.344   1.107
24704SOL    HW176119   8.408   5.425   1.070
24704SOL    HW276120 -13.729  16.330   1.031
24705SOL     OW76121   3.915   7.432   4.679
24705SOL    HW176122   3.892   7.518   4.714
24705SOL    HW276123   3.833   7.399   4.642
24706SOL     OW76124   3.889   1.406   6.540
24706SOL    HW176125  -7.159   1.465   6.615
24706SOL    HW276126 -18.131  12.377   6.570
24707SOL     OW76127   4.196   9.182   5.877
24707SOL    HW176128   4.271   9.184  -5.105
24707SOL    HW276129   4.225  20.265   5.797
24708SOL     OW76130  -1.232   8.738  11.620
24708SOL    HW176131  31.940   8.772  11.548
24708SOL    HW276132  -1.209  -2.247 -10.384
24709SOL     OW76133  10.203   4.826   7.452
24709SOL    HW176134  10.153   4.753   7.488
24709SOL    HW276135  10.165   4.840   7.365
24710SOL     OW76136   3.722   7.795   8.987
24710SOL    HW176137  14.776  18.830   9.081
24710SOL    HW276138  14.769   7.888   8.966
24711SOL     OW76139   2.405   0.529   1.564
24711SOL    HW176140  13.523  11.579   1.510
24711SOL    HW276141   2.384   0.618   1.591
24712SOL     OW76142   6.331   9.842   9.477
24712SOL    HW176143   6.247  20.841  31.533
24712SOL    HW276144  -4.668   9.862   9.393
24713SOL     OW76145   4.859   7.695   3.679
24713SOL    HW176146   4.936  -3.401   3.669
24713SOL    HW276147 -28.254   7.757  14.646
24714SOL     OW76148   3.096   5.623   9.826
24714SOL    HW176149   3.045   5.693   9.867
24714SOL    HW276150   3.043   5.595   9.751
24715SOL     OW76151  14.329   6.933   8.725
24715SOL    HW176152 -18.845   6.854   8.727
24715SOL    HW276153 -18.795  18.007   8.814
24716SOL     OW76154   7.865   4.245   2.598
24716SOL    HW176155   7.945   4.280  24.716
24716SOL    HW276156   7.801   4.316   2.606
24717SOL     OW76157   4.284   2.407  11.650
24717SOL    HW176158   4.327   2.492 -21.468
24717SOL    HW276159   4.353  13.384   0.629
24718SOL     OW76160   6.840   7.566   5.897
24718SOL    HW176161   6.831   7.661   5.908
24718SOL    HW276162   6.934   7.550   5.902
24719SOL     OW76163   7.459   3.049   1.949
24719SOL    HW176164   7.366   3.073   1.958
24719SOL    HW276165  51.622   2.958   1.978
24720SOL     OW76166   2.722   5.197   5.961
24720SOL    HW176167   2.708   5.292   5.968
24720SOL    HW276168  24.756   5.160  -5.003
24721SOL     OW76169   5.488   9.134   6.249
24721SOL    HW176170   5.405   9.090   6.267
24721SOL    HW276171   5.494  -1.838   6.316
24722SOL     OW76172   8.715   7.652   6.607
24722SOL    HW176173   8.631   7.610  -4.414
24722SOL    HW276174   8.743   7.614   6.524
24723SOL     OW76175   8.030   9.460   5.561
24723SOL    HW176176   8.068  20.422   5.520
24723SOL    HW276177  19.067   9.525   5.491
24724SOL     OW76178  -1.355   0.722   9.478
24724SOL    HW176179  42.768   0.645   9.432
24724SOL    HW276180  -1.405   0.796   9.442
24725SOL     OW76181   7.105   7.188   5.259
24725SOL    HW176182   7.077   7.117  -5.838
24725SOL    HW276183  18.151  -3.775   5.201
24726SOL     OW76184   9.345   4.250   2.765
24726SOL    HW176185   9.368  15.367   2.816
24726SOL    HW276186  -1.613   4.199   2.760
24727SOL     OW76187   1.291   7.852   8.801
24727SOL    HW176188   1.383   7.881   8.799
24727SOL    HW276189   1.242   7.932   8.821
24728SOL     OW76190   0.003   6.058   4.633
24728SOL    HW176191   0.004   6.150  26.739
24728SOL    HW276192   0.071   6.052   4.566
24729SOL     OW76193   1.042   7.885   9.421
24729SOL    HW176194  -9.925  18.870   9.392
24729SOL    HW276195   0.980   7.883   9.348
24730SOL     OW76196   2.650   8.436   7.793
24730SOL    HW176197  13.603   8.395  -3.237
24730SOL    HW276198  -8.383   8.495   7.868
24731SOL     OW76199  10.951   9.029   5.197
24731SOL    HW176200  11.010   9.004   5.126
24731SOL    HW276201  -0.031   9.043  27.351
24732SOL     OW76202   5.839   7.835  11.695
24732SOL    HW176203   5.798 -25.310  11.613
24732SOL    HW276204   5.910   7.772 -10.371
24733SOL     OW76205   5.994   9.737  10.101
24733SOL    HW176206  -5.113   9.669  10.099
24733SOL    HW276207   6.077   9.689  21.146
24734SOL     OW76208   0.946   4.206   5.575
24734SOL    HW176209   0.972   4.294   5.603
24734SOL    HW276210 -10.023   4.149   5.606
24735SOL     OW76211   3.764   5.886   5.306
24735SOL    HW176212   3.701   5.893   5.234
24735SOL    HW276213  -7.261   5.792  -5.724
24736SOL     OW76214   0.227  10.848   8.447
24736SOL    HW176215   0.199  10.758   8.465
24736SOL    HW276216  11.185  10.899   8.447
24737SOL     OW76217   0.647   5.918   4.668
24737SOL    HW176218   0.634   5.880   4.582
24737SOL    HW276219 -10.480   5.922   4.707
24738SOL     OW76220   5.482   4.025   4.579
24738SOL    HW176221 -27.545   4.023  -6.431
24738SOL    HW276222  -5.552   4.039   4.485
24739SOL     OW76223   4.389   2.584   7.762
24739SOL    HW176224  37.598   2.559 -25.335
24739SOL    HW276225   4.391   2.601   7.668
24740SOL     OW76226   0.726   6.435   1.752
24740SOL    HW176227   0.733 -15.624   1.845
24740SOL    HW276228 -10.401   6.466   1.727
24741SOL     OW76229   2.374  10.856   4.152
24741SOL    HW176230  -8.604 -11.169   4.202
24741SOL    HW276231   2.320  10.814  37.337
24742SOL     OW76232   6.788   1.950   6.100
24742SOL    HW176233  17.884  35.022  -4.878
24742SOL    HW276234   6.725  35.115   6.156
24743SOL     OW76235   3.003   4.310   4.784
24743SOL    HW176236   2.935  26.456   4.789
24743SOL    HW276237   3.052   4.319   4.866
24744SOL     OW76238   1.499   8.320   8.446
24744SOL    HW176239  34.665  30.323   8.479
24744SOL    HW276240   1.408  19.344  -2.568
24745SOL     OW76241   9.408   4.783   6.440
24745SOL    HW176242   9.393   4.849  17.411
24745SOL    HW276243  -1.599   4.706   6.392
24746SOL     OW76244   8.134   4.137   8.569
24746SOL    HW176245   8.174   4.216  19.644
24746SOL    HW276246  19.080   4.148   8.583
24747SOL     OW76247   1.737   6.446   4.523
24747SOL    HW176248  -9.274   6.523  -6.566
24747SOL    HW276249  -9.343   6.483   4.602
24748SOL     OW76250   9.496   5.308   4.662
24748SOL    HW176251   9.522   5.242  15.765
24748SOL    HW276252 -12.621   5.379   4.714
24749SOL     OW76253   7.084   3.965   3.109
24749SOL    HW176254  -4.012  37.040  25.251
24749SOL    HW276255  -4.007   3.969   3.029
24750SOL     OW76256   5.347   6.264   0.092
24750SOL    HW176257   5.311   6.190   0.043
24750SOL    HW276258   5.368  17.369   0.026
24751SOL     OW76259   3.677   0.543   8.407
24751SOL    HW176260   3.707   0.553   8.317
24751SOL    HW276261   3.755   0.516   8.455
24752SOL     OW76262   1.185   6.742   9.472
24752SOL    HW176263   1.241   6.782   9.407
24752SOL    HW276264   1.182   6.805   9.544
24753SOL     OW76265   8.932   0.370   6.383
24753SOL    HW176266  20.003  22.483   6.299
24753SOL    HW276267   8.877   0.441   6.418
24754SOL     OW76268  10.243   0.266   3.581
24754SOL    HW176269  10.215  22.425 -29.584
24754SOL    HW276270  10.300   0.221  -7.521
24755SOL     OW76271   3.407  10.372  10.498
24755SOL    HW176272   3.431  10.355  -0.450
24755SOL    HW276273   3.365  21.497  10.500
24756SOL     OW76274   9.907  10.610   3.021
24756SOL    HW176275  -1.082  10.548   3.072
24756SOL    HW276276   9.835  10.559   2.984
24757SOL     OW76277   8.731   7.537  10.167
24757SOL    HW176278   8.791   7.610  10.184
24757SOL    HW276279   8.714   7.541  -0.967
24758SOL     OW76280   9.144   6.305   4.562
24758SOL    HW176281  31.272  17.347   4.479
24758SOL    HW276282   9.194   6.244   4.617
24759SOL     OW76283   9.721   3.663   6.555
24759SOL    HW176284  20.681  -7.422  -4.511
24759SOL    HW276285   9.776   3.596 -26.524
24760SOL     OW76286   7.963   6.588   6.486
24760SOL    HW176287  18.979   6.502   6.452
24760SOL    HW276288   8.004   6.633   6.413
24761SOL     OW76289   4.318   6.249   5.714
24761SOL    HW176290   4.274 -15.747   5.698
24761SOL    HW276291  -6.792   6.185  27.801
24762SOL     OW76292   0.687   6.901   1.101
24762SOL    HW176293   0.736   6.851   1.166
24762SOL    HW276294   0.736   6.887 -10.020
24763SOL     OW76295  10.984   8.630  10.702
24763SOL    HW176296  -0.111   8.591 -22.484
24763SOL    HW276297  -0.097 -13.365  10.723
24764SOL     OW76298   2.939   0.329   0.298
24764SOL    HW176299   2.959   0.244  22.415
24764SOL    HW276300   3.023   0.363   0.268
24765SOL     OW76301  10.261   4.435   2.220
24765SOL    HW176302  -0.834   4.396   2.151
24765SOL    HW276303 -11.880   4.470  13.323
24766SOL     OW76304   0.584   8.359   2.114
24766SOL    HW176305   0.535   8.361   2.031
24766SOL    HW276306   0.674  -2.660   2.089
24767SOL     OW76307   7.896   6.320   1.812
24767SOL    HW176308   7.840   6.358   1.879
24767SOL    HW276309  18.880 -26.806  12.774
24768SOL     OW76310   8.732  10.516   8.049
24768SOL    HW176311   8.727  10.608   8.026
24768SOL    HW276312   8.653  10.477   8.013
24769SOL     OW76313  10.260   9.168   6.923
24769SOL    HW176314  10.240   9.180   7.016
24769SOL    HW276315  10.343   9.120   6.923
24770SOL     OW76316   9.840   9.161   9.930
24770SOL    HW176317  20.959  20.245  -1.080
24770SOL    HW276318   9.769 -23.913   9.975
24771SOL     OW76319   5.623   6.563   6.706
24771SOL    HW176320   5.684 -15.558   6.767
24771SOL    HW276321   5.633   6.512   6.625
24772SOL     OW76322  -0.441   4.924   0.645
24772SOL    HW176323  10.587  -6.189   0.583
24772SOL    HW276324  10.629   4.996   0.590
24773SOL     OW76325  10.972  -2.668   5.773
24773SOL    HW176326  10.941   8.327   5.853
24773SOL    HW276327   0.000  41.432   5.739
24774SOL     OW76328   0.772   3.910   8.580
24774SOL    HW176329 -10.226   3.963   8.649
24774SOL    HW276330   0.743   3.974  -2.524
24775SOL     OW76331  -0.450   6.357   9.422
24775SOL    HW176332  10.659   6.372   9.357
24775SOL    HW276333  -0.471   6.444   9.456
24776SOL     OW76334   0.392   0.106   1.191
24776SOL    HW176335  33.538   0.170   1.126
24776SOL    HW276336 -21.768   0.068  12.195
24777SOL     OW76337   0.029   4.766   5.886
24777SOL    HW176338   0.064   4.708   5.818
24777SOL    HW276339  -0.035   4.712   5.933
24778SOL     OW76340  11.029   6.722   0.482
24778SOL    HW176341 -10.992   6.654   0.516
24778SOL    HW276342  10.953   6.721  11.579
24779SOL     OW76343   3.450   8.007   5.926
24779SOL    HW176344   3.504  -3.098   5.970
24779SOL    HW276345 -29.737 -14.123  -5.157
24780SOL     OW76346   8.114   4.397   8.440
24780SOL    HW176347   8.198   4.420   8.399
24780SOL    HW276348  19.122   4.323   8.390
24781SOL     OW76349   7.610  10.899   7.149
24781SOL    HW176350 -36.525  10.855  18.270
24781SOL    HW276351 -25.516  10.992  18.213
24782SOL     OW76352   6.547   1.903   9.070
24782SOL    HW176353   6.584   1.815   9.080
24782SOL    HW276354  28.669   1.939  31.072
24783SOL     OW76355   7.216   2.949   0.041
24783SOL    HW176356   7.199   2.856   0.029
24783SOL    HW276357  18.174  -8.057   0.080
24784SOL     OW76358   5.877   1.562   0.359
24784SOL    HW176359   5.939  -9.533  11.351
24784SOL    HW276360  -5.226  -9.451  11.333
24785SOL     OW76361   2.827   9.107  10.619
24785SOL    HW176362  13.886   9.154  10.538
24785SOL    HW276363   2.841  20.054  10.596
24786SOL     OW76364   8.144  10.148   3.872
24786SOL    HW176365   8.094  10.224   3.842
24786SOL    HW276366   8.236  10.175   3.863
24787SOL     OW76367   7.193   6.655   4.279
24787SOL    HW176368  -3.833 -15.473   4.360
24787SOL    HW276369   7.165  -4.451   4.216
24788SOL     OW76370   7.525   2.149   2.401
24788SOL    HW176371   7.620  13.174   2.404
24788SOL    HW276372   7.515  24.323   2.412
24789SOL     OW76373   6.652   1.427   2.388
24789SOL    HW176374  17.683   1.334  13.448
24789SOL    HW276375   6.637   1.432   2.294
24790SOL     OW76376  10.613   4.378   5.207
24790SOL    HW176377  10.683   4.419 -27.862
24790SOL    HW276378  10.541   4.368  -5.770
24791SOL     OW76379   9.884   4.086   6.388
24791SOL    HW176380   9.911 -18.005  17.336
24791SOL    HW276381   9.966 -17.982   6.436
24792SOL     OW76382   4.081   6.326   1.396
24792SOL    HW176383   4.010  -4.654   1.373
24792SOL    HW276384  -6.971   6.308  -9.550
24793SOL     OW76385   6.634   7.739   5.728
24793SOL    HW176386   6.644  29.888   5.793
24793SOL    HW276387   6.711   7.749   5.671
24794SOL     OW76388   0.265   1.109   2.281
24794SOL    HW176389   0.313  23.106  35.409
24794SOL    HW276390   0.173  -9.955   2.282
24795SOL     OW76391   9.676   6.590   7.830
24795SOL    HW176392   9.588   6.564   7.800
24795SOL    HW276393   9.661  28.710   7.915
24796SOL     OW76394   0.278   6.111  10.131
24796SOL    HW176395   0.283   6.048  10.202
24796SOL    HW276396  11.266  39.302  21.205
24797SOL     OW76397   1.478   7.744   6.906
24797SOL    HW176398   1.545   7.813  17.954
24797SOL    HW276399   1.522   7.665  17.976
24798SOL     OW76400   3.102  10.097  10.192
24798SOL    HW176401   3.009  -0.959  -0.831
24798SOL    HW276402   3.142  10.009  10.194
24799SOL     OW76403   4.770   1.510   0.541
24799SOL    HW176404   4.688   1.553   0.519
24799SOL    HW276405   4.799   1.552   0.622
24800SOL     OW76406  10.497   0.184   6.886
24800SOL    HW176407  10.513  11.268  29.049
24800SOL    HW276408  10.408   0.208  28.942
24801SOL     OW76409   3.408   7.548  -0.166
24801SOL    HW176410   3.441   7.529  -0.079
24801SOL    HW276411   3.319   7.513  21.912
24802SOL     OW76412  10.208   3.063   0.603
24802SOL    HW176413  10.210  -8.012   0.514
24802SOL    HW276414  10.296   3.097   0.617
24803SOL     OW76415   5.686  10.432   8.067
24803SOL    HW176416   5.725  10.497   8.008
24803SOL    HW276417   5.619  10.481   8.115
24804SOL     OW76418   1.354   7.642  10.707
24804SOL    HW176419   1.341 -25.423  10.628
24804SOL    HW276420   1.355   7.705  10.779
24805SOL     OW76421   4.284   9.626   6.176
24805SOL    HW176422  15.332   9.718   6.151
24805SOL    HW276423   4.368  20.643  17.254
24806SOL     OW76424   4.442   6.884   6.870
24806SOL    HW176425   4.472  -4.086   6.811
24806SOL    HW276426  15.392  -4.131   6.892
24807SOL     OW76427   9.118   5.830   7.265
24807SOL    HW176428   9.174   5.880  18.246
24807SOL    HW276429   9.180   5.783  18.361
24808SOL     OW76430   1.465   5.134   4.755
24808SOL    HW176431   1.398 -17.013   4.757
24808SOL    HW276432   1.475  -5.884 -17.417
24809SOL     OW76433   7.253   2.966  10.522
24809SOL    HW176434  -3.826  -8.135  10.460
24809SOL    HW276435   7.180 -19.079  10.572
24810SOL     OW76436   7.433   7.821   3.506
24810SOL    HW176437  18.478  18.782   3.451
24810SOL    HW276438   7.439   7.894   3.445
24811SOL     OW76439   4.791   4.992   6.307
24811SOL    HW176440   4.886  16.037  17.330
24811SOL    HW276441   4.753  27.056   6.221
24812SOL     OW76442   2.426   1.920  13.496
24812SOL    HW176443   2.461  46.167   2.447
24812SOL    HW276444   2.337  12.964 -19.656
24813SOL     OW76445   8.124   6.685   7.640
24813SOL    HW176446   8.073   6.699   7.561
24813SOL    HW276447   8.074   6.620  -3.350
24814SOL     OW76448  11.419   5.176   9.229
24814SOL    HW176449  11.405   5.265   9.197
24814SOL    HW276450 -10.702  -5.866   9.315
24815SOL     OW76451   8.037   8.513   6.816
24815SOL    HW176452   8.062  -2.544   6.907
24815SOL    HW276453  19.003   8.453   6.800
24816SOL     OW76454  12.590   2.596   6.120
24816SOL    HW176455 -31.617   2.672   6.086
24816SOL    HW276456 -20.551   2.525   6.059
24817SOL     OW76457   7.644   4.678  10.256
24817SOL    HW176458   7.727   4.718 -22.888
24817SOL    HW276459   7.666   4.587  -0.765
24818SOL     OW76460   2.828   2.373   2.158
24818SOL    HW176461   2.901   2.338   2.210
24818SOL    HW276462   2.750   2.345   2.205
24819SOL     OW76463   4.864   7.908   9.722
24819SOL    HW176464  -6.115  41.100   9.709
24819SOL    HW276465 -17.255  18.964   9.808
24820SOL     OW76466   7.461   8.426   9.977
24820SOL    HW176467   7.443  19.505  21.102
24820SOL    HW276468  29.604  30.563   9.936
24821SOL     OW76469   7.826   8.034   2.616
24821SOL    HW176470   7.919  -2.998   2.596
24821SOL    HW276471  29.902 -25.130   2.700
24822SOL     OW76472   5.925   5.741   1.861
24822SOL    HW176473  -5.184   5.801   1.887
24822SOL    HW276474   5.924   5.672   1.928
24823SOL     OW76475   9.724   5.884   1.245
24823SOL    HW176476  20.808   5.846  12.360
24823SOL    HW276477 -23.467   5.935   1.282
24824SOL     OW76478   1.125   6.350   1.780
24824SOL    HW176479   1.054  17.421   1.836
24824SOL    HW276480   1.083  17.373   1.696
24825SOL     OW76481   1.711   0.606   9.196
24825SOL    HW176482   1.731  11.567  20.285
24825SOL    HW276483  12.707   0.664   9.260
24826SOL     OW76484   3.919   1.954  -0.327
24826SOL    HW176485   3.986   1.887  10.698
24826SOL    HW276486   3.953   2.031  10.666
24827SOL     OW76487   2.501   1.438   7.295
24827SOL    HW176488   2.494   1.413   7.387
24827SOL    HW276489   2.594 -20.623   7.282
24828SOL     OW76490  10.780   5.626   9.811
24828SOL    HW176491  10.838  16.641   9.739
24828SOL    HW276492  10.804   5.717  -1.208
24829SOL     OW76493   4.220   6.381   8.779
24829SOL    HW176494  -6.895  17.387   8.829
24829SOL    HW276495   4.188   6.462   8.739
24830SOL     OW76496   3.865   9.896   1.062
24830SOL    HW176497   3.889  -1.096  -9.898
24830SOL    HW276498  25.857   9.861  12.120
24831SOL     OW76499   1.093   4.705   4.676
24831SOL    HW176500   1.031   4.690   4.747
24831SOL    HW276501   1.038   4.724  26.679
24832SOL     OW76502   9.667   8.479   5.613
24832SOL    HW176503  20.793   8.510   5.641
24832SOL    HW276504   9.626   8.555   5.572
24833SOL     OW76505  10.392   0.942   5.574
24833SOL    HW176506  10.335   1.004   5.619
24833SOL    HW276507  21.380 -10.126   5.498
24834SOL     OW76508   0.242   6.072   2.613
24834SOL    HW176509   0.178   6.030  13.596
24834SOL    HW276510   0.218   6.044  13.741
24835SOL     OW76511   1.017   4.101   4.416
24835SOL    HW176512  12.085 -18.063   4.383
24835SOL    HW276513   1.074   4.117   4.491
24836SOL     OW76514   3.453   0.713   6.849
24836SOL    HW176515   3.518   0.672   6.906
24836SOL    HW276516   3.502  22.819  -4.268
24837SOL     OW76517   0.918   2.324   6.883
24837SOL    HW176518 -10.058   2.325  -4.085
24837SOL    HW276519  11.973   2.405   6.835
24838SOL     OW76520   2.729   1.853   7.282
24838SOL    HW176521  -8.303  -9.095   7.256
24838SOL    HW276522   2.637   1.844   7.307
24839SOL     OW76523   1.817   7.665  -0.611
24839SOL    HW176524  12.774  18.726  21.511
24839SOL    HW276525   1.838   7.577 -11.619
24840SOL     OW76526   6.877   3.921   8.234
24840SOL    HW176527   6.915   4.001   8.270
24840SOL    HW276528   6.934  -7.188   8.267
24841SOL     OW76529   5.193  11.264   4.850
24841SOL    HW176530   5.161  11.189  15.939
24841SOL    HW276531   5.268 -10.784   4.900
24842SOL     OW76532   9.340   1.122   9.446
24842SOL    HW176533  -1.692  12.192   9.356
24842SOL    HW276534   9.385  23.268  -1.542
24843SOL     OW76535   6.842   5.289   3.759
24843SOL    HW176536   6.826   5.217   3.820
24843SOL    HW276537   6.807   5.259   3.675
24844SOL     OW76538   0.036   5.976   5.908
24844SOL    HW176539  -0.017   5.897 -16.180
24844SOL    HW276540   0.117   5.957   5.861
24845SOL     OW76541   2.683   7.661   9.316
24845SOL    HW176542   2.750  -3.375   9.385
24845SOL    HW276543   2.733  -3.369  31.313
24846SOL     OW76544   8.415  10.219   6.863
24846SOL    HW176545  41.629  -0.830   6.867
24846SOL    HW276546   8.394  10.280  17.973
24847SOL     OW76547   6.674   1.480   8.069
24847SOL    HW176548   6.640  -9.513   8.145
24847SOL    HW276549   6.769   1.483 -25.040
24848SOL     OW76550   0.935   0.848   6.412
24848SOL    HW176551   0.911   0.873   6.323
24848SOL    HW276552  23.072   0.918   6.442
24849SOL     OW76553   2.745   1.677   5.282
24849SOL    HW176554   2.839  23.754   5.304
24849SOL    HW276555   2.722   1.584   5.272
24850SOL     OW76556   4.503   7.355   3.927
24850SOL    HW176557   4.550   7.411  -7.174
24850SOL    HW276558   4.425   7.406   3.950
24851SOL     OW76559   8.200   2.584   8.854
24851SOL    HW176560   8.181   2.491   8.866
24851SOL    HW276561   8.191  24.678   8.760
24852SOL     OW76562   9.855   0.411   3.022
24852SOL    HW176563 -12.165   0.423  -8.092
24852SOL    HW276564   9.805   0.493   3.025
24853SOL     OW76565   5.055   6.790   4.529
24853SOL    HW176566  16.069   6.700   4.508
24853SOL    HW276567  27.106  17.842  15.660
24854SOL     OW76568   6.287   8.200   7.422
24854SOL    HW176569   6.237   8.251  29.565
24854SOL    HW276570  39.342  19.178   7.386
24855SOL     OW76571   8.530   2.542   7.799
24855SOL    HW176572   8.456   2.540   7.859
24855SOL    HW276573   8.503  13.640   7.728
24856SOL     OW76574   6.952   7.822  12.386
24856SOL    HW176575   6.916 -14.220  12.466
24856SOL    HW276576   6.953   7.728 -20.718
24857SOL     OW76577   6.743   7.977   5.910
24857SOL    HW176578 -26.353   8.042   5.844
24857SOL    HW276579 -15.424  19.041  16.979
24858SOL     OW76580  11.696   4.485   1.878
24858SOL    HW176581   0.745  -6.565   1.845
24858SOL    HW276582   0.637   4.578   1.866
24859SOL     OW76583   7.825   2.458   0.867
24859SOL    HW176584  -3.257   2.538   0.835
24859SOL    HW276585   7.757   2.391   0.860
24860SOL     OW76586   2.071   2.855   7.470
24860SOL    HW176587  13.105 -19.170   7.391
24860SOL    HW276588   2.163   2.859  -3.544
24861SOL     OW76589   2.697   0.930   7.994
24861SOL    HW176590   2.704   0.847   8.042
24861SOL    HW276591   2.729 -10.044   8.056
24862SOL     OW76592   8.131   8.216   3.979
24862SOL    HW176593   8.100  19.178   3.930
24862SOL    HW276594   8.132   8.286  14.953
24863SOL     OW76595   7.621   1.183   4.657
24863SOL    HW176596   7.660   1.099   4.634
24863SOL    HW276597   7.530   1.163   4.678
24864SOL     OW76598  10.207  10.445   1.717
24864SOL    HW176599  10.168  10.358   1.715
24864SOL    HW276600  21.328  10.436  23.747
24865SOL     OW76601   5.864   1.188   5.971
24865SOL    HW176602   5.902   1.176   5.884
24865SOL    HW276603   5.795  -9.918  -5.063
24866SOL     OW76604   8.913   5.684  10.096
24866SOL    HW176605  -2.076  27.717  -1.010
24866SOL    HW276606  -2.184   5.616  10.133
24867SOL     OW76607   1.314   8.646   6.738
24867SOL    HW176608   1.321 -24.565   6.714
24867SOL    HW276609   1.230 -13.405   6.702
24868SOL     OW76610   0.876   3.262   4.806
24868SOL    HW176611   0.873   3.190  15.782
24868SOL    HW276612 -10.232   3.241  15.910
24869SOL     OW76613   7.703   0.088   1.170
24869SOL    HW176614   7.673   0.110   1.258
24869SOL    HW276615  -3.244   0.113   1.169
24870SOL     OW76616   0.425   3.035   6.665
24870SOL    HW176617   0.425  25.125   6.760
24870SOL    HW276618  11.404   3.103   6.634
24871SOL     OW76619   0.699   2.828   4.973
24871SOL    HW176620   0.616   2.788  15.983
24871SOL    HW276621   0.680   2.860   5.061
24872SOL     OW76622   5.779  10.610   1.847
24872SOL    HW176623   5.851  10.670   1.863
24872SOL    HW276624  16.747  -0.374   1.817
24873SOL     OW76625   3.579   5.193  12.018
24873SOL    HW176626   3.628  -5.831   0.898
24873SOL    HW276627   3.630   5.236   1.046
24874SOL     OW76628   4.387   2.013  10.233
24874SOL    HW176629 -17.746   1.945  10.192
24874SOL    HW276630 -17.602   1.989  10.211
24875SOL     OW76631   9.948   6.414   9.668
24875SOL    HW176632  -1.145  -4.681   9.610
24875SOL    HW276633  10.031   6.423  -1.419
24876SOL     OW76634   8.257  -1.978   8.337
24876SOL    HW176635   8.189  20.127  19.439
24876SOL    HW276636   8.210  31.093  19.308
24877SOL     OW76637   3.222   5.082   2.057
24877SOL    HW176638   3.212  27.186   1.965
24877SOL    HW276639   3.231   5.165   2.103
24878SOL     OW76640  10.051   7.663   5.445
24878SOL    HW176641  10.069  -3.359   5.538
24878SOL    HW276642  21.109  -3.293   5.401
24879SOL     OW76643   3.049  -0.846   8.269
24879SOL    HW176644   3.050  21.265   8.179
24879SOL    HW276645   3.138  -0.877   8.284
24880SOL     OW76646   2.914   3.897   0.074
24880SOL    HW176647  13.943  37.096   0.124
24880SOL    HW276648  -8.209  25.931  11.123
24881SOL     OW76649   2.846   5.949   1.223
24881SOL    HW176650  -8.166   6.036   1.194
24881SOL    HW276651   2.914  27.970   1.189
24882SOL     OW76652   8.557   6.387   7.671
24882SOL    HW176653  19.518   6.414   7.623
24882SOL    HW276654  19.562   6.345   7.750
24883SOL     OW76655   6.983   8.675   7.819
24883SOL    HW176656  18.023  19.810   7.813
24883SOL    HW276657   7.037   8.655  -3.144
24884SOL     OW76658   7.086   7.111   1.986
24884SOL    HW176659   7.015  -3.868   2.005
24884SOL    HW276660 -14.918 -14.933   2.034
24885SOL     OW76661   5.767   7.182   6.392
24885SOL    HW176662   5.678   7.158  39.537
24885SOL    HW276663  16.811   7.161   6.299
24886SOL     OW76664   3.816   7.045  10.190
24886SOL    HW176665  -7.164   7.110  -0.812
24886SOL    HW276666  -7.288 -26.089  -0.780
24887SOL     OW76667   6.301  11.470   0.691
24887SOL    HW176668   6.271 -10.677   0.630
24887SOL    HW276669  -4.812  11.531   0.696
24888SOL     OW76670   8.186   4.156   7.829
24888SOL    HW176671   8.168   4.240  -3.252
24888SOL    HW276672   8.277  -6.902   7.808
24889SOL     OW76673   8.304  10.641   4.791
24889SOL    HW176674   8.233  10.626  26.932
24889SOL    HW276675   8.381  -0.382   4.846
24890SOL     OW76676   2.884   9.456   5.263
24890SOL    HW176677   2.941   9.532   5.264
24890SOL    HW276678   2.921  -1.641  16.235
24891SOL     OW76679   8.637   6.782   3.802
24891SOL    HW176680   8.583   6.754   3.728
24891SOL    HW276681   8.704   6.715   3.811
24892SOL     OW76682   5.055   3.625   8.279
24892SOL    HW176683   5.005   3.667   8.349
24892SOL    HW276684  -6.047   3.568   8.235
24893SOL     OW76685   8.175   3.429  10.357
24893SOL    HW176686   8.109   3.474  -0.629
24893SOL    HW276687  19.180   3.435  -0.772
24894SOL     OW76688   4.587   3.532   9.573
24894SOL    HW176689   4.497   3.502   9.560
24894SOL    HW276690   4.640   3.452  31.647
24895SOL     OW76691   1.796  10.173   2.214
24895SOL    HW176692   1.786  10.099   2.274
24895SOL    HW276693   1.890  21.231   2.213
24896SOL     OW76694  10.576   1.537   8.827
24896SOL    HW176695  10.487   1.548   8.859
24896SOL    HW276696  10.565   1.515   8.734
24897SOL     OW76697   7.717   3.140   2.055
24897SOL    HW176698  29.793   3.234   2.037
24897SOL    HW276699   7.635  14.146  13.059
24898SOL     OW76700   9.773   7.288   4.448
24898SOL    HW176701   9.776   7.348  15.562
24898SOL    HW276702  20.752  18.258   4.475
24899SOL     OW76703   7.492   0.163   4.183
24899SOL    HW176704   7.565   0.102   4.174
24899SOL    HW276705   7.477   0.167   4.278
24900SOL     OW76706   3.097   6.866  10.788
24900SOL    HW176707   3.042   6.820  10.852
24900SOL    HW276708   3.090   6.814  10.708
24901SOL     OW76709   8.102   3.088   5.133
24901SOL    HW176710   8.044   3.061   5.062
24901SOL    HW276711   8.092   3.020   5.200
24902SOL     OW76712   7.420   5.898   0.187
24902SOL    HW176713   7.434  16.915   0.095
24902SOL    HW276714   7.340  28.029   0.187
24903SOL     OW76715   2.259   1.996   4.230
24903SOL    HW176716   2.211   1.918   4.200
24903SOL    HW276717  13.233   2.049   4.275
24904SOL     OW76718  12.060   3.643   2.529
24904SOL    HW176719  12.099  25.652   2.580
24904SOL    HW276720  -9.961   3.653   2.454
24905SOL     OW76721   5.269   0.857   6.347
24905SOL    HW176722   5.361  56.039   6.370
24905SOL    HW276723 -16.826  22.882   6.271
24906SOL     OW76724   4.187   1.124   2.567
24906SOL    HW176725  -6.786 -20.960   2.636
24906SOL    HW276726 -17.849  12.128  13.529
24907SOL     OW76727   3.830   9.678  10.618
24907SOL    HW176728   3.895 -23.482  10.674
24907SOL    HW276729   3.856   9.656 -22.590
24908SOL     OW76730   4.591  10.381   8.040
24908SOL    HW176731  15.688  10.313  30.083
24908SOL    HW276732   4.581  10.445  19.009
24909SOL     OW76733   6.064   7.194  10.713
24909SOL    HW176734  -4.986   7.271  10.656
24909SOL    HW276735   5.992   7.136  10.688
24910SOL     OW76736   5.779   6.546  11.821
24910SOL    HW176737  -5.196   6.477  11.835
24910SOL    HW276738 -38.419 -15.553 -10.343
24911SOL     OW76739   0.600   7.115   6.704
24911SOL    HW176740   0.541  -3.961   6.770
24911SOL    HW276741   0.546   7.179   6.657
24912SOL     OW76742   8.205   6.786   3.197
24912SOL    HW176743   8.138   6.721   3.217
24912SOL    HW276744   8.259   6.745   3.129
24913SOL     OW76745   3.705   0.992  -0.059
24913SOL    HW176746  14.666   0.941  10.962
24913SOL    HW276747   3.680   1.083  -0.075
24914SOL     OW76748   6.423   1.414   9.382
24914SOL    HW176749  39.546   1.506 -12.671
24914SOL    HW276750  28.434   1.377   9.437
24915SOL     OW76751   7.409   3.173   4.344
24915SOL    HW176752  -3.631   3.129   4.429
24915SOL    HW276753 -14.754   3.218  -6.700
24916SOL     OW76754   6.833   3.456  10.699
24916SOL    HW176755   6.738   3.468  10.699
24916SOL    HW276756   6.857  -7.583  10.792
24917SOL     OW76757   6.692  10.453   0.029
24917SOL    HW176758  39.766  10.427  22.028
24917SOL    HW276759  -4.418  10.476   0.090
24918SOL     OW76760   3.063   6.983  10.232
24918SOL    HW176761   3.121 -15.113  10.158
24918SOL    HW276762   3.098 -26.189  10.303
24919SOL     OW76763   0.685   9.402   7.750
24919SOL    HW176764   0.682   9.438   7.839
24919SOL    HW276765  11.800   9.444  18.749
24920SOL     OW76766   8.282   3.942   3.448
24920SOL    HW176767   8.292   3.979   3.536
24920SOL    HW276768  -2.850   3.959  14.465
24921SOL     OW76769   4.172   5.073   0.161
24921SOL    HW176770  -6.914   5.028   0.090
24921SOL    HW276771  -6.843   5.002  33.340
24922SOL     OW76772   8.344  12.309   0.727
24922SOL    HW176773   8.291  -9.695   0.754
24922SOL    HW276774   8.416 -31.853   0.790
24923SOL     OW76775   5.906   6.343   0.888
24923SOL    HW176776   5.844  17.363   0.958
24923SOL    HW276777  17.014   6.396  11.969
24924SOL     OW76778   2.118   7.493   6.126
24924SOL    HW176779   2.140   7.432   6.055
24924SOL    HW276780   2.193   7.488   6.185
24925SOL     OW76781   6.682   7.545   1.981
24925SOL    HW176782  28.793   7.625   2.024
24925SOL    HW276783   6.607   7.518   2.035
24926SOL     OW76784   1.611   5.279   0.696
24926SOL    HW176785   1.695   5.318   0.671
24926SOL    HW276786   1.552  -5.686   0.707
24927SOL     OW76787   9.149   0.074   4.462
24927SOL    HW176788   9.062   0.075   4.421
24927SOL    HW276789   9.163  -0.018   4.485
24928SOL     OW76790  -0.321   7.879   1.360
24928SOL    HW176791  10.682  18.920   1.449
24928SOL    HW276792  10.652   7.923   1.306
24929SOL     OW76793   6.606   7.520   7.822
24929SOL    HW176794   6.696   7.529  -3.188
24929SOL    HW276795   6.612   7.496   7.730
24930SOL     OW76796  10.167  11.053   0.234
24930SOL    HW176797  10.224  10.989   0.277
24930SOL    HW276798  10.182 -11.040   0.140
24931SOL     OW76799   4.041   6.635   2.277
24931SOL    HW176800   4.028   6.730   2.285
24931SOL    HW276801   4.098   6.625   2.201
24932SOL     OW76802   8.520   9.461   8.080
24932SOL    HW176803   8.574 -12.605   8.002
24932SOL    HW276804  30.656   9.416  -2.897
24933SOL     OW76805   8.624   5.768   4.479
24933SOL    HW176806  19.680   5.681  15.555
24933SOL    HW276807   8.671  -5.211   4.537
24934SOL     OW76808   2.808   8.932  10.068
24934SOL    HW176809   2.712   8.936  10.074
24934SOL    HW276810   2.829  31.063   9.990
24935SOL     OW76811   1.981   3.289   4.657
24935SOL    HW176812   2.046   3.224   4.683
24935SOL    HW276813   1.904   3.238  15.672
24936SOL     OW76814   6.119   3.742   7.433
24936SOL    HW176815  17.211  36.798  18.422
24936SOL    HW276816  28.133   3.773  18.410
24937SOL     OW76817  10.604  11.073   9.495
24937SOL    HW176818  21.659  11.125   9.417
24937SOL    HW276819  -0.361   0.052   9.552
24938SOL     OW76820   6.530   6.423   7.020
24938SOL    HW176821   6.596   6.390   6.959
24938SOL    HW276822  -4.582   6.361  -4.027
24939SOL     OW76823   0.087   5.003  10.978
24939SOL    HW176824   0.052   4.968  11.059
24939SOL    HW276825   0.089   4.928  10.918
24940SOL     OW76826   1.521   9.293   9.007
24940SOL    HW176827  12.560   9.388 -13.057
24940SOL    HW276828   1.451  20.318   8.944
24941SOL     OW76829   5.566   2.135   8.435
24941SOL    HW176830   5.652  13.139  19.497
24941SOL    HW276831   5.581  -8.812   8.417
24942SOL     OW76832   9.152   9.053   2.815
24942SOL    HW176833  20.269 -13.082   2.809
24942SOL    HW276834   9.151   9.084   2.906
24943SOL     OW76835  11.852   8.032   1.654
24943SOL    HW176836  11.770   8.079   1.640
24943SOL    HW276837 -10.221   8.022   1.749
24944SOL     OW76838   0.986   3.110   6.717
24944SOL    HW176839  23.072   3.046  28.867
24944SOL    HW276840 -10.064   3.057  17.678
24945SOL     OW76841   2.861   2.395   5.587
24945SOL    HW176842   2.768  13.432   5.566
24945SOL    HW276843   2.903  13.388   5.514
24946SOL     OW76844   5.399   1.206   9.917
24946SOL    HW176845   5.314  23.241   9.913
24946SOL    HW276846   5.393   1.265  -1.048
24947SOL     OW76847   7.651   8.276   5.672
24947SOL    HW176848  18.707   8.186   5.701
24947SOL    HW276849  18.655  41.385   5.583
24948SOL     OW76850   4.502   7.364   0.117
24948SOL    HW176851  -6.482  18.331   0.088
24948SOL    HW276852 -17.661  -3.717   0.139
24949SOL     OW76853   3.377   1.034   8.328
24949SOL    HW176854 -29.775 -10.053   8.403
24949SOL    HW276855   3.468   1.052   8.349
24950SOL     OW76856   1.230   8.787   1.144
24950SOL    HW176857  -9.816   8.820   1.233
24950SOL    HW276858   1.204  -2.344  12.189
24951SOL     OW76859   9.855   0.780  12.321
24951SOL    HW176860  -1.142   0.799 -31.754
24951SOL    HW276861  20.813   0.831  -9.755
24952SOL     OW76862   7.466  -0.284   3.296
24952SOL    HW176863   7.393  -0.241   3.252
24952SOL    HW276864   7.539  10.816   3.284
24953SOL     OW76865   8.601  11.562   4.940
24953SOL    HW176866  19.624  11.642  -6.150
24953SOL    HW276867   8.514   0.492 -39.194
24954SOL     OW76868   3.247  10.604  10.093
24954SOL    HW176869   3.198 -22.579  -0.999
24954SOL    HW276870   3.185  10.675  21.148
24955SOL     OW76871   0.743   5.669   8.345
24955SOL    HW176872 -10.373   5.701   8.298
24955SOL    HW276873   0.743   5.575   8.330
24956SOL     OW76874   3.491   1.781   8.544
24956SOL    HW176875   3.495   1.686   8.536
24956SOL    HW276876   3.567   1.804  -2.442
24957SOL     OW76877   1.449   5.274  12.139
24957SOL    HW176878  12.490   5.179  -9.938
24957SOL    HW276879   1.460  16.340  12.231
24958SOL     OW76880   2.434   3.394   9.438
24958SOL    HW176881   2.420   3.300   9.445
24958SOL    HW276882   2.526  -7.636   9.414
24959SOL     OW76883   5.121   9.399   8.643
24959SOL    HW176884   5.033   9.388   8.678
24959SOL    HW276885   5.165   9.455   8.707
24960SOL     OW76886  10.865   3.119   6.247
24960SOL    HW176887  10.937  36.176  28.314
24960SOL    HW276888  10.877   3.184  17.218
24961SOL     OW76889   6.938   1.599   2.556
24961SOL    HW176890   6.983   1.683   2.546
24961SOL    HW276891   6.849   1.616   2.524
24962SOL     OW76892   0.615   1.422   3.226
24962SOL    HW176893   0.668   1.498  14.292
24962SOL    HW276894  33.661   1.420  14.328
24963SOL     OW76895   8.568   9.196   3.154
24963SOL    HW176896  -2.489  -1.758   3.192
24963SOL    HW276897  30.562   9.166   3.122
24964SOL     OW76898   8.951   5.295   2.186
24964SOL    HW176899   8.919   5.383   2.206
24964SOL    HW276900  -2.155   5.236   2.223
24965SOL     OW76901   5.874   2.473   8.369
24965SOL    HW176902   5.906   2.563 -35.791
24965SOL    HW276903  -5.129   2.433   8.291
24966SOL     OW76904   1.368   2.817   9.180
24966SOL    HW176905   1.448   2.806   9.232
24966SOL    HW276906   1.334   2.728   9.170
24967SOL     OW76907   0.773   3.991   1.196
24967SOL    HW176908   0.852   3.965   1.243
24967SOL    HW276909  11.769   3.909   1.174
24968SOL     OW76910   8.267   6.201   7.602
24968SOL    HW176911  19.362   6.243 -14.411
24968SOL    HW276912  -2.710   6.155 -14.534
24969SOL     OW76913  -0.338   0.601   7.135
24969SOL    HW176914  -0.378   0.578   7.219
24969SOL    HW276915  10.628  33.727   7.074
24970SOL     OW76916   8.780   5.451   0.628
24970SOL    HW176917   8.826   5.479   0.707
24970SOL    HW276918  30.770   5.432   0.658
24971SOL     OW76919   0.564   2.914   8.408
24971SOL    HW176920   0.575   3.007  19.469
24971SOL    HW276921   0.619   2.868  -2.568
24972SOL     OW76922   2.733   0.244   3.548
24972SOL    HW176923   2.796   0.179   3.518
24972SOL    HW276924   2.688   0.202   3.621
24973SOL     OW76925   8.627   3.693   7.607
24973SOL    HW176926 -24.508   3.702  18.740
24973SOL    HW276927 -35.517   3.600  18.633
24974SOL     OW76928  10.682   8.475   4.228
24974SOL    HW176929  10.618   8.411   4.257
24974SOL    HW276930  10.647  -2.480  15.298
24975SOL     OW76931  10.395   0.193   0.848
24975SOL    HW176932 -11.600   0.159   0.877
24975SOL    HW276933  10.355   0.229   0.928
24976SOL     OW76934   5.859   0.660  11.546
24976SOL    HW176935  -5.263   0.702  11.571
24976SOL    HW276936  16.959  11.720 -32.541
24977SOL     OW76937  10.032   5.552  -0.050
24977SOL    HW176938  10.111   5.550  11.044
24977SOL    HW276939  10.050   5.491  -0.121
24978SOL     OW76940   8.270  -0.107  10.693
24978SOL    HW176941   8.199  -0.048  10.666
24978SOL    HW276942   8.349  22.011  10.657
24979SOL     OW76943   3.423   2.295   0.625
24979SOL    HW176944   3.499   2.309   0.569
24979SOL    HW276945   3.358   2.254  11.608
24980SOL     OW76946   5.067   5.372   8.535
24980SOL    HW176947 -16.982   5.370   8.626
24980SOL    HW276948   5.147   5.379   8.483
24981SOL     OW76949   1.211   2.292   9.123
24981SOL    HW176950   1.202 -19.864   9.068
24981SOL    HW276951   1.250   2.260   9.204
24982SOL     OW76952   3.134   5.208   8.179
24982SOL    HW176953   3.103  27.212   8.229
24982SOL    HW276954  36.314   5.172   8.116
24983SOL     OW76955   6.179   9.976   5.625
24983SOL    HW176956   6.232   9.998 -16.377
24983SOL    HW276957 -15.847  10.005   5.551
24984SOL     OW76958   8.729   0.088   0.700
24984SOL    HW176959 -13.387  -0.001 -10.347
24984SOL    HW276960   8.661   0.144   0.662
24985SOL     OW76961   2.021   8.959  10.939
24985SOL    HW176962   2.088   8.954  10.871
24985SOL    HW276963   2.060  19.958 -22.103
24986SOL     OW76964   9.560   2.211  10.299
24986SOL    HW176965  20.664   2.212  10.228
24986SOL    HW276966   9.602  -8.781  21.410
24987SOL     OW76967   5.510   2.896   1.709
24987SOL    HW176968   5.458  -8.068   1.681
24987SOL    HW276969 -27.519   2.919  12.724
24988SOL     OW76970   9.772   8.893   9.926
24988SOL    HW176971  -1.238   8.983   9.940
24988SOL    HW276972   9.847   8.839   9.952
24989SOL     OW76973   0.541   8.270   3.087
24989SOL    HW176974   0.542   8.199  -8.016
24989SOL    HW276975   0.451   8.302   3.086
24990SOL     OW76976   9.093   2.406   8.410
24990SOL    HW176977   9.054  -8.572   8.348
24990SOL    HW276978   9.044   2.419  -2.549
24991SOL     OW76979  10.856   1.100   9.426
24991SOL    HW176980  10.891   1.012   9.437
24991SOL    HW276981  10.826   1.103   9.335
24992SOL     OW76982   8.986   2.141   8.331
24992SOL    HW176983  20.075 -19.956   8.251
24992SOL    HW276984  -2.012   2.219  19.407
24993SOL     OW76985   1.443   8.050   3.336
24993SOL    HW176986   1.477  -3.020   3.252
24993SOL    HW276987   1.423   7.969   3.384
24994SOL     OW76988   1.540   5.356   7.888
24994SOL    HW176989 -20.572 -38.729   7.940
24994SOL    HW276990   1.462   5.307 -36.296
24995SOL     OW76991   8.600   7.157   3.392
24995SOL    HW176992   8.525   7.162  -7.589
24995SOL    HW276993   8.603   7.242   3.348
24996SOL     OW76994   6.551   4.652   9.134
24996SOL    HW176995  17.513   4.695 -12.909
24996SOL    HW276996   6.552 -28.441   9.042
24997SOL     OW76997  10.369   6.659  11.024
24997SOL    HW176998  10.311   6.718 -22.142
24997SOL    HW276999  10.448   6.655  10.971
24998SOL     OW77000   6.911   3.794   4.696
24998SOL    HW177001   6.873  14.894  -6.408
24998SOL    HW277002 -15.078   3.824   4.706
24999SOL     OW77003   6.575   8.310   0.134
24999SOL    HW177004   6.648   8.298  22.153
24999SOL    HW277005  -4.428   8.287  11.260
25000SOL     OW77006   1.174   3.590   8.016
25000SOL    HW177007   1.170   3.683   8.037
25000SOL    HW277008   1.248   3.583   7.955
25001SOL     OW77009  10.000   3.599   5.877
25001SOL    HW177010   9.964  -7.479   5.957
25001SOL    HW277011  10.019  -7.516  27.900
25002SOL     OW77012  -1.851   1.863   1.177
25002SOL    HW177013  42.344   1.807   1.246
25002SOL    HW277014  -1.828 -20.260   1.095
25003SOL     OW77015   5.641   9.742  10.113
25003SOL    HW177016   5.669   9.832  -0.943
25003SOL    HW277017   5.644  20.739  10.027
25004SOL     OW77018   5.454   0.303  10.635
25004SOL    HW177019  16.420   0.349  10.594
25004SOL    HW277020   5.462   0.222  10.584
25005SOL     OW77021   8.100   9.486   6.418
25005SOL    HW177022   8.178  31.614   6.447
25005SOL    HW277023   8.102   9.493   6.323
25006SOL     OW77024   8.981   6.206   0.993
25006SOL    HW177025  -2.124  -4.813  12.099
25006SOL    HW277026  19.981  -4.902   0.940
25007SOL     OW77027   9.078   3.871   1.568
25007SOL    HW177028  20.129  -7.237   1.501
25007SOL    HW277029   9.100   3.828   1.650
25008SOL     OW77030   7.762   0.658   2.304
25008SOL    HW177031  18.758   0.735   2.340
25008SOL    HW277032  -3.343 -10.452  13.353
25009SOL     OW77033  11.221   9.317   7.237
25009SOL    HW177034  11.248  20.327   7.324
25009SOL    HW277035   0.088   9.337  18.285
25010SOL     OW77036   8.236   8.975  -1.332
25010SOL    HW177037   8.244   9.022   9.791
25010SOL    HW277038   8.146   8.988  20.720
25011SOL     OW77039   0.511   2.858   5.408
25011SOL    HW177040   0.559   2.849  16.530
25011SOL    HW277041   0.505  -8.271   5.375
25012SOL     OW77042   2.854   7.443   6.768
25012SOL    HW177043   2.775   7.411   6.725
25012SOL    HW277044   2.821  18.535   6.841
25013SOL     OW77045  -0.297   5.757  10.579
25013SOL    HW177046  -0.281  27.925  10.547
25013SOL    HW277047  10.823 -16.369  10.560
25014SOL     OW77048   9.396   1.961  12.012
25014SOL    HW177049   9.394   1.868 -10.090
25014SOL    HW277050   9.352   1.965 -21.022
25015SOL     OW77051   5.158   1.538   5.175
25015SOL    HW177052   5.216   1.602   5.133
25015SOL    HW277053  -5.940   1.509  16.145
25016SOL     OW77054  10.603   5.962  -0.916
25016SOL    HW177055  10.611   6.034  32.266
25016SOL    HW277056  -0.471   6.003  -0.995
25017SOL     OW77057   0.678  10.791  10.715
25017SOL    HW177058   0.734  -0.198  10.655
25017SOL    HW277059 -10.341 -11.252  10.802
25018SOL     OW77060   8.703   1.158   9.506
25018SOL    HW177061   8.646   1.081   9.499
25018SOL    HW277062   8.748   1.147   9.590
25019SOL     OW77063   7.500   5.652   8.989
25019SOL    HW177064  29.642   5.724   8.998
25019SOL    HW277065  -3.589  -5.386   9.070
25020SOL     OW77066   2.274  -0.382   4.787
25020SOL    HW177067   2.306  -0.460   4.832
25020SOL    HW277068   2.184  10.668   4.818
25021SOL     OW77069   0.437  12.018  -0.310
25021SOL    HW177070  11.541   1.034  21.812
25021SOL    HW277071  11.400 -10.005  10.719
25022SOL     OW77072   2.227   2.796   4.210
25022SOL    HW177073  -8.733  -8.230   4.262
25022SOL    HW277074   2.257 -19.322   4.129
25023SOL     OW77075   6.185   9.839   4.385
25023SOL    HW177076  17.280   9.791   4.323
25023SOL    HW277077  17.237   9.931 -17.716
25024SOL     OW77078   9.827   1.679   9.607
25024SOL    HW177079  -1.201   1.774   9.604
25024SOL    HW277080 -12.290  12.701   9.693
25025SOL     OW77081   6.323   6.909   8.855
25025SOL    HW177082   6.341   6.848   8.784
25025SOL    HW277083   6.231  -4.107   8.843
25026SOL     OW77084   9.521   5.266   9.417
25026SOL    HW177085   9.509   5.252 -12.756
25026SOL    HW277086   9.539  27.438   9.426
25027SOL     OW77087   6.832   3.002   5.491
25027SOL    HW177088   6.737 -30.106   5.487
25027SOL    HW277089   6.847   2.914  16.494
25028SOL     OW77090   7.552   7.920   7.516
25028SOL    HW177091   7.469   7.921  -3.571
25028SOL    HW277092   7.577   8.012   7.523
25029SOL     OW77093   7.547   6.165   8.442
25029SOL    HW177094  -3.538   6.248   8.430
25029SOL    HW277095   7.549   6.152   8.536
25030SOL     OW77096   1.095   3.102   4.517
25030SOL    HW177097   1.078   3.008   4.524
25030SOL    HW277098   1.009  14.182   4.522
25031SOL     OW77099   7.856   6.661   8.428
25031SOL    HW177100   7.789   6.663   8.360
25031SOL    HW277101  18.848   6.644  19.549
25032SOL     OW77102   3.849   0.238  10.668
25032SOL    HW177103   3.855   0.146  10.695
25032SOL    HW277104   3.758  11.301  10.686
25033SOL     OW77105   3.182   5.940   2.878
25033SOL    HW177106  14.133   5.905   2.889
25033SOL    HW277107   3.173  -5.005   2.888
25034SOL     OW77108   6.490   7.920   1.359
25034SOL    HW177109   6.450   7.874   1.285
25034SOL    HW277110   6.583  30.001   1.337
25035SOL     OW77111   0.025   7.864   6.476
25035SOL    HW177112  33.174  18.853   6.552
25035SOL    HW277113   0.050  18.851  -4.639
25036SOL     OW77114   6.356   6.106   9.604
25036SOL    HW177115   6.374   6.170   9.534
25036SOL    HW277116  17.474   6.051  -1.433
25037SOL     OW77117   6.132   8.249   9.929
25037SOL    HW177118   6.180   8.174   9.966
25037SOL    HW277119   6.045 -13.865   9.909
25038SOL     OW77120  10.883   2.532   3.569
25038SOL    HW177121  -0.111  -8.441   3.517
25038SOL    HW277122  10.823  24.569  25.586
25039SOL     OW77123   8.538   1.858   6.802
25039SOL    HW177124  -2.574  -9.168   6.740
25039SOL    HW277125   8.537   1.936   6.857
25040SOL     OW77126   8.428   2.656   2.299
25040SOL    HW177127   8.336   2.680   2.296
25040SOL    HW277128  19.512   2.732   2.336
25041SOL     OW77129   8.190   8.779   3.292
25041SOL    HW177130   8.185   8.706  14.270
25041SOL    HW277131   8.103   8.819  25.369
25042SOL     OW77132  10.760   7.188   1.662
25042SOL    HW177133  10.786   7.122   1.727
25042SOL    HW277134  10.686  18.187  -9.423
25043SOL     OW77135   6.184   9.727   3.293
25043SOL    HW177136   6.112   9.754  14.276
25043SOL    HW277137   6.146   9.664   3.353
25044SOL     OW77138   0.011   4.918   7.049
25044SOL    HW177139   0.044  -6.207  -3.963
25044SOL    HW277140  -0.039  -6.139   6.969
25045SOL     OW77141   9.849   6.644   7.319
25045SOL    HW177142   9.863  39.704   7.244
25045SOL    HW277143   9.788   6.710   7.286
25046SOL     OW77144   1.103   2.167   3.145
25046SOL    HW177145   1.075   2.235  -7.956
25046SOL    HW277146   1.112  -8.827   3.229
25047SOL     OW77147   7.037   3.073   6.921
25047SOL    HW177148  18.020   3.099   6.849
25047SOL    HW277149   7.060  14.194   6.965
25048SOL     OW77150   8.403  -1.081   9.453
25048SOL    HW177151  30.402  -1.034   9.429
25048SOL    HW277152   8.454  20.995   9.373
25049SOL     OW77153   7.233   6.515   9.186
25049SOL    HW177154 -14.892   6.436   9.214
25049SOL    HW277155   7.325   6.497 -12.873
25050SOL     OW77156   0.254   3.390   0.909
25050SOL    HW177157   0.251   3.467   0.965
25050SOL    HW277158   0.162   3.368   0.893
25051SOL     OW77159   8.782   3.275   2.152
25051SOL    HW177160   8.865   3.226   2.155
25051SOL    HW277161   8.806   3.359   2.113
25052SOL     OW77162   3.920   2.690   3.847
25052SOL    HW177163  -7.041   2.739  14.911
25052SOL    HW277164   3.862   2.700   3.923
25053SOL     OW77165   1.414   3.025   0.275
25053SOL    HW177166   1.486   3.085  22.372
25053SOL    HW277167   1.427  -8.087   0.336
25054SOL     OW77168  10.280   8.588   3.280
25054SOL    HW177169  10.352 -13.554  -7.754
25054SOL    HW277170  10.245 -13.503  -7.848
25055SOL     OW77171   1.144   2.128   1.491
25055SOL    HW177172  12.230 -19.878   1.532
25055SOL    HW277173   1.208   2.057   1.488
25056SOL     OW77174   8.836  11.598   7.650
25056SOL    HW177175  -2.242 -10.563   7.618
25056SOL    HW277176   8.903  11.619   7.585
25057SOL     OW77177   4.197   8.236   5.108
25057SOL    HW177178   4.201  30.377   5.035
25057SOL    HW277179  15.326   8.229  16.179
25058SOL     OW77180   4.072   3.259   8.727
25058SOL    HW177181   4.054   3.202  19.691
25058SOL    HW277182  -6.971   3.199   8.802
25059SOL     OW77183   7.649   7.849   4.844
25059SOL    HW177184   7.690   7.809   4.767
25059SOL    HW277185   7.614  18.815   4.894
25060SOL     OW77186   6.395  10.267   6.387
25060SOL    HW177187   6.385  10.288   6.294
25060SOL    HW277188   6.321  10.209   6.406
25061SOL     OW77189   1.682   6.468   8.861
25061SOL    HW177190   1.681   6.559  19.874
25061SOL    HW277191   1.615  17.501 -13.150
25062SOL     OW77192   1.131   9.371   8.443
25062SOL    HW177193  -9.965   9.312   8.494
25062SOL    HW277194   1.096   9.366   8.354
25063SOL     OW77195   8.125  -0.096   6.257
25063SOL    HW177196   8.204  -0.084   6.203
25063SOL    HW277197  -2.906  11.008   6.327
25064SOL     OW77198   7.800   5.402   5.613
25064SOL    HW177199   7.755   5.434  16.730
25064SOL    HW277200  18.811   5.311   5.604
25065SOL     OW77201   0.509   2.136   8.352
25065SOL    HW177202  11.606   2.080   8.299
25065SOL    HW277203   0.465   2.075   8.411
25066SOL     OW77204   7.519   8.757   5.039
25066SOL    HW177205   7.575   8.787 -16.968
25066SOL    HW277206   7.432   8.788   5.063
25067SOL     OW77207   7.261   2.239  11.005
25067SOL    HW177208   7.337   2.182  10.991
25067SOL    HW277209   7.285   2.293  11.081
25068SOL     OW77210   6.972   5.847   7.520
25068SOL    HW177211   7.006   5.862   7.432
25068SOL    HW277212   6.876  27.928   7.510
25069SOL     OW77213  10.061   5.423   4.531
25069SOL    HW177214  10.039  16.549   4.494
25069SOL    HW277215  10.031  27.506   4.621
25070SOL     OW77216   4.318   3.681   4.198
25070SOL    HW177217   4.391   3.633   4.159
25070SOL    HW277218   4.289 -18.338   4.130
25071SOL     OW77219   5.279   3.650   8.952
25071SOL    HW177220   5.305   3.703   9.027
25071SOL    HW277221   5.349   3.587  42.060
25072SOL     OW77222  10.181   9.869   3.458
25072SOL    HW177223  10.199  -1.259   3.428
25072SOL    HW277224  10.092   9.865  14.533
25073SOL     OW77225   4.465   9.267   3.961
25073SOL    HW177226  -6.596   9.184 -18.076
25073SOL    HW277227  15.421   9.303   3.934
25074SOL     OW77228   1.645   9.754   6.678
25074SOL    HW177229   1.627   9.751 -26.347
25074SOL    HW277230  12.776   9.728   6.669
25075SOL     OW77231  -0.343   3.486   0.332
25075SOL    HW177232  -0.271 -29.675   0.380
25075SOL    HW277233  32.702 -18.653  22.420
25076SOL     OW77234   8.932   8.737  11.636
25076SOL    HW177235   8.909   8.826 -10.469
25076SOL    HW277236  31.069   8.748   0.672
25077SOL     OW77237   5.635   1.113   5.523
25077SOL    HW177238   5.640   1.105  -5.612
25077SOL    HW277239  -5.487  -9.970 -27.573
25078SOL     OW77240   3.721   1.574  10.618
25078SOL    HW177241   3.662   1.630  -0.371
25078SOL    HW277242   3.783   1.541 -11.396
25079SOL     OW77243   1.460   6.216   5.782
25079SOL    HW177244   1.473   6.130  27.822
25079SOL    HW277245  23.446   6.234   5.768
25080SOL     OW77246  10.254   0.900  -0.571
25080SOL    HW177247  21.294   0.804  32.556
25080SOL    HW277248  10.342 -10.119  -0.603
25081SOL     OW77249  -0.064   5.887   3.555
25081SOL    HW177250  -0.063   5.975 -18.563
25081SOL    HW277251  10.893   5.885   3.604
25082SOL     OW77252   6.083   1.021   8.239
25082SOL    HW177253   6.004   0.971  -2.778
25082SOL    HW277254   6.128  12.072   8.323
25083SOL     OW77255   1.588   0.403   2.353
25083SOL    HW177256   1.526   0.474   2.368
25083SOL    HW277257   1.586   0.352   2.434
25084SOL     OW77258   5.691  10.237   5.164
25084SOL    HW177259   5.678  10.269   5.253
25084SOL    HW277260  -5.301  10.308   5.120
25085SOL     OW77261   5.309   1.083   7.153
25085SOL    HW177262  27.364   1.005   7.204
25085SOL    HW277263   5.405   1.083  18.193
25086SOL     OW77264   7.823   4.426   0.199
25086SOL    HW177265  18.915   4.346  22.272
25086SOL    HW277266   7.743   4.405  11.191
25087SOL     OW77267   9.989   2.909  -0.840
25087SOL    HW177268  -0.965   2.953  21.247
25087SOL    HW277269   9.929 -19.100  21.214
25088SOL     OW77270   2.083   8.122   3.526
25088SOL    HW177271  13.071  -2.888   3.451
25088SOL    HW277272  24.251   8.150   3.505
25089SOL     OW77273  10.015   2.936  13.125
25089SOL    HW177274  10.106  -8.104 -31.060
25089SOL    HW277275  -1.031  13.906  13.191
25090SOL     OW77276  10.915   0.145   9.117
25090SOL    HW177277  10.962   0.083  -1.866
25090SOL    HW277278  10.928   0.111  31.108
25091SOL     OW77279   0.414   6.618   0.853
25091SOL    HW177280  11.452  -4.512  11.863
25091SOL    HW277281   0.374   6.617 -21.140
25092SOL     OW77282   5.225   2.872   3.444
25092SOL    HW177283   5.148   2.845  14.432
25092SOL    HW277284   5.202   2.851   3.534
25093SOL     OW77285   7.889   2.788   4.038
25093SOL    HW177286   7.931   2.818  15.158
25093SOL    HW277287   7.945  13.861   3.968
25094SOL     OW77288   9.345  -1.168   2.166
25094SOL    HW177289 -12.809   9.815  24.224
25094SOL    HW277290   9.365   9.853   2.257
25095SOL     OW77291   8.158   5.965   3.705
25095SOL    HW177292  -2.931  -5.004  14.705
25095SOL    HW277293  19.204  17.029  -7.242
25096SOL     OW77294   3.499   8.428   2.679
25096SOL    HW177295   3.428   8.382  24.712
25096SOL    HW277296  14.617   8.406  13.669
25097SOL     OW77297   6.932   1.916  10.537
25097SOL    HW177298  -4.088   1.935  10.629
25097SOL    HW277299   6.852  -9.176  10.540
25098SOL     OW77300   3.292   9.761   3.087
25098SOL    HW177301   3.209   9.808   3.093
25098SOL    HW277302   3.267   9.669   3.082
25099SOL     OW77303   4.859  10.492   1.706
25099SOL    HW177304  15.844  -0.607  23.836
25099SOL    HW277305  38.012  10.554   1.771
25100SOL     OW77306  10.655   7.740  -0.556
25100SOL    HW177307  10.698   7.721  10.567
25100SOL    HW277308  10.601   7.663  10.466
25101SOL     OW77309   0.051  10.225   5.012
25101SOL    HW177310   0.117  10.232   4.944
25101SOL    HW277311   0.014  10.313  16.059
25102SOL     OW77312  10.078  11.145  13.019
25102SOL    HW177313  10.108   0.188 -20.063
25102SOL    HW277314   9.984  11.158   1.965
25103SOL     OW77315   2.056   8.354   6.601
25103SOL    HW177316   2.058   8.447   6.579
25103SOL    HW277317   2.111   8.313   6.534
25104SOL     OW77318   7.450   6.115   6.832
25104SOL    HW177319   7.437   6.020 -15.249
25104SOL    HW277320   7.380   6.148 -15.190
25105SOL     OW77321   8.483   8.694  10.297
25105SOL    HW177322   8.515   8.774  10.337
25105SOL    HW277323  -2.553 -13.451  -0.673
25106SOL     OW77324   4.806   2.051   3.846
25106SOL    HW177325  -6.309   1.994   3.862
25106SOL    HW277326   4.786   2.130   3.896
25107SOL     OW77327   0.684   4.254   6.613
25107SOL    HW177328   0.763   4.255  -4.481
25107SOL    HW277329 -10.422   4.212  17.599
25108SOL     OW77330   0.508  10.307   9.100
25108SOL    HW177331   0.598  21.317   9.088
25108SOL    HW277332   0.456  10.252   9.041
25109SOL     OW77333   6.434   9.250   8.896
25109SOL    HW177334   6.358   9.268   8.951
25109SOL    HW277335   6.508  20.328   8.944
25110SOL     OW77336   4.660   7.665  11.988
25110SOL    HW177337   4.727   7.708 -10.144
25110SOL    HW277338   4.634   7.588  11.937
25111SOL     OW77339   3.018  10.372  10.599
25111SOL    HW177340   2.959  10.319  10.545
25111SOL    HW277341  14.142  10.326  10.593
25112SOL     OW77342   0.910   1.681  11.871
25112SOL    HW177343  22.940   1.600 -21.234
25112SOL    HW277344   0.903   1.728  11.954
25113SOL     OW77345   6.034   7.666   5.001
25113SOL    HW177346   6.004   7.580  16.069
25113SOL    HW277347   6.112   7.648   4.949
25114SOL     OW77348   5.367   4.177   3.247
25114SOL    HW177349   5.432   4.245   3.229
25114SOL    HW277350  -5.665  26.241   3.341
25115SOL     OW77351   4.402   6.051   6.472
25115SOL    HW177352   4.394  -4.923   6.403
25115SOL    HW277353  15.351   6.025   6.491
25116SOL     OW77354  10.015   3.541   9.894
25116SOL    HW177355  21.056  14.597 -12.279
25116SOL    HW277356   9.929   3.502   9.911
25117SOL     OW77357   6.705   8.773   8.796
25117SOL    HW177358   6.644   8.716   8.843
25117SOL    HW277359   6.676  -2.178   8.819
25118SOL     OW77360   0.023   8.504   7.816
25118SOL    HW177361  -0.057   8.454 -14.275
25118SOL    HW277362   0.022   8.568   7.746
25119SOL     OW77363   2.567   1.103   4.302
25119SOL    HW177364  24.685  -9.978   4.379
25119SOL    HW277365  13.676   1.158   4.267
25120SOL     OW77366   0.571   3.694   3.199
25120SOL    HW177367  11.693  -7.387  -7.863
25120SOL    HW277368   0.520   3.694   3.118
25121SOL     OW77369   2.611   5.342   4.482
25121SOL    HW177370   2.646  16.471  26.566
25121SOL    HW277371   2.660  -5.746   4.548
25122SOL     OW77372   7.373   4.638   7.322
25122SOL    HW177373   7.368   4.564   7.383
25122SOL    HW277374   7.467  15.691   7.309
25123SOL     OW77375   7.152   1.526   9.814
25123SOL    HW177376  29.176   1.494   9.885
25123SOL    HW277377   7.094  -9.458   9.763
25124SOL     OW77378  10.042   8.093   6.311
25124SOL    HW177379 -23.052   8.030   6.244
25124SOL    HW277380  10.028   8.040  17.429
25125SOL     OW77381   0.240   2.652  10.924
25125SOL    HW177382   0.184  13.658  -0.185
25125SOL    HW277383   0.181   2.670  -0.043
25126SOL     OW77384  -0.526   0.209   5.330
25126SOL    HW177385  -0.532   0.121   5.366
25126SOL    HW277386  10.512   0.197   5.235
25127SOL     OW77387   9.113   7.375   2.853
25127SOL    HW177388   9.045   7.398  13.830
25127SOL    HW277389   9.117  -3.760   2.852
25128SOL     OW77390   0.717   2.353   3.859
25128SOL    HW177391  11.791  -8.647   3.940
25128SOL    HW277392   0.788  -8.678   3.796
25129SOL     OW77393   8.385   7.678  10.190
25129SOL    HW177394  -2.592   7.608  -0.832
25129SOL    HW277395  -2.634   7.707  -0.938
25130SOL     OW77396   6.402   6.018  10.964
25130SOL    HW177397   6.321  -5.004  -0.028
25130SOL    HW277398 -15.636   6.104  -0.086
25131SOL     OW77399   0.125   2.844   1.316
25131SOL    HW177400   0.152   2.891  -9.645
25131SOL    HW277401  11.181   2.752  12.376
25132SOL     OW77402   7.734   0.694   0.919
25132SOL    HW177403   7.713   0.601   0.908
25132SOL    HW277404   7.825  44.860   0.890
25133SOL     OW77405   7.809   4.556   9.202
25133SOL    HW177406   7.776   4.470 -23.944
25133SOL    HW277407  18.944   4.549  -1.847
25134SOL     OW77408   5.960  10.698   3.038
25134SOL    HW177409   5.927  -0.319   2.950
25134SOL    HW277410  28.022  10.604 -30.073
25135SOL     OW77411   0.988  12.082   6.629
25135SOL    HW177412   1.031  -9.912 -15.442
25135SOL    HW277413   1.059  12.020  -4.424
25136SOL     OW77414   3.021   5.027   9.160
25136SOL    HW177415   3.000  -6.077   9.228
25136SOL    HW277416   2.951   5.017   9.095
25137SOL     OW77417  10.391   1.828   4.313
25137SOL    HW177418  10.466   1.796  15.301
25137SOL    HW277419 -11.713  12.950   4.271
25138SOL     OW77420   0.568   8.723   8.330
25138SOL    HW177421   0.567   8.818   8.329
25138SOL    HW277422   0.487   8.698   8.377
25139SOL     OW77423  11.001  10.281   4.640
25139SOL    HW177424  -0.055  10.306   4.549
25139SOL    HW277425  11.027  10.363   4.683
25140SOL     OW77426   8.315   5.988   2.151
25140SOL    HW177427  19.429   5.928   2.153
25140SOL    HW277428   8.248   5.945  -8.835
25141SOL     OW77429   3.756  10.880  -0.536
25141SOL    HW177430   3.693  10.869  -0.608
25141SOL    HW277431   3.804  10.797  10.506
25142SOL     OW77432  10.515   5.283   4.555
25142SOL    HW177433  10.542   5.240  -6.403
25142SOL    HW277434  10.567   5.363   4.551
25143SOL     OW77435   7.812   3.048   3.254
25143SOL    HW177436 -14.350  25.109   3.298
25143SOL    HW277437  -3.219   2.977  -7.850
25144SOL     OW77438   4.069  -1.585   5.481
25144SOL    HW177439   4.127  20.419   5.491
25144SOL    HW277440   4.128   9.530   5.485
25145SOL     OW77441   2.392   2.865   9.587
25145SOL    HW177442   2.417   2.904   9.670
25145SOL    HW277443   2.368  -8.265   9.609
25146SOL     OW77444   8.954   7.158   8.442
25146SOL    HW177445 -13.217   7.171   8.466
25146SOL    HW277446   9.003   7.181  -2.518
25147SOL     OW77447   4.355   7.329   9.833
25147SOL    HW177448   4.359   7.240   9.867
25147SOL    HW277449 -17.764   7.380   9.904
25148SOL     OW77450   6.587   0.775   4.450
25148SOL    HW177451  17.713  11.812  -6.548
25148SOL    HW277452  17.602  11.907   4.452
25149SOL     OW77453   5.541  10.602   1.503
25149SOL    HW177454   5.532  10.658  45.584
25149SOL    HW277455   5.635  10.585  45.667
25150SOL     OW77456   5.014   6.526   6.539
25150SOL    HW177457   5.084  17.501   6.540
25150SOL    HW277458 -17.146   6.474  17.577
25151SOL     OW77459   4.719   7.713   9.165
25151SOL    HW177460 -28.446  -3.245  -1.892
25151SOL    HW277461   4.669   7.646  20.158
25152SOL     OW77462  -0.370   2.086   4.269
25152SOL    HW177463  -0.464  13.145 -39.883
25152SOL    HW277464  21.750   2.171 -17.826
25153SOL     OW77465   2.068   0.224   3.071
25153SOL    HW177466   2.158  11.253 -19.038
25153SOL    HW277467   2.032   0.292   3.013
25154SOL     OW77468   1.523   0.927   3.585
25154SOL    HW177469   1.486   1.009   3.618
25154SOL    HW277470   1.581   0.897   3.655
25155SOL     OW77471  10.260  10.209   6.323
25155SOL    HW177472  10.201  10.142  -4.681
25155SOL    HW277473  10.278  10.267   6.396
25156SOL     OW77474   9.569   1.698   7.877
25156SOL    HW177475   9.490  -9.331   7.929
25156SOL    HW277476   9.542   1.647   7.801
25157SOL     OW77477   2.762   7.468   2.416
25157SOL    HW177478   2.730   7.510  13.376
25157SOL    HW277479   2.845  18.550  13.474
25158SOL     OW77480   8.318   3.566   8.840
25158SOL    HW177481  19.264   3.574   8.823
25158SOL    HW277482   8.326   3.495   8.904
25159SOL     OW77483  11.037   3.876   7.846
25159SOL    HW177484  -0.092   3.861   7.814
25159SOL    HW277485  11.053   3.805   7.907
25160SOL     OW77486   6.187   8.520  -1.055
25160SOL    HW177487   6.158   8.547  20.937
25160SOL    HW277488   6.162  19.468  -1.048
25161SOL     OW77489   6.953   9.064  -1.293
25161SOL    HW177490  -4.018  20.065   9.801
25161SOL    HW277491   6.876   9.010  20.801
25162SOL     OW77492   0.669   6.614   3.451
25162SOL    HW177493  33.847  -4.357   3.421
25162SOL    HW277494   0.654   6.560  14.413
25163SOL     OW77495   0.060   6.753   8.986
25163SOL    HW177496   0.086   6.765   8.895
25163SOL    HW277497  -0.023   6.705  20.021
25164SOL     OW77498   2.422   3.958   9.743
25164SOL    HW177499   2.327  -7.078   9.747
25164SOL    HW277500   2.449   4.050 -23.384
25165SOL     OW77501   8.527  10.270   7.937
25165SOL    HW177502   8.438  10.235   7.935
25165SOL    HW277503  -2.499  10.308  18.890
25166SOL     OW77504   3.317   4.411   4.644
25166SOL    HW177505  -7.702   4.318   4.656
25166SOL    HW277506   3.294   4.442   4.731
25167SOL     OW77507   7.324   1.850   4.872
25167SOL    HW177508  18.276   1.812   4.872
25167SOL    HW277509   7.363   1.820   4.789
25168SOL     OW77510   4.386   7.370   4.396
25168SOL    HW177511  15.408   7.464   4.391
25168SOL    HW277512   4.303  -3.711   4.375
25169SOL     OW77513   5.861   8.057   7.706
25169SOL    HW177514   5.856  -2.963   7.613
25169SOL    HW277515   5.771  -2.971   7.738
25170SOL     OW77516   1.581   4.191   7.474
25170SOL    HW177517   1.532   4.247  18.575
25170SOL    HW277518   1.535  -6.932   7.475
25171SOL     OW77519   8.551   2.031   3.760
25171SOL    HW177520   8.566   2.078   3.842
25171SOL    HW277521   8.524   2.099   3.698
25172SOL     OW77522  10.193   1.670   7.328
25172SOL    HW177523  10.180   1.665  18.462
25172SOL    HW277524  10.283   1.701   7.317
25173SOL     OW77525   9.420   5.430   9.958
25173SOL    HW177526   9.340  16.432   9.924
25173SOL    HW277527   9.490   5.378   9.919
25174SOL     OW77528   2.179   9.464   3.806
25174SOL    HW177529   2.131   9.390   3.844
25174SOL    HW277530   2.153  20.504  -7.326
25175SOL     OW77531   0.843   6.781   1.284
25175SOL    HW177532   0.826   6.850  12.388
25175SOL    HW277533   0.885   6.711   1.335
25176SOL     OW77534   8.532   4.709   9.787
25176SOL    HW177535   8.508   4.732  -1.163
25176SOL    HW277536  -2.549   4.625   9.772
25177SOL     OW77537   5.647  10.863   8.320
25177SOL    HW177538   5.580  10.865   8.388
25177SOL    HW277539  -5.402 -11.131   8.276
25178SOL     OW77540   8.966   0.406   2.547
25178SOL    HW177541   9.011  11.367   2.515
25178SOL    HW277542   8.882   0.374   2.578
25179SOL     OW77543   9.299   8.388   6.184
25179SOL    HW177544   9.260   8.321  50.398
25179SOL    HW277545 -12.715  19.471  17.281
25180SOL     OW77546   3.242   8.661   4.911
25180SOL    HW177547   3.328   8.621   4.900
25180SOL    HW277548 -29.925   8.637   4.832
25181SOL     OW77549  12.142   4.509  10.846
25181SOL    HW177550   1.023  15.563  10.897
25181SOL    HW277551  -9.887   4.446  10.897
25182SOL     OW77552   4.192   7.518   7.243
25182SOL    HW177553   4.196  18.653   7.245
25182SOL    HW277554   4.282  18.530   7.264
25183SOL     OW77555   5.644   2.671   5.814
25183SOL    HW177556   5.644   2.696   5.907
25183SOL    HW277557  16.777   2.667   5.791
25184SOL     OW77558   7.715   0.315   6.169
25184SOL    HW177559   7.667 -10.806   6.154
25184SOL    HW277560  29.880  11.339   6.131
25185SOL     OW77561   7.205   9.676   1.701
25185SOL    HW177562   7.129   9.734   1.710
25185SOL    HW277563   7.250   9.682   1.785
25186SOL     OW77564   6.698   3.517   2.996
25186SOL    HW177565  17.720   3.457  14.108
25186SOL    HW277566  17.657   3.569   2.988
25187SOL     OW77567   0.811   7.144  10.498
25187SOL    HW177568  11.941 -37.024  10.529
25187SOL    HW277569   0.778  18.259  10.546
25188SOL     OW77570   6.148   8.030   7.796
25188SOL    HW177571  17.102   8.029  -3.286
25188SOL    HW277572  17.176   7.980   7.876
25189SOL     OW77573   7.660   3.480   7.805
25189SOL    HW177574   7.648   3.467   7.899
25189SOL    HW277575   7.709   3.562   7.798
25190SOL     OW77576   1.390   8.932   9.721
25190SOL    HW177577   1.319   8.989  20.734
25190SOL    HW277578  12.401   8.844   9.698
25191SOL     OW77579   7.418   1.745   1.933
25191SOL    HW177580   7.404   1.729   2.026
25191SOL    HW277581   7.441   1.660   1.897
25192SOL     OW77582   3.084   1.918  -0.047
25192SOL    HW177583   3.052   1.981  11.057
25192SOL    HW277584   3.016   1.850  -0.050
25193SOL     OW77585   6.944   2.940   9.468
25193SOL    HW177586   6.870   2.971   9.520
25193SOL    HW277587   6.981  -8.171   9.520
25194SOL     OW77588   0.804   7.312   3.852
25194SOL    HW177589   0.793  18.369   3.759
25194SOL    HW277590   0.742   7.241 -29.248
25195SOL     OW77591   3.682   4.512   5.404
25195SOL    HW177592   3.667   4.606   5.412
25195SOL    HW277593   3.768   4.499   5.445
25196SOL     OW77594   8.755  10.287   6.397
25196SOL    HW177595  -2.194  21.352   6.383
25196SOL    HW277596   8.703  10.355  17.393
25197SOL     OW77597   5.061   7.843   6.177
25197SOL    HW177598   5.014   7.774   6.130
25197SOL    HW277599 -17.009  18.954 -15.965
25198SOL     OW77600   7.304   4.799  10.015
25198SOL    HW177601   7.347 -17.324 -11.991
25198SOL    HW277602  -3.807   4.741   9.991
25199SOL     OW77603   2.859   8.261   8.800
25199SOL    HW177604   2.831  30.425  19.805
25199SOL    HW277605   2.943   8.245   8.759
25200SOL     OW77606   4.966   8.396   8.843
25200SOL    HW177607   5.048   8.405  -2.148
25200SOL    HW277608   4.965  41.424 -24.304
25201SOL     OW77609   5.589   1.983   4.021
25201SOL    HW177610   5.500  -9.052   4.054
25201SOL    HW277611   5.586  12.958   3.950
25202SOL     OW77612   8.631   1.124   8.297
25202SOL    HW177613   8.650   1.211  19.300
25202SOL    HW277614  -2.349  -9.923  30.451
25203SOL     OW77615   3.538   9.167   5.762
25203SOL    HW177616  14.584   9.199   5.672
25203SOL    HW277617 -40.568   9.086   5.762
25204SOL     OW77618   5.129   2.209   6.076
25204SOL    HW177619  16.251   2.257   6.084
25204SOL    HW277620   5.149   2.122   6.109
25205SOL     OW77621   9.191   0.174   6.274
25205SOL    HW177622   9.252  11.187  17.383
25205SOL    HW277623  20.147   0.136   6.300
25206SOL     OW77624   7.251   9.250  10.021
25206SOL    HW177625   7.175   9.199  10.050
25206SOL    HW277626   7.228   9.340  10.040
25207SOL     OW77627   8.752   5.665   5.387
25207SOL    HW177628  -2.326  -5.399   5.302
25207SOL    HW277629   8.814  -5.445   5.405
25208SOL     OW77630   3.246   5.361  -2.188
25208SOL    HW177631 -18.907   5.420  19.905
25208SOL    HW277632   3.259  38.438  19.976
25209SOL     OW77633   5.168   1.736  -1.132
25209SOL    HW177634   5.138   1.666  21.005
25209SOL    HW277635   5.241  12.816   9.955
25210SOL     OW77636   3.457   4.367   2.807
25210SOL    HW177637   3.536  -6.660   2.860
25210SOL    HW277638   3.488  15.399   2.718
25211SOL     OW77639   4.161   4.509   0.887
25211SOL    HW177640  -6.797   4.460   0.880
25211SOL    HW277641   4.093  -6.597 -10.148
25212SOL     OW77642   5.941  10.584   4.359
25212SOL    HW177643  -5.066  10.562   4.271
25212SOL    HW277644   5.898  10.669   4.347
25213SOL     OW77645   0.712   2.725  10.347
25213SOL    HW177646   0.700   2.637  10.311
25213SOL    HW277647   0.801   2.723  10.383
25214SOL     OW77648   1.717   5.701   1.048
25214SOL    HW177649   1.629  16.780  12.079
25214SOL    HW277650  12.743  -5.432   1.031
25215SOL     OW77651   4.188   6.010   4.608
25215SOL    HW177652  -6.867  -5.000   4.518
25215SOL    HW277653   4.282   6.025   4.622
25216SOL     OW77654   1.272   8.137   1.574
25216SOL    HW177655   1.214   8.109   1.644
25216SOL    HW277656   1.230  19.146   1.494
25217SOL     OW77657  -0.033   5.174   9.089
25217SOL    HW177658   0.042   5.148   9.035
25217SOL    HW277659  10.949   5.097  20.128
25218SOL     OW77660   1.778   6.975   9.454
25218SOL    HW177661  12.795   6.882   9.454
25218SOL    HW277662   1.780  -4.040  -1.493
25219SOL     OW77663   7.201  10.284   3.783
25219SOL    HW177664 -14.833  10.339  -7.322
25219SOL    HW277665   7.151  10.221   3.731
25220SOL     OW77666   2.789   5.811  -2.441
25220SOL    HW177667   2.769   5.849  30.763
25220SOL    HW277668   2.859 -16.213   8.563
25221SOL     OW77669   7.467   3.843   3.697
25221SOL    HW177670  -3.646   3.800  -7.387
25221SOL    HW277671   7.543   3.793 -18.409
25222SOL     OW77672   1.040   1.892   4.091
25222SOL    HW177673   1.108 -20.123   4.113
25222SOL    HW277674   0.983  12.979  26.109
25223SOL     OW77675   2.923   4.883   6.393
25223SOL    HW177676   2.879  -6.157   6.478
25223SOL    HW277677   2.872   4.942  39.458
25224SOL     OW77678   2.648   1.941  10.338
25224SOL    HW177679   2.669 -20.075  10.407
25224SOL    HW277680  13.767   1.889  10.328
25225SOL     OW77681  10.778  -1.114  10.316
25225SOL    HW177682  10.766  21.003  10.229
25225SOL    HW277683  10.719  -1.189  -0.721
25226SOL     OW77684   6.506  10.021   2.350
25226SOL    HW177685   6.437  10.045   2.289
25226SOL    HW277686   6.515  -0.943   2.408
25227SOL     OW77687   0.722   3.125   9.470
25227SOL    HW177688  11.814   3.194 -12.650
25227SOL    HW277689   0.639   3.127  -1.616
25228SOL     OW77690   9.926   6.970   1.258
25228SOL    HW177691   9.927   7.065   1.250
25228SOL    HW277692  20.974   6.939  -9.871
25229SOL     OW77693   8.000   5.755   3.113
25229SOL    HW177694   7.964   5.746  14.240
25229SOL    HW277695   7.924   5.754   3.055
25230SOL     OW77696   7.891   3.312   5.782
25230SOL    HW177697   7.891   3.294   5.688
25230SOL    HW277698  18.841   3.340   5.801
25231SOL     OW77699   5.129  11.154  14.328
25231SOL    HW177700   5.033   0.110 -18.790
25231SOL    HW277701   5.157 -22.056 -40.871
25232SOL     OW77702   8.251  10.316   9.994
25232SOL    HW177703   8.242  21.448  10.019
25232SOL    HW277704   8.328  10.285  21.081
25233SOL     OW77705   5.778   9.676  -1.182
25233SOL    HW177706  16.794   9.665   9.766
25233SOL    HW277707   5.831   9.755   9.860
25234SOL     OW77708   6.243   7.148  10.468
25234SOL    HW177709   6.166   7.167  10.414
25234SOL    HW277710   6.266  -3.982  10.445
25235SOL     OW77711   6.971   0.352   0.845
25235SOL    HW177712   6.975   0.283  22.858
25235SOL    HW277713   7.061  11.423  11.891
25236SOL     OW77714   7.698   3.529   0.141
25236SOL    HW177715   7.713  14.656   0.176
25236SOL    HW277716   7.665   3.544   0.052
25237SOL     OW77717   4.334  10.235   4.252
25237SOL    HW177718  26.469  -0.773  -6.858
25237SOL    HW277719  15.430  10.237   4.330
25238SOL     OW77720   8.520   3.683   0.116
25238SOL    HW177721   8.473   3.625   0.056
25238SOL    HW277722 -13.469   3.684   0.083
25239SOL     OW77723   1.648   0.587   5.641
25239SOL    HW177724  12.600   0.560   5.666
25239SOL    HW277725   1.688   0.619  -5.318
25240SOL     OW77726   4.535   2.352   9.932
25240SOL    HW177727  15.620   2.271   9.910
25240SOL    HW277728   4.563   2.415  -1.175
25241SOL     OW77729  10.220   6.573   2.171
25241SOL    HW177730  10.167  28.633   2.093
25241SOL    HW277731  10.285  28.581  13.213
25242SOL     OW77732   4.059   7.441   6.499
25242SOL    HW177733   3.992  -3.602   6.568
25242SOL    HW277734   4.012  18.512  -4.617
25243SOL     OW77735   2.116   3.246  10.161
25243SOL    HW177736  13.094   3.215  10.094
25243SOL    HW277737  13.218   3.300  10.113
25244SOL     OW77738   9.498   2.360  10.540
25244SOL    HW177739  20.530   2.417  10.617
25244SOL    HW277740  20.451   2.321  10.532
25245SOL     OW77741   2.021   6.075   9.869
25245SOL    HW177742   1.941  -5.015   9.853
25245SOL    HW277743  13.030  -4.881   9.905
25246SOL     OW77744   6.674   8.732   2.309
25246SOL    HW177745   6.670   8.805   2.248
25246SOL    HW277746   6.602  -2.365   2.283
25247SOL     OW77747  10.439   8.598   2.078
25247SOL    HW177748  10.495 -24.552  -8.890
25247SOL    HW277749  10.446  19.733   2.084
25248SOL     OW77750   7.097   7.035   0.842
25248SOL    HW177751   7.170   7.048   0.782
25248SOL    HW277752  18.077  -4.062   0.796
25249SOL     OW77753   2.154  10.550   0.816
25249SOL    HW177754  -8.899  10.519   0.726
25249SOL    HW277755   2.160  10.470   0.868
25250SOL     OW77756   1.704   8.705   5.470
25250SOL    HW177757   1.693   8.610   5.470
25250SOL    HW277758   1.730   8.726   5.560
25251SOL     OW77759   3.760   1.569   2.435
25251SOL    HW177760  14.730  -9.535   2.426
25251SOL    HW277761  36.839   1.639   2.487
25252SOL     OW77762   7.135   9.779   6.293
25252SOL    HW177763   7.168   9.692   6.318
25252SOL    HW277764   7.203   9.814  -4.804
25253SOL     OW77765   4.113   6.598   7.298
25253SOL    HW177766  26.232  -4.528   7.311
25253SOL    HW277767  -6.971   6.616  29.459
25254SOL     OW77768   9.503   7.095   8.472
25254SOL    HW177769 -12.510 -26.072   8.423
25254SOL    HW277770   9.553   7.158  -2.516
25255SOL     OW77771   6.574   6.114   2.296
25255SOL    HW177772   6.554   6.119 -19.690
25255SOL    HW277773  17.702   6.149   2.289
25256SOL     OW77774   8.032   1.140  -0.056
25256SOL    HW177775   7.948   1.184  10.968
25256SOL    HW277776   8.008   1.056  -0.017
25257SOL     OW77777   2.519   0.667   1.321
25257SOL    HW177778   2.445   0.610   1.300
25257SOL    HW277779   2.542   0.707   1.238
25258SOL     OW77780   3.718   2.717  10.219
25258SOL    HW177781   3.741  35.748  10.251
25258SOL    HW277782  14.776  13.814  10.293
25259SOL     OW77783   2.183   8.026  11.365
25259SOL    HW177784   2.194   7.963  11.436
25259SOL    HW277785   2.214   8.109   0.361
25260SOL     OW77786   0.265   5.080  -0.825
25260SOL    HW177787   0.252   4.988  54.392
25260SOL    HW277788   0.240   5.090  21.163
25261SOL     OW77789   8.470   4.861   8.586
25261SOL    HW177790   8.431   4.828  19.544
25261SOL    HW277791  19.449  15.967   8.616
25262SOL     OW77792   8.605   4.490  10.371
25262SOL    HW177793   8.513   4.467  10.383
25262SOL    HW277794   8.648 -17.672  21.389
25263SOL     OW77795   5.928   4.404   9.414
25263SOL    HW177796   5.924  -6.613   9.507
25263SOL    HW277797   5.940   4.309   9.412
25264SOL     OW77798   4.215   6.637   7.694
25264SOL    HW177799  26.218   6.644   7.635
25264SOL    HW277800 -17.891  -4.354   7.772
25265SOL     OW77801   4.463   9.455   9.332
25265SOL    HW177802  15.539   9.544   9.339
25265SOL    HW277803   4.381   9.460   9.380
25266SOL     OW77804   9.213   1.238   2.417
25266SOL    HW177805   9.184   1.229   2.327
25266SOL    HW277806   9.304   1.209   2.417
25267SOL     OW77807   3.564   2.573   7.702
25267SOL    HW177808   3.475  -8.501  -3.342
25267SOL    HW277809   3.587   2.566   7.795
25268SOL     OW77810   4.721   2.741   3.880
25268SOL    HW177811   4.725  13.860 -18.252
25268SOL    HW277812   4.735  13.709   3.818
25269SOL     OW77813   4.426   9.281   8.390
25269SOL    HW177814   4.426   9.215   8.459
25269SOL    HW277815   4.456   9.235   8.312
25270SOL     OW77816  10.127  10.628   2.597
25270SOL    HW177817  10.033  10.639   2.585
25270SOL    HW277818  10.157  10.585   2.517
25271SOL     OW77819   3.055   2.173   6.303
25271SOL    HW177820   3.116   2.141  50.395
25271SOL    HW277821   3.030  13.135   6.352
25272SOL     OW77822   8.500   2.036   9.235
25272SOL    HW177823   8.477   1.989   9.315
25272SOL    HW277824   8.494   1.970  20.206
25273SOL     OW77825   3.361   7.053   4.410
25273SOL    HW177826  14.489  18.102   4.376
25273SOL    HW277827   3.305   7.061   4.332
25274SOL     OW77828   7.430  -0.388   2.280
25274SOL    HW177829   7.406  10.737   2.315
25274SOL    HW277830   7.524  -0.382  24.342
25275SOL     OW77831   3.723   0.887   7.530
25275SOL    HW177832   3.788   0.953   7.554
25275SOL    HW277833   3.701   0.907   7.439
25276SOL     OW77834   7.013   9.626  10.845
25276SOL    HW177835  -3.986   9.540 -22.266
25276SOL    HW277836   7.071   9.674  -0.254
25277SOL     OW77837   5.848   8.459  -0.344
25277SOL    HW177838   5.904 -13.566  -0.399
25277SOL    HW277839  16.799  19.527  10.674
25278SOL     OW77840   8.282  12.433  10.673
25278SOL    HW177841   8.338  -9.627  10.747
25278SOL    HW277842  19.281   1.309  10.693
25279SOL     OW77843   0.972  10.020   6.427
25279SOL    HW177844   1.065  10.030   6.408
25279SOL    HW277845   0.930  10.089  -4.665
25280SOL     OW77846   4.102   3.442   2.036
25280SOL    HW177847   4.027  -7.655   2.022
25280SOL    HW277848   4.178   3.385   2.025
25281SOL     OW77849   8.709   4.891   8.456
25281SOL    HW177850   8.645  -6.136  -2.514
25281SOL    HW277851  19.830   4.927  30.570
25282SOL     OW77852   4.269   1.145   3.342
25282SOL    HW177853  -6.814   1.130   3.258
25282SOL    HW277854   4.212  23.181   3.406
25283SOL     OW77855   8.719   8.406   4.744
25283SOL    HW177856   8.671   8.347   4.687
25283SOL    HW277857   8.735  -2.684  26.903
25284SOL     OW77858   2.118   1.344  10.758
25284SOL    HW177859   2.193   1.291  10.784
25284SOL    HW277860  13.196  -9.618  10.717
25285SOL     OW77861   3.540   8.888   7.686
25285SOL    HW177862  14.564  20.017 -25.405
25285SOL    HW277863   3.485   8.877  -3.431
25286SOL     OW77864   9.283   3.302   2.036
25286SOL    HW177865   9.268  14.296   1.953
25286SOL    HW277866   9.368  14.384 -31.094
25287SOL     OW77867   1.722   3.967   2.564
25287SOL    HW177868   1.811   3.968   2.528
25287SOL    HW277869   1.668   4.008   2.496
25288SOL     OW77870   1.087   1.334   8.324
25288SOL    HW177871  23.086   1.341   8.274
25288SOL    HW277872   1.154  23.453   8.268
25289SOL     OW77873   9.111   4.168   3.883
25289SOL    HW177874 -24.083   4.142   3.830
25289SOL    HW277875 -12.987   4.131  -7.070
25290SOL     OW77876   3.920   9.539   9.864
25290SOL    HW177877 -18.244   9.518   9.825
25290SOL    HW277878  26.055  -1.575   9.842
25291SOL     OW77879   4.088   3.807   1.695
25291SOL    HW177880   4.152   3.789   1.626
25291SOL    HW277881  -6.993   3.723   1.712
25292SOL     OW77882   4.509   3.788   6.510
25292SOL    HW177883  48.599  14.862   6.568
25292SOL    HW277884  37.600   3.815 -15.656
25293SOL     OW77885   7.939   4.006   2.456
25293SOL    HW177886   7.907   4.057 -19.548
25293SOL    HW277887   7.976  14.966   2.496
25294SOL     OW77888   8.707  10.658   2.432
25294SOL    HW177889   8.654  10.707   2.369
25294SOL    HW277890  19.785  10.725   2.488
25295SOL     OW77891   4.776   3.016   7.652
25295SOL    HW177892   4.720 -30.092  29.654
25295SOL    HW277893   4.860  14.028   7.617
25296SOL     OW77894   7.680   5.320   7.282
25296SOL    HW177895   7.703   5.368   7.203
25296SOL    HW277896   7.763  16.350   7.329
25297SOL     OW77897  11.331   1.599   0.956
25297SOL    HW177898   0.336   1.543   0.893
25297SOL    HW277899  11.316   1.543   1.032
25298SOL     OW77900   7.231   8.151   4.291
25298SOL    HW177901   7.231  19.240   4.372
25298SOL    HW277902  -3.901   8.132  -6.766
25299SOL     OW77903  10.976   9.183   6.683
25299SOL    HW177904 -11.157   9.252  17.685
25299SOL    HW277905  10.952   9.104   6.634
25300SOL     OW77906  10.867   6.315   2.783
25300SOL    HW177907  10.928  17.409   2.834
25300SOL    HW277908  10.855   6.363   2.701
25301SOL     OW77909   5.975   2.780  11.032
25301SOL    HW177910   5.972   2.862  11.082
25301SOL    HW277911  28.006   2.800  10.951
25302SOL     OW77912   0.020   6.829   3.656
25302SOL    HW177913   0.049   6.908   3.702
25302SOL    HW277914  -0.024  39.896   3.724
25303SOL     OW77915  10.949   1.618   9.068
25303SOL    HW177916  21.971  23.691   9.162
25303SOL    HW277917  -0.172   1.653   9.031
25304SOL     OW77918  10.603   8.210  11.872
25304SOL    HW177919  10.508  -2.825 -10.203
25304SOL    HW277920  10.631  -2.830  11.963
25305SOL     OW77921   6.115   5.981  10.876
25305SOL    HW177922   6.042  -4.997  10.873
25305SOL    HW277923   6.159  -5.040  10.958
25306SOL     OW77924   2.701   7.163   2.199
25306SOL    HW177925  24.700   7.121   2.167
25306SOL    HW277926   2.691   7.167  13.333
25307SOL     OW77927   2.011   9.936  11.619
25307SOL    HW177928  24.160   9.974   0.526
25307SOL    HW277929   2.055   9.869  11.672
25308SOL     OW77930   9.083   8.967  13.600
25308SOL    HW177931 -12.996   9.019  -8.398
25308SOL    HW277932  20.032   8.937 -19.526
25309SOL     OW77933   1.374   5.932   5.147
25309SOL    HW177934   1.350   5.894  16.101
25309SOL    HW277935   1.448  -5.050  27.207
25310SOL     OW77936   0.851   0.779   8.707
25310SOL    HW177937  22.852   0.816   8.748
25310SOL    HW277938   0.894   0.729   8.776
25311SOL     OW77939   7.618  10.336   5.394
25311SOL    HW177940  -3.470  10.257   5.374
25311SOL    HW277941  -3.485  10.407 -16.696
25312SOL     OW77942   2.414   6.807   2.288
25312SOL    HW177943  24.409   6.791   2.246
25312SOL    HW277944  35.590   6.738   2.253
25313SOL     OW77945   4.869   1.463   1.007
25313SOL    HW177946   4.860  -9.571  34.221
25313SOL    HW277947   4.914   1.380   0.992
25314SOL     OW77948  10.275  -1.096   5.277
25314SOL    HW177949  10.297  -1.011   5.240
25314SOL    HW277950  10.209  20.947   5.217
25315SOL     OW77951   6.148   3.591  11.458
25315SOL    HW177952 -26.901   3.529   0.436
25315SOL    HW277953   6.177   3.673  11.498
25316SOL     OW77954   0.692   5.054   2.640
25316SOL    HW177955   0.676   5.025   2.550
25316SOL    HW277956   0.780  16.133   2.637
25317SOL     OW77957   9.425   0.737   7.353
25317SOL    HW177958   9.362   0.699  -3.747
25317SOL    HW277959 -12.589 -10.261  -3.742
25318SOL     OW77960   9.734   5.493   4.568
25318SOL    HW177961   9.760   5.506  -6.562
25318SOL    HW277962  20.680   5.510  15.609
25319SOL     OW77963   2.881   8.783   8.328
25319SOL    HW177964  24.946   8.795  19.273
25319SOL    HW277965  35.911   8.778   8.365
25320SOL     OW77966   4.786   3.313   3.708
25320SOL    HW177967  37.842   3.343   3.774
25320SOL    HW277968  48.922   3.221  14.734
25321SOL     OW77969  10.202   9.839   5.533
25321SOL    HW177970  10.243  -1.176   5.451
25321SOL    HW277971  10.252  31.964  -5.439
25322SOL     OW77972   7.171   7.373   1.206
25322SOL    HW177973   7.178   7.295   1.261
25322SOL    HW277974   7.155  -3.595  12.308
25323SOL     OW77975   8.934  -1.122   9.797
25323SOL    HW177976   9.023  -1.135 -67.447
25323SOL    HW277977   8.940  20.942   9.703
25324SOL     OW77978   1.886   6.864   3.333
25324SOL    HW177979   1.831  39.910   3.361
25324SOL    HW277980   1.872   6.870   3.239
25325SOL     OW77981   1.620   8.552   8.560
25325SOL    HW177982   1.699   8.512   8.597
25325SOL    HW277983   1.570 -13.600   8.525
25326SOL     OW77984   5.574   7.575   4.290
25326SOL    HW177985   5.556   7.548  -6.840
25326SOL    HW277986   5.504 -36.522  -6.728
25327SOL     OW77987   5.428   6.712   6.965
25327SOL    HW177988   5.496  -4.386  -4.041
25327SOL    HW277989   5.362   6.716   7.034
25328SOL     OW77990   7.891   2.392  10.702
25328SOL    HW177991  18.933   2.331  10.629
25328SOL    HW277992   7.798  35.519  10.724
25329SOL     OW77993   4.393   2.092   5.863
25329SOL    HW177994   4.445  -8.923  16.827
25329SOL    HW277995   4.449  35.151  -5.127
25330SOL     OW77996   4.532   4.948   2.464
25330SOL    HW177997   4.593   4.905   2.524
25330SOL    HW277998   4.474 -17.201  35.554
25331SOL     OW77999   0.944   6.717   8.127
25331SOL    HW178000 -10.130  -4.313   8.216
25331SOL    HW278001   0.911   6.631  -2.941
25332SOL     OW78002   7.228   5.254   0.510
25332SOL    HW178003   7.143   5.256  33.585
25332SOL    HW278004   7.292   5.260  33.557
25333SOL     OW78005   5.335   8.324  11.764
25333SOL    HW178006  -5.620 -13.730  11.803
25333SOL    HW278007  -5.681 -13.786 -10.403
25334SOL     OW78008  13.101   2.558  10.526
25334SOL    HW178009 -31.089   2.564  10.616
25334SOL    HW278010  13.040   2.498  -0.557
25335SOL     OW78011   8.597  10.449   9.456
25335SOL    HW178012  -2.470  10.506   9.385
25335SOL    HW278013  19.699  10.389  20.455
25336SOL     OW78014  -0.232   4.110  -0.103
25336SOL    HW178015  10.770   4.160  -0.176
25336SOL    HW278016  10.884   4.161  10.964
25337SOL     OW78017   9.982   1.719   6.171
25337SOL    HW178018  20.964   1.714  -4.792
25337SOL    HW278019 -12.009   1.703 -15.873
25338SOL     OW78020  10.249   4.705   0.861
25338SOL    HW178021  10.316  15.679 -10.200
25338SOL    HW278022  10.294   4.789   0.853
25339SOL     OW78023   7.547   0.136   6.435
25339SOL    HW178024   7.458   0.168   6.444
25339SOL    HW278025   7.558   0.120   6.341
25340SOL     OW78026   2.994   4.470  10.157
25340SOL    HW178027   2.931 -17.612  10.085
25340SOL    HW278028  -8.023  -6.477  21.205
25341SOL     OW78029   3.241   8.482   0.934
25341SOL    HW178030  -7.883  30.584   0.973
25341SOL    HW278031   3.283   8.566   0.917
25342SOL     OW78032   5.070   1.949   7.282
25342SOL    HW178033   5.027   1.913   7.359
25342SOL    HW278034   4.999   1.963   7.219
25343SOL     OW78035   4.127  10.504   0.833
25343SOL    HW178036 -17.881  -0.509  22.971
25343SOL    HW278037  -6.976  10.461   0.890
25344SOL     OW78038   7.686   2.156   8.929
25344SOL    HW178039   7.637  -8.908   8.851
25344SOL    HW278040   7.627   2.139  31.080
25345SOL     OW78041   4.149   8.627   7.703
25345SOL    HW178042   4.187 -13.406   7.628
25345SOL    HW278043  15.240 -24.572   7.709
25346SOL     OW78044   6.631   4.894   1.044
25346SOL    HW178045   6.590   4.912  23.208
25346SOL    HW278046   6.681   4.974   1.024
25347SOL     OW78047   2.470   7.595   9.531
25347SOL    HW178048   2.432   7.508   9.521
25347SOL    HW278049   2.545   7.596   9.471
25348SOL     OW78050  10.425  -1.125   0.416
25348SOL    HW178051  10.493  21.021   0.414
25348SOL    HW278052  10.353  -1.085   0.465
25349SOL     OW78053   3.434   7.822   7.442
25349SOL    HW178054 -18.641   7.802   7.535
25349SOL    HW278055   3.369  -3.278  18.446
25350SOL     OW78056   0.245   5.040   7.608
25350SOL    HW178057   0.336   5.008   7.608
25350SOL    HW278058   0.241   5.100   7.682
25351SOL     OW78059   6.830   5.684   4.801
25351SOL    HW178060   6.741   5.719   4.796
25351SOL    HW278061  -4.222   5.589   4.808
25352SOL     OW78062  11.429   2.986   3.388
25352SOL    HW178063   0.434  -8.138   3.395
25352SOL    HW278064 -32.823   2.964   3.384
25353SOL     OW78065   0.570   0.076   2.974
25353SOL    HW178066  33.607   0.032  13.992
25353SOL    HW278067  55.801   0.107  24.969
25354SOL     OW78068   0.755   8.333  11.771
25354SOL    HW178069  11.745   8.328 -10.390
25354SOL    HW278070  11.881  19.405  11.745
25355SOL     OW78071   5.309   9.488   4.063
25355SOL    HW178072  49.459   9.580   4.038
25355SOL    HW278073   5.393   9.482   4.108
25356SOL     OW78074   9.076   3.992   7.417
25356SOL    HW178075   9.122  -7.126  18.427
25356SOL    HW278076   9.012   3.961   7.480
25357SOL     OW78077  -0.163   5.517   3.773
25357SOL    HW178078  21.854   5.457   3.813
25357SOL    HW278079  -0.077  -5.552  -7.235
25358SOL     OW78080  11.593   5.494   3.404
25358SOL    HW178081   0.517   5.578   3.378
25358SOL    HW278082 -21.452   5.481  -7.695
25359SOL     OW78083   2.462   7.827  10.309
25359SOL    HW178084  24.628   7.833  -0.691
25359SOL    HW278085   2.403   7.810 -22.736
25360SOL     OW78086   4.031   9.954  10.653
25360SOL    HW178087   4.028  10.050  -0.388
25360SOL    HW278088   4.067   9.930  10.568
25361SOL     OW78089   3.565   8.754   4.116
25361SOL    HW178090   3.577 -13.233   4.092
25361SOL    HW278091   3.483  -2.286   4.166
25362SOL     OW78092   5.304   9.849   6.421
25362SOL    HW178093   5.296  -1.176   6.515
25362SOL    HW278094  -5.689 -12.152   6.389
25363SOL     OW78095   1.906   5.403   1.027
25363SOL    HW178096  -9.090   5.321   1.006
25363SOL    HW278097   1.944   5.467   0.967
25364SOL     OW78098   6.212   8.691   6.161
25364SOL    HW178099   6.132   8.654   6.199
25364SOL    HW278100  17.231  -2.256   6.148
25365SOL     OW78101   2.013  10.969   3.788
25365SOL    HW178102   2.069  -0.036  36.976
25365SOL    HW278103  12.972  -0.018   3.794
25366SOL     OW78104   7.599   9.169   4.392
25366SOL    HW178105   7.604   9.255   4.432
25366SOL    HW278106   7.542   9.182   4.316
25367SOL     OW78107   8.587   8.157   3.280
25367SOL    HW178108   8.541  19.171   3.360
25367SOL    HW278109  19.697   8.214   3.311
25368SOL     OW78110   0.132   7.613   2.037
25368SOL    HW178111  11.176   7.709   2.036
25368SOL    HW278112   0.223  18.624   2.045
25369SOL     OW78113   2.815   3.489  -0.058
25369SOL    HW178114   2.788   3.574  11.015
25369SOL    HW278115   2.732  14.483  -0.076
25370SOL     OW78116   0.196   0.285   2.914
25370SOL    HW178117   0.258   0.289 -19.092
25370SOL    HW278118   0.114   0.318   2.951
25371SOL     OW78119   2.709   7.247   7.459
25371SOL    HW178120  24.829   7.297   7.530
25371SOL    HW278121  24.813   7.157   7.476
25372SOL     OW78122   3.012  11.768   7.582
25372SOL    HW178123   3.031   0.810 -14.452
25372SOL    HW278124  -8.052   0.667   7.651
25373SOL     OW78125   4.981   1.124   9.651
25373SOL    HW178126   5.063   1.084   9.624
25373SOL    HW278127   4.915   1.056   9.639
25374SOL     OW78128  -1.034  11.228   0.331
25374SOL    HW178129  21.080  11.150  11.327
25374SOL    HW278130  -0.965   0.254   0.321
25375SOL     OW78131   8.196  11.554   5.722
25375SOL    HW178132   8.113   0.489  -5.279
25375SOL    HW278133 -13.852   0.435   5.678
25376SOL     OW78134   6.080   2.730   0.356
25376SOL    HW178135  -4.924  -8.398   0.348
25376SOL    HW278136 -16.094   2.719   0.351
25377SOL     OW78137   6.116   6.898   3.530
25377SOL    HW178138  28.248 -26.300  14.564
25377SOL    HW278139   6.083 -15.180   3.620
25378SOL     OW78140   3.828   2.496   2.293
25378SOL    HW178141   3.752 -19.631   2.327
25378SOL    HW278142   3.851   2.450   2.212
25379SOL     OW78143  10.871   1.434   8.351
25379SOL    HW178144  10.933   1.505   8.368
25379SOL    HW278145  10.885 -20.707   8.422
25380SOL     OW78146   3.102  10.327   0.066
25380SOL    HW178147   3.197  10.314  11.106
25380SOL    HW278148   3.065  10.240   0.058
25381SOL     OW78149   6.372   5.586  11.552
25381SOL    HW178150   6.353   5.629   0.429
25381SOL    HW278151   6.316   5.631  11.615
25382SOL     OW78152   5.801   8.274  10.260
25382SOL    HW178153  27.965   8.288  10.302
25382SOL    HW278154   5.805  30.263  10.228
25383SOL     OW78155   8.983   7.939   2.792
25383SOL    HW178156   8.901   7.989  13.832
25383SOL    HW278157 -24.080  -3.054   2.730
25384SOL     OW78158   2.358   0.224  10.152
25384SOL    HW178159  -8.737   0.180  -0.823
25384SOL    HW278160   2.321   0.312  32.223
25385SOL     OW78161   3.646   1.818   9.264
25385SOL    HW178162  14.645   1.859   9.340
25385SOL    HW278163   3.594   1.849   9.189
25386SOL     OW78164   7.467  10.481   8.240
25386SOL    HW178165   7.470  10.519  19.192
25386SOL    HW278166   7.395  10.527   8.283
25387SOL     OW78167   1.280   0.874   6.522
25387SOL    HW178168  12.301   0.836   6.436
25387SOL    HW278169  12.394   0.824   6.554
25388SOL     OW78170   5.470  10.528   1.734
25388SOL    HW178171   5.497  10.570   1.652
25388SOL    HW278172 -16.687  10.478   1.710
25389SOL     OW78173   0.265   1.898   8.768
25389SOL    HW178174   0.173   1.919 -24.368
25389SOL    HW278175   0.262   1.814   8.814
25390SOL     OW78176   8.836  13.440   9.555
25390SOL    HW178177  -2.166  -8.727   9.562
25390SOL    HW278178   8.819 -19.668   9.461
25391SOL     OW78179  12.043  10.149  -1.133
25391SOL    HW178180  12.011  21.204  -1.044
25391SOL    HW278181  -9.985  10.227  31.965
25392SOL     OW78182   9.889   5.626   7.068
25392SOL    HW178183   9.960   5.666 -15.062
25392SOL    HW278184  -1.230   5.647   7.020
25393SOL     OW78185   7.869   8.971   8.453
25393SOL    HW178186   7.929   8.917   8.504
25393SOL    HW278187   7.841 -24.204   8.380
25394SOL     OW78188   0.457   5.745   3.420
25394SOL    HW178189  11.417   5.745   3.368
25394SOL    HW278190   0.429   5.776  -7.533
25395SOL     OW78191   4.035   3.313  11.949
25395SOL    HW178192   3.963   3.337   0.968
25395SOL    HW278193   4.108   3.367   0.938
25396SOL     OW78194   3.856   1.615   1.172
25396SOL    HW178195   3.867   1.568  12.129
25396SOL    HW278196   3.876  -9.490  12.279
25397SOL     OW78197   4.292   1.765   7.468
25397SOL    HW178198   4.350  -9.199   7.458
25397SOL    HW278199   4.352   1.691  -3.561
25398SOL     OW78200   3.484   6.805   9.304
25398SOL    HW178201   3.469   6.771  20.255
25398SOL    HW278202   3.579 -26.318   9.315
25399SOL     OW78203   5.626  10.132   1.948
25399SOL    HW178204   5.632  10.096   2.037
25399SOL    HW278205 -38.586  10.210 -31.161
25400SOL     OW78206   4.494   5.188   4.814
25400SOL    HW178207   4.466   5.256   4.875
25400SOL    HW278208   4.475   5.223   4.727
25401SOL     OW78209   2.531   8.475   4.422
25401SOL    HW178210  13.654  -2.521  59.604
25401SOL    HW278211  -8.487  -2.637   4.481
25402SOL     OW78212   7.342   3.968   8.924
25402SOL    HW178213   7.303   3.943   9.007
25402SOL    HW278214   7.431  -7.105  -2.112
25403SOL     OW78215   3.507   0.420   5.292
25403SOL    HW178216  -7.626   0.440   5.299
25403SOL    HW278217   3.551   0.500   5.321
25404SOL     OW78218   5.463   7.685   1.204
25404SOL    HW178219   5.517   7.618   1.245
25404SOL    HW278220   5.376   7.646   1.197
25405SOL     OW78221  10.648   2.144   4.562
25405SOL    HW178222  10.653   2.154   4.467
25405SOL    HW278223  10.556   2.124  15.619
25406SOL     OW78224  10.517   4.623   5.070
25406SOL    HW178225  10.547   4.537   5.100
25406SOL    HW278226  10.522   4.679   5.148
25407SOL     OW78227   9.687   7.035   4.543
25407SOL    HW178228  20.759   6.951   4.510
25407SOL    HW278229   9.593   7.020   4.559
25408SOL     OW78230   9.217   1.203   7.922
25408SOL    HW178231   9.288   1.267   7.910
25408SOL    HW278232   9.137   1.255   7.922
25409SOL     OW78233   8.684   4.523   0.952
25409SOL    HW178234   8.651   4.451 -10.033
25409SOL    HW278235   8.713  15.519   0.872
25410SOL     OW78236   2.296   1.167   0.341
25410SOL    HW178237   2.244   1.137   0.415
25410SOL    HW278238   2.330   1.252   0.367
25411SOL     OW78239  11.649   5.369   0.213
25411SOL    HW178240 -21.473   5.325   0.298
25411SOL    HW278241   0.540   5.327   0.162
25412SOL     OW78242   4.788   1.645   2.253
25412SOL    HW178243  26.871   1.709   2.182
25412SOL    HW278244  15.871  -9.472  13.258
25413SOL     OW78245   4.997   8.519   6.540
25413SOL    HW178246  -5.984  -2.508  -4.425
25413SOL    HW278247   5.044   8.559   6.466
25414SOL     OW78248   2.759  -0.187   3.082
25414SOL    HW178249  13.878 -11.197   3.126
25414SOL    HW278250   2.790  32.878   3.009
25415SOL     OW78251   1.856   3.883   4.605
25415SOL    HW178252  -9.120   3.818  26.653
25415SOL    HW278253   1.820   3.844  15.724
25416SOL     OW78254   0.447   7.259   4.825
25416SOL    HW178255   0.530   7.226   4.860
25416SOL    HW278256   0.386   7.252  -6.141
25417SOL     OW78257   2.386   3.252  -0.962
25417SOL    HW178258   2.460  14.335  -1.004
25417SOL    HW278259   2.420   3.167  21.144
25418SOL     OW78260   6.772  10.416   7.318
25418SOL    HW178261   6.847  10.357  18.354
25418SOL    HW278262   6.724  21.440   7.237
25419SOL     OW78263   7.228   2.250   5.336
25419SOL    HW178264   7.215  -8.709   5.285
25419SOL    HW278265   7.212   2.277   5.427
25420SOL     OW78266   2.378   3.620  10.471
25420SOL    HW178267  -8.571   3.637  10.497
25420SOL    HW278268   2.331  -7.339  10.492
25421SOL     OW78269   4.304   3.700   9.552
25421SOL    HW178270   4.269   3.750  20.518
25421SOL    HW278271   4.296   3.608  20.565
25422SOL     OW78272  10.270   9.257   4.417
25422SOL    HW178273  10.350  31.288 -17.687
25422SOL    HW278274  -0.803   9.210  -6.546
25423SOL     OW78275   6.639   3.928  11.287
25423SOL    HW178276   6.685  -7.082  11.365
25423SOL    HW278277  17.652   4.008   0.204
25424SOL     OW78278   2.711   0.312   9.685
25424SOL    HW178279   2.714  22.418  20.633
25424SOL    HW278280   2.622 -10.759 -12.380
25425SOL     OW78281   3.206   8.179   2.301
25425SOL    HW178282   3.140   8.190   2.233
25425SOL    HW278283   3.270   8.119  13.304
25426SOL     OW78284   3.242   5.521   1.989
25426SOL    HW178285 -29.939   5.535  12.957
25426SOL    HW278286   3.274   5.608  -9.029
25427SOL     OW78287   1.670  10.240   5.347
25427SOL    HW178288   1.659  10.146  -5.679
25427SOL    HW278289   1.709  21.311   5.429
25428SOL     OW78290   4.120   2.092   3.755
25428SOL    HW178291   4.186   2.023  14.787
25428SOL    HW278292   4.047   2.061   3.700
25429SOL     OW78293   5.713  10.381   1.636
25429SOL    HW178294   5.721  10.465  12.721
25429SOL    HW278295   5.620  10.359   1.645
25430SOL     OW78296   9.643   1.369   5.813
25430SOL    HW178297   9.639   1.399  27.801
25430SOL    HW278298  20.742  -9.609   5.856
25431SOL     OW78299   2.975   3.114   5.647
25431SOL    HW178300   2.986   3.096  16.780
25431SOL    HW278301  -8.159   3.128   5.636
25432SOL     OW78302   0.883   6.036   8.355
25432SOL    HW178303  22.911  17.010  -2.731
25432SOL    HW278304  11.876  17.091  -2.603
25433SOL     OW78305   2.090   6.242   6.327
25433SOL    HW178306   2.021   6.234 -26.857
25433SOL    HW278307  -8.995   6.259   6.409
25434SOL     OW78308  10.339   4.147   0.681
25434SOL    HW178309 -22.842   4.081   0.712
25434SOL    HW278310  10.418   4.130   0.732
25435SOL     OW78311   7.823  10.594   5.871
25435SOL    HW178312   7.886 -11.557  16.908
25435SOL    HW278313   7.739 -11.526   5.847
25436SOL     OW78314   1.212  11.174   1.326
25436SOL    HW178315   1.295 -10.906   1.373
25436SOL    HW278316   1.188  11.082   1.318
25437SOL     OW78317   1.704   7.267   6.873
25437SOL    HW178318   1.760   7.201  17.953
25437SOL    HW278319  23.761 -25.889   6.787
25438SOL     OW78320   2.594   6.847   9.159
25438SOL    HW178321   2.523   6.869  -1.941
25438SOL    HW278322   2.569   6.888   9.242
25439SOL     OW78323   0.014   0.836   7.595
25439SOL    HW178324  -0.031   0.806   7.673
25439SOL    HW278325  10.986   0.837  -3.513
25440SOL     OW78326   0.760  10.525   4.154
25440SOL    HW178327   0.763  10.493   4.064
25440SOL    HW278328   0.786 -22.670 -17.872
25441SOL     OW78329   2.218   2.721   4.716
25441SOL    HW178330   2.203   2.659   4.788
25441SOL    HW278331  13.266  24.885  -6.280
25442SOL     OW78332   3.513  10.379   8.853
25442SOL    HW178333   3.426  10.340  30.939
25442SOL    HW278334   3.530 -22.734   8.759
25443SOL     OW78335   7.611   1.418   5.697
25443SOL    HW178336   7.559   1.340   5.714
25443SOL    HW278337  29.776  -9.640   5.736
25444SOL     OW78338   6.871   1.153   4.577
25444SOL    HW178339   6.782   1.156   4.612
25444SOL    HW278340   6.860  12.210  15.523
25445SOL     OW78341   3.958  10.237   7.725
25445SOL    HW178342   4.001 -11.911   7.675
25445SOL    HW278343   4.025  10.304  -3.301
25446SOL     OW78344   9.726   0.851  -0.179
25446SOL    HW178345   9.815  45.037  -0.157
25446SOL    HW278346  -1.369 -10.114  10.882
25447SOL     OW78347   2.712  10.839   1.650
25447SOL    HW178348   2.736  10.802   1.735
25447SOL    HW278349   2.622  10.810  12.676
25448SOL     OW78350   1.703   6.100   9.650
25448SOL    HW178351   1.748  -4.860  20.662
25448SOL    HW278352  -9.352  -4.926   9.744
25449SOL     OW78353   3.677  10.485  10.409
25449SOL    HW178354  14.708  10.439  10.325
25449SOL    HW278355   3.597  10.463  10.457
25450SOL     OW78356   8.570   8.456   8.085
25450SOL    HW178357  30.727   8.413  19.160
25450SOL    HW278358   8.540  -2.641   8.015
25451SOL     OW78359   1.885   6.070   0.631
25451SOL    HW178360  12.982   6.031 -10.343
25451SOL    HW278361  23.995  17.200   0.624
25452SOL     OW78362  12.952   8.613   8.008
25452SOL    HW178363  13.030  -2.458  -2.985
25452SOL    HW278364 -31.256  19.700   8.074
25453SOL     OW78365   6.640   7.290   0.459
25453SOL    HW178366   6.574   7.352   0.489
25453SOL    HW278367  17.632   7.228   0.404
25454SOL     OW78368   1.567   4.878   5.129
25454SOL    HW178369   1.554  26.893   5.059
25454SOL    HW278370   1.581  38.079  60.281
25455SOL     OW78371   9.956   5.582   2.935
25455SOL    HW178372  10.009  16.636   2.856
25455SOL    HW278373   9.975   5.657  36.109
25456SOL     OW78374   8.924   0.450  10.672
25456SOL    HW178375   8.975   0.442  10.592
25456SOL    HW278376   8.920   0.545  10.688
25457SOL     OW78377   2.403   2.161  11.074
25457SOL    HW178378   2.395   2.088   0.096
25457SOL    HW278379  -8.690   2.231  11.113
25458SOL     OW78380   4.215   3.401  12.726
25458SOL    HW178381   4.149   3.460 -20.357
25458SOL    HW278382   4.211  14.362  12.781
25459SOL     OW78383   1.868   4.842   5.037
25459SOL    HW178384   1.812  -6.128   5.072
25459SOL    HW278385  23.941  -6.268   5.102
25460SOL     OW78386   6.947   7.768   7.290
25460SOL    HW178387   6.873 -14.334   7.346
25460SOL    HW278388   6.911   7.769  40.320
25461SOL     OW78389   6.182   1.681   8.650
25461SOL    HW178390   6.111 -31.375   8.638
25461SOL    HW278391   6.162  12.677   8.733
25462SOL     OW78392   7.221   2.897   8.055
25462SOL    HW178393   7.226   2.802   8.060
25462SOL    HW278394   7.296   2.928   8.107
25463SOL     OW78395   9.234   7.408   6.926
25463SOL    HW178396   9.237   7.499   6.957
25463SOL    HW278397  20.292   7.415   6.832
25464SOL     OW78398   0.332   3.566   0.472
25464SOL    HW178399   0.334   3.646   0.524
25464SOL    HW278400   0.356  -7.444   0.383
25465SOL     OW78401   3.373   1.634   7.315
25465SOL    HW178402   3.438   1.675   7.258
25465SOL    HW278403   3.297   1.619   7.259
25466SOL     OW78404   1.103   9.010   4.431
25466SOL    HW178405   1.060   9.040   4.510
25466SOL    HW278406   1.191   9.049   4.434
25467SOL     OW78407   4.270   7.553   5.077
25467SOL    HW178408  -6.685   7.590  38.219
25467SOL    HW278409   4.255  -3.455  60.185
25468SOL     OW78410   7.407   1.968   0.040
25468SOL    HW178411   7.360 -20.081  22.197
25468SOL    HW278412  18.454   1.874   0.051
25469SOL     OW78413   2.622   2.399  10.109
25469SOL    HW178414   2.613   2.316 -12.018
25469SOL    HW278415  13.756  24.490  10.119
25470SOL     OW78416   9.470   7.339   6.011
25470SOL    HW178417   9.378   7.342   6.035
25470SOL    HW278418   9.473 -14.706   5.921
25471SOL     OW78419   1.332   1.578   3.929
25471SOL    HW178420  12.324   1.609   3.852
25471SOL    HW278421   1.339   1.654   3.986
25472SOL     OW78422   0.271   0.404   6.365
25472SOL    HW178423  11.404   0.401   6.385
25472SOL    HW278424 -10.807   0.455   6.437
25473SOL     OW78425   3.879   9.904  10.884
25473SOL    HW178426   3.922   9.885  -0.239
25473SOL    HW278427   3.794 -12.219  10.878
25474SOL     OW78428   7.400   7.031   2.979
25474SOL    HW178429   7.322   7.082   2.999
25474SOL    HW278430   7.372   6.940   2.982
25475SOL     OW78431   6.632   8.826   9.110
25475SOL    HW178432  -4.391   8.908   9.062
25475SOL    HW278433   6.701   8.767  20.119
25476SOL     OW78434   5.726   9.101   7.233
25476SOL    HW178435   5.747  42.312   7.221
25476SOL    HW278436   5.720   9.089  -3.712
25477SOL     OW78437   8.199  10.047   1.917
25477SOL    HW178438  -2.929  10.071   1.889
25477SOL    HW278439   8.246 -23.090   1.836
25478SOL     OW78440  10.928   4.334   1.597
25478SOL    HW178441  10.843  15.337   1.570
25478SOL    HW278442  -0.053   4.258   1.601
25479SOL     OW78443   1.822   8.155  11.844
25479SOL    HW178444   1.869  19.265  11.800
25479SOL    HW278445   1.868  19.182 -10.153
25480SOL     OW78446   6.455   0.352   9.303
25480SOL    HW178447   6.441   0.402   9.222
25480SOL    HW278448   6.392   0.279  -1.743
25481SOL     OW78449   5.660   2.232   2.215
25481SOL    HW178450   5.637   2.185  13.335
25481SOL    HW278451  16.735 -19.764  13.285
25482SOL     OW78452   6.471   6.539   1.238
25482SOL    HW178453   6.434  17.537  12.199
25482SOL    HW278454   6.403  -4.439  34.385
25483SOL     OW78455   7.310   3.756   8.095
25483SOL    HW178456  18.290   3.774   8.022
25483SOL    HW278457   7.389  -7.234   8.076
25484SOL     OW78458   9.326   0.481   3.873
25484SOL    HW178459   9.303  11.477   3.955
25484SOL    HW278460   9.242   0.504   3.833
25485SOL     OW78461  10.175  10.048   5.785
25485SOL    HW178462  -0.774  10.035  -5.285
25485SOL    HW278463  -0.860  10.126   5.841
25486SOL     OW78464   2.687   8.739   1.952
25486SOL    HW178465  -8.381  -2.327   2.040
25486SOL    HW278466  -8.301   8.664 -20.158
25487SOL     OW78467   5.034  10.943   9.346
25487SOL    HW178468  16.041  10.974   9.261
25487SOL    HW278469   5.022  -0.022   9.405
25488SOL     OW78470   5.118   4.836   8.047
25488SOL    HW178471   5.136  -6.222   7.954
25488SOL    HW278472   5.173   4.912   8.067
25489SOL     OW78473  -2.595   9.213  10.668
25489SOL    HW178474  41.597   9.286  10.720
25489SOL    HW278475   8.510   9.144  10.678
25490SOL     OW78476   6.951   3.445   4.913
25490SOL    HW178477   6.904   3.465 -17.247
25490SOL    HW278478   7.040  -7.564   4.898
25491SOL     OW78479   8.818  -1.063   9.386
25491SOL    HW178480   8.740   9.964   9.441
25491SOL    HW278481 -24.335  10.002  -1.739
25492SOL     OW78482   5.854   3.367   6.494
25492SOL    HW178483  16.804   3.390  17.558
25492SOL    HW278484   5.864  -7.764   6.523
25493SOL     OW78485   2.482   9.025   1.174
25493SOL    HW178486  -8.629   9.076  23.214
25493SOL    HW278487   2.456 -13.145   1.162
25494SOL     OW78488   5.014   5.743   2.904
25494SOL    HW178489  -6.010   5.651   2.925
25494SOL    HW278490   4.943   5.741   2.840
25495SOL     OW78491   3.208   6.389   5.212
25495SOL    HW178492   3.119   6.422   5.210
25495SOL    HW278493  -7.826   6.340   5.294
25496SOL     OW78494   2.130   7.346   1.172
25496SOL    HW178495   2.065  18.367   1.239
25496SOL    HW278496   2.214   7.348   1.219
25497SOL     OW78497   4.141   3.145   5.142
25497SOL    HW178498   4.163   3.062  16.223
25497SOL    HW278499  15.193   3.129   5.048
25498SOL     OW78500   0.485   6.939   6.931
25498SOL    HW178501   0.532  -4.174  29.050
25498SOL    HW278502   0.506   7.014   6.988
25499SOL     OW78503   4.543   9.573   3.914
25499SOL    HW178504   4.535   9.558   3.819
25499SOL    HW278505   4.479   9.641   3.933
25500SOL     OW78506   1.666  10.251   4.184
25500SOL    HW178507   1.687  10.342  -6.838
25500SOL    HW278508   1.602  10.254   4.113
25501SOL     OW78509  11.124   5.835   7.020
25501SOL    HW178510   0.084   5.895   6.945
25501SOL    HW278511 -21.908   5.847   7.060
25502SOL     OW78512  12.091   4.138   7.768
25502SOL    HW178513  12.158   4.174   7.710
25502SOL    HW278514 -10.069   4.145   7.719
25503SOL     OW78515   7.455   3.444   6.245
25503SOL    HW178516   7.402  14.542   6.299
25503SOL    HW278517  29.471   3.386  17.242
25504SOL     OW78518   3.573   7.188   3.810
25504SOL    HW178519   3.498   7.227   3.854
25504SOL    HW278520   3.640   7.257 -29.308
25505SOL     OW78521   9.709  -0.606  10.556
25505SOL    HW178522 -23.373  10.521  10.555
25505SOL    HW278523   9.653  -0.608  10.633
25506SOL     OW78524   7.169   5.196   8.638
25506SOL    HW178525   7.204  -5.766   8.594
25506SOL    HW278526   7.167  -5.821   8.731
25507SOL     OW78527   6.063   9.141   3.869
25507SOL    HW178528   6.123   9.111 -18.279
25507SOL    HW278529   6.050   9.234   3.850
25508SOL     OW78530  11.024   3.612   8.042
25508SOL    HW178531  10.994   3.644  52.286
25508SOL    HW278532  10.976  14.570   8.029
25509SOL     OW78533   1.634   9.490   9.865
25509SOL    HW178534   1.586   9.568   9.891
25509SOL    HW278535   1.700   9.478  20.972
25510SOL     OW78536   0.444   3.833   0.864
25510SOL    HW178537   0.415   3.921  22.966
25510SOL    HW278538   0.488   3.801  23.022
25511SOL     OW78539   4.719   4.814   9.964
25511SOL    HW178540  15.791  -6.155  -1.131
25511SOL    HW278541   4.635   4.790   9.926
25512SOL     OW78542   3.741   3.346   9.585
25512SOL    HW178543   3.735   3.392   9.502
25512SOL    HW278544  14.759  -7.628   9.651
25513SOL     OW78545   3.614   4.501   5.119
25513SOL    HW178546   3.597   4.421   5.070
25513SOL    HW278547  -7.418   4.473   5.210
25514SOL     OW78548   1.505  -0.919   2.863
25514SOL    HW178549   1.513  -1.006   2.903
25514SOL    HW278550   1.535  21.149 -41.385
25515SOL     OW78551   6.000   3.880   5.459
25515SOL    HW178552   5.979   3.968   5.430
25515SOL    HW278553  17.135  -7.165  -5.589
25516SOL     OW78554   8.457   5.548   5.531
25516SOL    HW178555   8.426   5.588  16.489
25516SOL    HW278556   8.405  16.630   5.599
25517SOL     OW78557   0.885   1.859   6.625
25517SOL    HW178558   0.809  12.957   6.630
25517SOL    HW278559  23.033   1.905   6.673
25518SOL     OW78560   4.454   7.277   1.028
25518SOL    HW178561  15.573   7.293   1.079
25518SOL    HW278562  -6.653   7.261   1.094
25519SOL     OW78563   0.014   2.347   5.689
25519SOL    HW178564  22.098  13.429  -5.265
25519SOL    HW278565   0.044  -8.625   5.627
25520SOL     OW78566   9.030   4.856   3.186
25520SOL    HW178567   9.006  26.993   3.114
25520SOL    HW278568   9.126   4.849   3.180
25521SOL     OW78569   7.676   9.959   3.565
25521SOL    HW178570  18.726  10.052  14.626
25521SOL    HW278571   7.607 -12.121   3.498
25522SOL     OW78572   7.625   8.827   4.804
25522SOL    HW178573   7.584   8.804  26.967
25522SOL    HW278574   7.554   8.820   4.740
25523SOL     OW78575   9.831   1.486   3.103
25523SOL    HW178576   9.799   1.405  36.261
25523SOL    HW278577   9.792  12.595  14.196
25524SOL     OW78578   1.981   2.718   6.389
25524SOL    HW178579  13.019   2.622   6.395
25524SOL    HW278580   1.947   2.737   6.302
25525SOL     OW78581   9.099   0.792   2.812
25525SOL    HW178582  -1.876   0.792   2.882
25525SOL    HW278583  -1.957 -10.155  13.834
25526SOL     OW78584  10.976   6.841   6.499
25526SOL    HW178585  -0.039   6.748  28.578
25526SOL    HW278586  10.884  -4.198  17.514
25527SOL     OW78587  10.927   0.926   0.384
25527SOL    HW178588  10.899   0.997   0.443
25527SOL    HW278589  -0.119   0.963   0.296
25528SOL     OW78590   4.742   4.554   9.163
25528SOL    HW178591   4.736   4.625   9.100
25528SOL    HW278592   4.739   4.474   9.110
25529SOL     OW78593   4.212  10.291   4.979
25529SOL    HW178594   4.248  10.378  -6.044
25529SOL    HW278595 -28.864  10.263 -17.181
25530SOL     OW78596   6.867   9.194   4.518
25530SOL    HW178597   6.847   9.196   4.424
25530SOL    HW278598   6.782   9.192   4.561
25531SOL     OW78599   2.824   8.601   9.665
25531SOL    HW178600  -8.250   8.659   9.733
25531SOL    HW278601  13.786  19.603   9.624
25532SOL     OW78602   4.149  11.657   2.182
25532SOL    HW178603   4.242  11.680   2.190
25532SOL    HW278604   4.147 -10.517   2.186
25533SOL     OW78605   0.636   7.505   9.905
25533SOL    HW178606  11.729   7.454   9.844
25533SOL    HW278607   0.683   7.588   9.915
25534SOL     OW78608   6.897   5.075   8.606
25534SOL    HW178609   6.828   5.067 -13.540
25534SOL    HW278610   6.925   5.166   8.600
25535SOL     OW78611   4.259   4.644   2.201
25535SOL    HW178612   4.345   4.679 -30.896
25535SOL    HW278613   4.212   4.718   2.163
25536SOL     OW78614   6.148   8.975   7.231
25536SOL    HW178615   6.233 -24.148  18.314
25536SOL    HW278616   6.124   9.068   7.235
25537SOL     OW78617   4.753   7.399   5.384
25537SOL    HW178618   4.815   7.472  -5.652
25537SOL    HW278619   4.784   7.338   5.450
25538SOL     OW78620   1.121   8.041   8.915
25538SOL    HW178621   1.122   8.044  20.051
25538SOL    HW278622   1.133   8.133  30.968
25539SOL     OW78623   9.839   3.323   1.200
25539SOL    HW178624   9.826   3.315   1.106
25539SOL    HW278625   9.933  -7.698   1.210
25540SOL     OW78626   2.748   4.028   8.419
25540SOL    HW178627   2.723   3.948   8.465
25540SOL    HW278628   2.730   4.009   8.327
25541SOL     OW78629   8.620   0.717   2.493
25541SOL    HW178630   8.627 -10.391   2.427
25541SOL    HW278631   8.703   0.765   2.487
25542SOL     OW78632   7.178   3.420   3.235
25542SOL    HW178633   7.176   3.412   3.140
25542SOL    HW278634   7.149  14.375   3.267
25543SOL     OW78635   4.267   4.035   8.714
25543SOL    HW178636   4.306   4.116   8.748
25543SOL    HW278637   4.213  26.082   8.786
25544SOL     OW78638   2.425   2.773  -1.720
25544SOL    HW178639  -8.610  -8.244   9.412
25544SOL    HW278640   2.361   2.702  42.434
25545SOL     OW78641   6.265   0.135   6.955
25545SOL    HW178642   6.205   0.188   7.008
25545SOL    HW278643   6.209  22.173   6.889
25546SOL     OW78644   1.745   4.626   8.927
25546SOL    HW178645  12.878   4.605   8.922
25546SOL    HW278646  23.780   4.542   8.915
25547SOL     OW78647   3.719   1.930   5.202
25547SOL    HW178648   3.726   1.852   5.257
25547SOL    HW278649   3.635   1.920   5.157
25548SOL     OW78650   1.436   7.047   1.727
25548SOL    HW178651  34.638   7.047   1.679
25548SOL    HW278652   1.413   6.954   1.734
25549SOL     OW78653   2.278  10.105   9.487
25549SOL    HW178654   2.364  21.144  20.569
25549SOL    HW278655   2.246  10.015   9.494
25550SOL     OW78656   8.216   9.027  12.879
25550SOL    HW178657   8.299  -2.054 -20.216
25550SOL    HW278658   8.230   9.062  12.791
25551SOL     OW78659   7.832   5.069  10.990
25551SOL    HW178660  41.039   5.058  11.024
25551SOL    HW278661  18.883   5.083  -0.144
25552SOL     OW78662   5.441   8.463   8.909
25552SOL    HW178663   5.505   8.428  20.010
25552SOL    HW278664   5.491   8.480  19.869
25553SOL     OW78665   2.473   5.996   3.621
25553SOL    HW178666   2.555  28.124   3.614
25553SOL    HW278667   2.412   6.057   3.661
25554SOL     OW78668   3.284   0.575   4.590
25554SOL    HW178669   3.283   0.485   4.622
25554SOL    HW278670   3.273   0.629  26.748
25555SOL     OW78671  -0.456   9.857   5.935
25555SOL    HW178672  10.608   9.916  -5.176
25555SOL    HW278673  -0.526   9.902  17.020
25556SOL     OW78674   6.507   9.734   4.996
25556SOL    HW178675   6.481   9.763  15.948
25556SOL    HW278676   6.426   9.705   5.037
25557SOL     OW78677  10.916   4.423   1.949
25557SOL    HW178678  10.851   4.354  24.011
25557SOL    HW278679  10.876   4.503  -9.126
25558SOL     OW78680   5.700  12.195   3.522
25558SOL    HW178681   5.726   1.079  -7.568
25558SOL    HW278682 -16.469   1.172   3.497
25559SOL     OW78683  11.195   2.109  12.407
25559SOL    HW178684   0.156   2.035 -20.651
25559SOL    HW278685  11.269   2.163  12.434
25560SOL     OW78686   4.427   8.264  13.569
25560SOL    HW178687   4.354   8.308 -30.545
25560SOL    HW278688   4.455   8.327 -41.695
25561SOL     OW78689   3.805   7.690   9.506
25561SOL    HW178690   3.845 -14.475   9.513
25561SOL    HW278691   3.878   7.750   9.495
25562SOL     OW78692   7.668   5.693  -0.860
25562SOL    HW178693  29.658   5.675  21.191
25562SOL    HW278694   7.686   5.628  -0.792
25563SOL     OW78695  10.025   4.977   8.035
25563SOL    HW178696  10.050   5.055   8.085
25563SOL    HW278697  21.138   4.916   8.047
25564SOL     OW78698   7.727   7.651   0.162
25564SOL    HW178699   7.791   7.651   0.091
25564SOL    HW278700  -3.282  18.759   0.222
25565SOL     OW78701   7.074   9.293   5.345
25565SOL    HW178702  18.177   9.365   5.350
25565SOL    HW278703   7.108   9.227   5.406
25566SOL     OW78704   9.889  10.977   9.296
25566SOL    HW178705   9.835  10.932   9.361
25566SOL    HW278706   9.827  11.010 -12.848
25567SOL     OW78707   2.189   8.436   9.807
25567SOL    HW178708   2.180   8.422 -12.178
25567SOL    HW278709  24.180   8.457  -1.263
25568SOL     OW78710   1.722   1.047   7.097
25568SOL    HW178711  34.919   0.994  -3.925
25568SOL    HW278712   1.747   1.135   7.127
25569SOL     OW78713   1.494   9.410   7.635
25569SOL    HW178714   1.414   9.456  -3.381
25569SOL    HW278715   1.507  -1.693   7.705
25570SOL     OW78716   6.142   5.122   7.110
25570SOL    HW178717  -4.829 -17.012   7.072
25570SOL    HW278718   6.082   5.061   7.151
25571SOL     OW78719  10.586   8.796   2.456
25571SOL    HW178720  10.561   8.731  13.562
25571SOL    HW278721  -0.440   8.745   2.377
25572SOL     OW78722   9.841   7.658  11.051
25572SOL    HW178723   9.796   7.740  11.068
25572SOL    HW278724  -1.125   7.682  -0.045
25573SOL     OW78725   8.465  11.389   9.919
25573SOL    HW178726  19.591 -21.699  -1.147
25573SOL    HW278727  19.503 -10.783  -1.145
25574SOL     OW78728   0.998   1.626   5.699
25574SOL    HW178729   1.023   1.636   5.607
25574SOL    HW278730 -10.101  -9.341  27.795
25575SOL     OW78731   7.123   9.852   1.984
25575SOL    HW178732   7.058   9.886   2.046
25575SOL    HW278733   7.136  -1.278  -9.027
25576SOL     OW78734   2.864   6.094   7.994
25576SOL    HW178735   2.832  17.051  19.071
25576SOL    HW278736   2.799   6.159   8.021
25577SOL     OW78737   0.698   4.571   7.057
25577SOL    HW178738   0.621   4.531  18.057
25577SOL    HW278739   0.766   4.505   7.050
25578SOL     OW78740   3.045   8.807   7.958
25578SOL    HW178741   3.091   8.873   7.904
25578SOL    HW278742  14.104   8.724   7.915
25579SOL     OW78743   2.568   9.500   0.121
25579SOL    HW178744   2.541   9.559   0.051
25579SOL    HW278745  24.582  20.553   0.190
25580SOL     OW78746   5.354   2.243   5.482
25580SOL    HW178747   5.315  -8.792   5.395
25580SOL    HW278748   5.296   2.296   5.537
25581SOL     OW78749   1.655  11.285  -0.276
25581SOL    HW178750   1.577  11.319  10.720
25581SOL    HW278751   1.721 -21.766  21.792
25582SOL     OW78752   0.570   9.766   0.652
25582SOL    HW178753  11.584   9.833   0.715
25582SOL    HW278754   0.593   9.690   0.705
25583SOL     OW78755   0.858   2.579   3.910
25583SOL    HW178756 -21.236   2.664   3.951
25583SOL    HW278757  11.859 -19.491  -7.217
25584SOL     OW78758   3.173   7.381   6.410
25584SOL    HW178759   3.263  18.446   6.385
25584SOL    HW278760  14.200   7.420 -26.623
25585SOL     OW78761   4.470   7.227   1.501
25585SOL    HW178762   4.485   7.321   1.506
25585SOL    HW278763   4.461   7.199   1.592
25586SOL     OW78764   7.836   3.885   4.320
25586SOL    HW178765 -14.153   3.875   4.289
25586SOL    HW278766 -25.337   3.859  26.325
25587SOL     OW78767   3.110   4.289  11.007
25587SOL    HW178768  -7.864   4.219  11.011
25587SOL    HW278769 -19.024  -6.773  10.932
25588SOL     OW78770   4.887   8.422   1.598
25588SOL    HW178771  -6.069   8.377  12.649
25588SOL    HW278772   4.888   8.490   1.666
25589SOL     OW78773   6.980   0.587   2.907
25589SOL    HW178774 -15.134   0.514   2.854
25589SOL    HW278775   6.934   0.580   2.990
25590SOL     OW78776   3.944   9.547   7.715
25590SOL    HW178777   3.934   9.623  18.697
25590SOL    HW278778  37.009   9.567   7.792
25591SOL     OW78779   2.132   8.442  -0.398
25591SOL    HW178780  24.201   8.537  -0.404
25591SOL    HW278781   2.048   8.410  10.674
25592SOL     OW78782   1.962   5.213   3.806
25592SOL    HW178783  -9.164  -5.811  -7.271
25592SOL    HW278784 -20.108   5.280   3.874
25593SOL     OW78785   4.905   7.646   5.366
25593SOL    HW178786  15.919   7.672   5.277
25593SOL    HW278787   5.000  -3.395  16.403
25594SOL     OW78788   6.488  10.100  -0.576
25594SOL    HW178789   6.478  10.060  -0.489
25594SOL    HW278790   6.561  -0.879  32.552
25595SOL     OW78791   1.011   4.333   5.133
25595SOL    HW178792   0.924   4.317   5.096
25595SOL    HW278793   1.011  15.325   5.217
25596SOL     OW78794   7.609   5.192   0.036
25596SOL    HW178795   7.671   5.259   0.063
25596SOL    HW278796   7.661   5.131  -0.016
25597SOL     OW78797   6.617   2.332   6.341
25597SOL    HW178798   6.601   2.321   6.434
25597SOL    HW278799   6.588   2.250   6.301
25598SOL     OW78800   6.685   7.732   2.851
25598SOL    HW178801   6.631  -3.345   2.920
25598SOL    HW278802  -4.403   7.714   2.770
25599SOL     OW78803   4.299   1.507   0.249
25599SOL    HW178804   4.224   1.484   0.304
25599SOL    HW278805   4.291   1.449   0.173
25600SOL     OW78806   3.021   3.314   0.401
25600SOL    HW178807  13.996   3.275   0.460
25600SOL    HW278808  -7.934   3.285   0.436
25601SOL     OW78809   7.245   8.664   6.352
25601SOL    HW178810   7.178   8.604  17.423
25601SOL    HW278811   7.317   8.608   6.324
25602SOL     OW78812   1.421   5.398   7.070
25602SOL    HW178813  12.394  -5.696   7.112
25602SOL    HW278814  12.418   5.483  -3.979
25603SOL     OW78815   6.098   4.711   3.310
25603SOL    HW178816  17.174   4.780 -18.824
25603SOL    HW278817  17.072   4.756   3.364
25604SOL     OW78818  11.018  10.323   7.537
25604SOL    HW178819  10.948  10.287   7.483
25604SOL    HW278820  10.988  10.312   7.627
25605SOL     OW78821   1.712   9.951   2.354
25605SOL    HW178822   1.639  20.959   2.301
25605SOL    HW278823   1.765   9.874   2.370
25606SOL     OW78824   4.506   1.402   9.880
25606SOL    HW178825   4.465   1.458   9.814
25606SOL    HW278826  -6.457   1.451 -34.249
25607SOL     OW78827   9.483   2.135  -1.136
25607SOL    HW178828   9.541   2.083   9.960
25607SOL    HW278829   9.467  24.157  31.907
25608SOL     OW78830   0.764   5.685   3.789
25608SOL    HW178831   0.694   5.715   3.847
25608SOL    HW278832   0.795   5.603  36.946
25609SOL     OW78833   9.922   3.956   9.199
25609SOL    HW178834   9.898   3.863  20.237
25609SOL    HW278835   9.860   3.998   9.140
25610SOL     OW78836   5.881   4.843   1.911
25610SOL    HW178837   5.938   4.909   1.872
25610SOL    HW278838  -5.239   4.890   1.931
25611SOL     OW78839   8.345   6.344   4.601
25611SOL    HW178840  30.375   6.396  15.704
25611SOL    HW278841   8.389   6.277   4.653
25612SOL     OW78842   8.526   9.815   5.932
25612SOL    HW178843   8.556 -12.355   5.933
25612SOL    HW278844   8.606 -12.213   5.917
25613SOL     OW78845   1.036   9.103   2.504
25613SOL    HW178846   1.058   9.013   2.478
25613SOL    HW278847  12.121  20.197   2.439
25614SOL     OW78848   3.573  11.754   7.308
25614SOL    HW178849   3.643 -10.262   7.292
25614SOL    HW278850   3.596 -10.401   7.254
25615SOL     OW78851  10.792   5.826   2.142
25615SOL    HW178852  -0.259   5.733   2.158
25615SOL    HW278853  10.795   5.866  -8.811
25616SOL     OW78854   6.812   4.259   9.647
25616SOL    HW178855   6.721   4.245   9.618
25616SOL    HW278856 -15.276  26.384  -1.309
25617SOL     OW78857   7.121   6.896  10.299
25617SOL    HW178858   7.160   6.927  -0.659
25617SOL    HW278859   7.094   6.806  -0.722
25618SOL     OW78860   3.134   3.836   3.749
25618SOL    HW178861  14.087  14.846   3.719
25618SOL    HW278862   3.185   3.844   3.668
25619SOL     OW78863   8.771   5.172   4.940
25619SOL    HW178864  -2.312  16.240   4.859
25619SOL    HW278865  -2.336   5.122  -6.053
25620SOL     OW78866   6.427   3.280   5.984
25620SOL    HW178867  -4.681   3.214  17.012
25620SOL    HW278868   6.453   3.272  -4.964
25621SOL     OW78869   0.621   2.707   9.929
25621SOL    HW178870   0.660  13.659   9.938
25621SOL    HW278871   0.694  -8.272   9.944
25622SOL     OW78872   7.715   9.285   2.303
25622SOL    HW178873   7.735  20.411   2.266
25622SOL    HW278874  18.838  -1.785   2.339
25623SOL     OW78875   9.548   9.792   6.746
25623SOL    HW178876  20.581  20.923   6.721
25623SOL    HW278877   9.610   9.754   6.683
25624SOL     OW78878   0.957   5.244   8.151
25624SOL    HW178879   0.995   5.181   8.090
25624SOL    HW278880   0.953   5.197   8.235
25625SOL     OW78881   1.306   3.199   0.907
25625SOL    HW178882   1.220   3.241   0.903
25625SOL    HW278883   1.347   3.235   0.985
25626SOL     OW78884   5.046   1.399  -0.506
25626SOL    HW178885  38.162   1.314  10.579
25626SOL    HW278886  16.109   1.462  -0.437
25627SOL     OW78887   2.418   2.584  10.198
25627SOL    HW178888   2.487  -8.400  10.234
25627SOL    HW278889   2.465 -19.565  10.153
25628SOL     OW78890   5.746   3.601   0.272
25628SOL    HW178891  -5.384   3.589   0.300
25628SOL    HW278892  27.876   3.543   0.329
25629SOL     OW78893   7.095   1.809   2.628
25629SOL    HW178894   7.187   1.794   2.649
25629SOL    HW278895   7.097   1.851 -30.577
25630SOL     OW78896   1.816   4.940   3.455
25630SOL    HW178897   1.787   4.983   3.374
25630SOL    HW278898   1.750   4.963  -7.520
25631SOL     OW78899   6.307   1.369   7.862
25631SOL    HW178900   6.226   1.320   7.849
25631SOL    HW278901   6.334   1.349  18.992
25632SOL     OW78902   0.142   6.370  10.182
25632SOL    HW178903  11.143   6.458  10.178
25632SOL    HW278904   0.210   6.376  10.249
25633SOL     OW78905  10.575  10.624   4.580
25633SOL    HW178906  10.541  10.684   4.513
25633SOL    HW278907  10.663 -11.424   4.597
25634SOL     OW78908   8.883   8.999   0.491
25634SOL    HW178909  20.006  -2.001   0.516
25634SOL    HW278910  -2.215   9.073   0.476
25635SOL     OW78911  10.497   4.334   2.274
25635SOL    HW178912  -0.627  15.417  -8.779
25635SOL    HW278913  10.545   4.393   2.332
25636SOL     OW78914  10.038   0.803   6.318
25636SOL    HW178915  10.127   0.791  -4.753
25636SOL    HW278916  10.005   0.714   6.333
25637SOL     OW78917   7.257   8.258   5.845
25637SOL    HW178918   7.247   8.337  27.977
25637SOL    HW278919  29.428   8.234   5.854
25638SOL     OW78920   1.114  11.570   1.512
25638SOL    HW178921   1.063  11.570   1.432
25638SOL    HW278922   1.068   0.590   1.571
25639SOL     OW78923   3.318   6.512   6.459
25639SOL    HW178924   3.325  28.563   6.550
25639SOL    HW278925  -7.755  17.641 -15.615
25640SOL     OW78926   6.641   6.758   5.422
25640SOL    HW178927   6.704   6.702   5.467
25640SOL    HW278928   6.680  -4.267  -5.704
25641SOL     OW78929  10.204   3.013   1.789
25641SOL    HW178930  10.110   3.022  -9.235
25641SOL    HW278931  -0.823   2.920   1.770
25642SOL     OW78932   7.416   3.260   0.731
25642SOL    HW178933 -14.722 -18.744   0.730
25642SOL    HW278934   7.359  -7.855   0.717
25643SOL     OW78935  11.227   9.185   6.991
25643SOL    HW178936 -10.866   9.239   7.069
25643SOL    HW278937  11.271   9.107   7.023
25644SOL     OW78938   1.245   3.989   5.203
25644SOL    HW178939   1.160  15.028   5.158
25644SOL    HW278940   1.255  26.157  -5.804
25645SOL     OW78941   4.137   5.751   8.940
25645SOL    HW178942   4.049   5.736  19.944
25645SOL    HW278943   4.129  27.806   9.032
25646SOL     OW78944   8.640   5.906   8.331
25646SOL    HW178945   8.650   5.822   8.285
25646SOL    HW278946  30.760  16.931   8.416
25647SOL     OW78947   6.702   7.906   4.151
25647SOL    HW178948   6.709   8.000  -6.906
25647SOL    HW278949  17.831   7.874  -6.894
25648SOL     OW78950  10.292   5.265   0.144
25648SOL    HW178951  10.271  -5.719   0.069
25648SOL    HW278952  10.377 -16.853   0.121
25649SOL     OW78953   5.820   6.142   9.959
25649SOL    HW178954  -5.278 -27.024  10.019
25649SOL    HW278955 -16.201   6.074  20.964
25650SOL     OW78956   1.408   3.449   2.457
25650SOL    HW178957  23.438  -7.561  24.460
25650SOL    HW278958   1.499   3.441  13.465
25651SOL     OW78959   7.029  11.290   9.174
25651SOL    HW178960  17.979   0.233  20.186
25651SOL    HW278961   7.081  11.220  20.174
25652SOL     OW78962   3.541   4.601   5.735
25652SOL    HW178963   3.508   4.601   5.824
25652SOL    HW278964   3.619   4.657 -27.381
25653SOL     OW78965   9.931  11.776  10.074
25653SOL    HW178966   9.901  11.811  10.158
25653SOL    HW278967   9.852 -10.342  10.036
25654SOL     OW78968   1.116   1.650  -0.156
25654SOL    HW178969   1.104   1.662  -0.061
25654SOL    HW278970   1.031   1.670  10.846
25655SOL     OW78971   8.365  11.175   1.950
25655SOL    HW178972   8.382  11.178 -20.035
25655SOL    HW278973  41.404   0.083  -9.098
25656SOL     OW78974   5.240   4.407   9.715
25656SOL    HW178975   5.210   4.479 -12.310
25656SOL    HW278976   5.284  15.489 -12.438
25657SOL     OW78977   7.029   5.254  11.370
25657SOL    HW178978 -15.025   5.315 -10.778
25657SOL    HW278979   7.045   5.167 -10.746
25658SOL     OW78980   6.471   5.066   8.617
25658SOL    HW178981   6.440  27.196   8.542
25658SOL    HW278982  -4.577  -6.065   8.588
25659SOL     OW78983   1.809  11.445   6.480
25659SOL    HW178984   1.887 -43.808  17.515
25659SOL    HW278985   1.835  22.566   6.437
25660SOL     OW78986  10.966   2.843   4.500
25660SOL    HW178987  -0.069   2.859   4.406
25660SOL    HW278988  10.988 -19.152   4.540
25661SOL     OW78989   8.274  -0.836   5.266
25661SOL    HW178990 -24.885  10.246   5.191
25661SOL    HW278991   8.313  10.123  16.270
25662SOL     OW78992   6.012   3.746   6.273
25662SOL    HW178993   5.930   3.699 -15.789
25662SOL    HW278994   5.989   3.839 -59.957
25663SOL     OW78995  10.140   1.702   4.333
25663SOL    HW178996  10.149 -20.465   4.295
25663SOL    HW278997  10.227  12.780   4.327
25664SOL     OW78998   5.440   9.043   3.168
25664SOL    HW178999   5.365   9.100  -7.855
25664SOL    HW279000   5.402 -13.123   3.157
25665SOL     OW79001   6.904   2.464   2.303
25665SOL    HW179002  17.944 -19.520   2.312
25665SOL    HW279003  18.017   2.445  -8.795
25666SOL     OW79004   9.750   9.464   6.477
25666SOL    HW179005  -1.232   9.495  17.447
25666SOL    HW279006   9.790   9.383   6.508
25667SOL     OW79007   2.228   6.096   1.691
25667SOL    HW179008   2.258   6.105   1.781
25667SOL    HW279009   2.141   6.056   1.698
25668SOL     OW79010   7.933   8.558   3.424
25668SOL    HW179011  29.936   8.543  -7.559
25668SOL    HW279012  30.088  19.589   3.482
25669SOL     OW79013   2.605   1.964   1.015
25669SOL    HW179014   2.575   2.052  12.030
25669SOL    HW279015   2.691  -9.083   0.974
25670SOL     OW79016  -0.726   7.209   4.756
25670SOL    HW179017  -0.711   7.173   4.843
25670SOL    HW279018  32.479   7.209  -6.325
25671SOL     OW79019   9.372   5.667  -1.619
25671SOL    HW179020   9.376   5.703   9.510
25671SOL    HW279021  -1.579   5.634  20.444
25672SOL     OW79022   5.458   6.028   0.188
25672SOL    HW179023   5.397   6.100   0.173
25672SOL    HW279024   5.539   6.070   0.217
25673SOL     OW79025   3.780   5.001   5.874
25673SOL    HW179026   3.779   5.061   5.949
25673SOL    HW279027   3.849 -28.084   5.817
25674SOL     OW79028  10.403   2.478   8.508
25674SOL    HW179029  10.475  13.521   8.572
25674SOL    HW279030  10.340   2.544   8.540
25675SOL     OW79031   3.369   7.853   4.220
25675SOL    HW179032   3.447   7.828   4.170
25675SOL    HW279033  25.482   7.908  -6.749
25676SOL     OW79034   1.126   2.119   8.926
25676SOL    HW179035   1.040   2.159   8.915
25676SOL    HW279036   1.119   2.034  -2.158
25677SOL     OW79037   6.097   9.457   0.445
25677SOL    HW179038   6.039 -12.593   0.375
25677SOL    HW279039   6.109   9.363   0.430
25678SOL     OW79040   9.374   6.038   8.956
25678SOL    HW179041  20.485  -5.053   8.918
25678SOL    HW279042   9.415  -4.955   9.029
25679SOL     OW79043   0.161   4.178   7.206
25679SOL    HW179044  22.333   4.189  18.227
25679SOL    HW279045  33.235   4.243  51.310
25680SOL     OW79046   2.050   2.484   6.709
25680SOL    HW179047  13.011   2.441 -15.335
25680SOL    HW279048   2.058   2.564  28.841
25681SOL     OW79049   8.893   5.688   6.199
25681SOL    HW179050   8.921   5.769 -26.963
25681SOL    HW279051  19.873  -5.322   6.268
25682SOL     OW79052   4.234   1.708   9.557
25682SOL    HW179053   4.206   1.670   9.474
25682SOL    HW279054   4.265 -20.284   9.535
25683SOL     OW79055   9.800   4.242  10.087
25683SOL    HW179056   9.870   4.262  10.025
25683SOL    HW279057   9.719   4.255  10.037
25684SOL     OW79058   9.814   6.533   5.409
25684SOL    HW179059   9.750 -15.480   5.382
25684SOL    HW279060   9.771   6.486   5.481
25685SOL     OW79061  11.031   4.797   2.336
25685SOL    HW179062  11.091   4.723   2.335
25685SOL    HW279063  10.947   4.761   2.364
25686SOL     OW79064  11.625   6.314   9.003
25686SOL    HW179065   0.556   6.320   9.094
25686SOL    HW279066 -10.438   6.221   8.989
25687SOL     OW79067   5.610  11.175   1.143
25687SOL    HW179068   5.677  11.243   1.146
25687SOL    HW279069  16.569   0.182   1.120
25688SOL     OW79070   2.424   1.528   5.110
25688SOL    HW179071  13.425   1.442   5.090
25688SOL    HW279072   2.422   1.575   5.026
25689SOL     OW79073   6.111   9.694   2.087
25689SOL    HW179074   6.122   9.782  13.092
25689SOL    HW279075   6.162   9.638  24.108
25690SOL     OW79076  13.719   3.867   8.170
25690SOL    HW179077  -8.353   3.812   8.092
25690SOL    HW279078 -19.494  14.926   8.176
25691SOL     OW79079  10.462   0.330   3.732
25691SOL    HW179080  10.464   0.307  -7.215
25691SOL    HW279081  10.374   0.308  14.742
25692SOL     OW79082   8.955   9.167   0.111
25692SOL    HW179083   8.910   9.099   0.162
25692SOL    HW279084   8.924 -12.924  11.061
25693SOL     OW79085   3.191   9.348  10.235
25693SOL    HW179086  -7.801   9.309  21.347
25693SOL    HW279087 -18.936   9.276  10.195
25694SOL     OW79088  10.113  -2.923  -1.062
25694SOL    HW179089  10.093  30.242   9.896
25694SOL    HW279090  10.145  30.264  10.037
25695SOL     OW79091   2.470  10.568   8.841
25695SOL    HW179092  -8.639  10.551   8.904
25695SOL    HW279093  13.466  10.571   8.756
25696SOL     OW79094   0.387   2.745   5.016
25696SOL    HW179095   0.452  46.850   5.061
25696SOL    HW279096   0.366  24.894   5.078
25697SOL     OW79097   5.342   4.700   3.417
25697SOL    HW179098   5.434  15.729   3.441
25697SOL    HW279099 -16.737   4.692 -18.758
25698SOL     OW79100   3.988   2.775   5.343
25698SOL    HW179101   3.992   2.722  -5.776
25698SOL    HW279102   3.909   2.828   5.333
25699SOL     OW79103  -0.353   5.588   3.253
25699SOL    HW179104  -0.331   5.501   3.286
25699SOL    HW279105  21.773  -5.445   3.170
25700SOL     OW79106   0.373   6.610  10.135
25700SOL    HW179107   0.461   6.636  -0.934
25700SOL    HW279108   0.315   6.638  10.064
25701SOL     OW79109   9.347  10.275   8.349
25701SOL    HW179110   9.253 -22.845  -2.705
25701SOL    HW279111   9.374  -0.676  19.363
25702SOL     OW79112   1.422  10.937   5.759
25702SOL    HW179113   1.499  10.908   5.711
25702SOL    HW279114   1.384  11.006   5.706
25703SOL     OW79115   7.021   2.336  10.356
25703SOL    HW179116   7.091   2.327  10.421
25703SOL    HW279117  18.107   2.349  10.273
25704SOL     OW79118   6.651   2.349  10.577
25704SOL    HW179119  17.769   2.312  10.537
25704SOL    HW279120  28.703   2.419  10.518
25705SOL     OW79121   8.626   0.884   4.060
25705SOL    HW179122   8.535   0.914  15.102
25705SOL    HW279123   8.621   0.797   4.019
25706SOL     OW79124   5.287   2.711   1.103
25706SOL    HW179125   5.254   2.649   1.168
25706SOL    HW279126  16.275   2.790   1.116
25707SOL     OW79127   9.652   5.678   6.922
25707SOL    HW179128   9.592   5.605   6.911
25707SOL    HW279129   9.716   5.668  17.891
25708SOL     OW79130  10.170   8.354  10.250
25708SOL    HW179131  10.226   8.395  10.315
25708SOL    HW279132  10.081   8.382  10.273
25709SOL     OW79133  -0.217   1.882   2.173
25709SOL    HW179134  -0.242   1.791  13.225
25709SOL    HW279135  21.896 -20.169   2.258
25710SOL     OW79136   3.182   4.102   1.299
25710SOL    HW179137  14.262   4.063   1.376
25710SOL    HW279138  14.144   4.147  12.373
25711SOL     OW79139   1.376   0.645   2.688
25711SOL    HW179140 -20.665   0.721   2.732
25711SOL    HW279141   1.299   0.623   2.740
25712SOL     OW79142   7.758   2.865   5.842
25712SOL    HW179143   7.737   2.907   5.926
25712SOL    HW279144   7.737   2.931   5.776
25713SOL     OW79145   3.955   3.620   9.653
25713SOL    HW179146   3.982   3.634  31.641
25713SOL    HW279147   4.011   3.678   9.704
25714SOL     OW79148   6.916   6.560   9.749
25714SOL    HW179149  -4.085  17.677  31.869
25714SOL    HW279150   6.824  17.600   9.778
25715SOL     OW79151   1.815   1.065   0.553
25715SOL    HW179152   1.870   1.081   0.477
25715SOL    HW279153   1.737   1.022   0.518
25716SOL     OW79154   3.791   6.680   9.823
25716SOL    HW179155   3.868   6.684   9.768
25716SOL    HW279156   3.789   6.764   9.869
25717SOL     OW79157   1.594   2.771   1.581
25717SOL    HW179158  23.624  13.891   1.564
25717SOL    HW279159   1.653   2.794  12.692
25718SOL     OW79160  10.224   7.227  -0.559
25718SOL    HW179161  10.149   7.286  -0.556
25718SOL    HW279162  10.300  18.324  10.490
25719SOL     OW79163   2.525   6.423   4.716
25719SOL    HW179164   2.613  28.540   4.725
25719SOL    HW279165   2.520   6.399   4.623
25720SOL     OW79166   3.838   5.235   6.540
25720SOL    HW179167   3.823  27.408   6.547
25720SOL    HW279168  -7.128  16.257   6.599
25721SOL     OW79169   7.873   7.601   9.242
25721SOL    HW179170  18.896   7.659   9.168
25721SOL    HW279171   7.953   7.634   9.282
25722SOL     OW79172  -1.085   5.888   8.905
25722SOL    HW179173  21.049   5.871  42.101
25722SOL    HW279174  -1.022   5.906   8.835
25723SOL     OW79175   4.222   0.894   4.970
25723SOL    HW179176  15.347   0.865   5.002
25723SOL    HW279177   4.167   0.816   4.974
25724SOL     OW79178  10.141   5.815   7.440
25724SOL    HW179179  10.191   5.823  29.439
25724SOL    HW279180  21.098   5.774   7.414
25725SOL     OW79181   2.481  10.794   6.744
25725SOL    HW179182   2.498  10.860   6.811
25725SOL    HW279183   2.414  -0.206  -4.351
25726SOL     OW79184   4.965   7.987   7.755
25726SOL    HW179185  27.004  -3.131  -3.246
25726SOL    HW279186   4.891   8.038   7.722
25727SOL     OW79187   1.378   9.605  10.619
25727SOL    HW179188  45.444  20.654 -11.436
25727SOL    HW279189  34.506   9.513  -0.444
25728SOL     OW79190   6.739   7.780   3.205
25728SOL    HW179191  -4.291   7.852   3.143
25728SOL    HW279192   6.822   7.733   3.200
25729SOL     OW79193   7.122   7.588   5.882
25729SOL    HW179194   7.206  18.581   5.881
25729SOL    HW279195   7.145  18.715 -16.166
25730SOL     OW79196  10.157   3.101   6.275
25730SOL    HW179197  10.237   3.111   6.326
25730SOL    HW279198  10.090   3.079  -4.701
25731SOL     OW79199   1.620   9.796   9.016
25731SOL    HW179200   1.713   9.813   9.031
25731SOL    HW279201   1.575  20.911   9.053
25732SOL     OW79202   1.764   0.876   8.922
25732SOL    HW179203   1.789   0.905   9.009
25732SOL    HW279204   1.847 -10.169  30.953
25733SOL     OW79205   0.337  -0.093   4.464
25733SOL    HW179206   0.329  33.116   4.433
25733SOL    HW279207   0.417  -0.094   4.516
25734SOL     OW79208   3.827   7.546   8.556
25734SOL    HW179209   3.753  -3.438   8.534
25734SOL    HW279210   3.874  -3.445   8.624
25735SOL     OW79211   6.481   3.922   5.592
25735SOL    HW179212   6.442   3.840  16.601
25735SOL    HW279213   6.413   3.963  16.685
25736SOL     OW79214   7.935   1.206   0.465
25736SOL    HW179215  18.889   1.232   0.432
25736SOL    HW279216  41.096   1.289   0.488
25737SOL     OW79217   2.668   2.993  10.364
25737SOL    HW179218  24.761   3.035  10.279
25737SOL    HW279219   2.747   2.941  10.379
25738SOL     OW79220   0.003   1.599  10.634
25738SOL    HW179221  11.128   1.599  10.591
25738SOL    HW279222 -11.048   1.689  10.664
25739SOL     OW79223   5.370   6.507  10.943
25739SOL    HW179224   5.372   6.555  10.860
25739SOL    HW279225   5.323 -15.514  11.003
25740SOL     OW79226   3.492   1.542   9.626
25740SOL    HW179227  -7.628   1.566   9.672
25740SOL    HW279228   3.468  -9.494   9.534
25741SOL     OW79229   4.595   5.705   8.719
25741SOL    HW179230   4.645  16.720   8.641
25741SOL    HW279231   4.583   5.800   8.711
25742SOL     OW79232   0.260   7.364   1.029
25742SOL    HW179233   0.335   7.405  23.152
25742SOL    HW279234   0.284  18.402   0.936
25743SOL     OW79235  10.530   1.255   8.897
25743SOL    HW179236  10.612  12.245   8.896
25743SOL    HW279237  10.554  -9.697   8.864
25744SOL     OW79238   2.112   5.510  -0.328
25744SOL    HW179239   2.155   5.424  10.707
25744SOL    HW279240   2.067   5.510  -0.244
25745SOL     OW79241   6.567   9.630  -2.095
25745SOL    HW179242   6.516   9.607  -2.173
25745SOL    HW279243   6.510   9.608  42.136
25746SOL     OW79244   4.734   0.138  10.326
25746SOL    HW179245   4.679   0.164  10.401
25746SOL    HW279246   4.741  11.082  10.335
25747SOL     OW79247   2.209   7.509   4.128
25747SOL    HW179248   2.242  18.622   4.181
25747SOL    HW279249 -19.878  18.585  15.080
25748SOL     OW79250   7.807   2.764   1.535
25748SOL    HW179251  18.798   2.683   1.521
25748SOL    HW279252   7.898   2.736 -20.534
25749SOL     OW79253   7.997   6.767   7.404
25749SOL    HW179254   8.050   6.802   7.332
25749SOL    HW279255  19.013  17.719  -3.665
25750SOL     OW79256  10.037  11.250   3.196
25750SOL    HW179257   9.991   0.291   3.174
25750SOL    HW279258  -1.066  11.200   3.248
25751SOL     OW79259   7.806   5.392  11.098
25751SOL    HW179260   7.895 -16.716   0.078
25751SOL    HW279261  18.846   5.410  11.004
25752SOL     OW79262   1.571   9.263   2.239
25752SOL    HW179263   1.592  20.395   2.231
25752SOL    HW279264  23.734   9.219   2.250
25753SOL     OW79265   3.631   2.812   3.982
25753SOL    HW179266   3.626   2.784  14.930
25753SOL    HW279267  -7.464   2.890   3.985
25754SOL     OW79268   6.372   1.225   1.189
25754SOL    HW179269  28.432   1.216  12.322
25754SOL    HW279270  28.381   1.283   1.156
25755SOL     OW79271   7.244   4.598   2.284
25755SOL    HW179272   7.334  15.617   2.261
25755SOL    HW279273   7.195 -17.562   2.264
25756SOL     OW79274   9.903   7.078   4.819
25756SOL    HW179275  -1.076  -3.955   4.745
25756SOL    HW279276   9.834   7.020  26.867
25757SOL     OW79277   4.692   1.837   5.138
25757SOL    HW179278  26.721  -9.166   5.065
25757SOL    HW279279   4.734  -9.281   5.102
25758SOL     OW79280   9.738   3.609   6.227
25758SOL    HW179281   9.651  25.718   6.254
25758SOL    HW279282   9.799  14.712   6.265
25759SOL     OW79283   6.741   2.478   4.604
25759SOL    HW179284   6.662 -19.653   4.587
25759SOL    HW279285   6.708   2.567  15.657
25760SOL     OW79286  11.600   5.023   6.528
25760SOL    HW179287  11.664   5.002   6.459
25760SOL    HW279288 -10.502   5.115   6.511
25761SOL     OW79289  11.693   2.238   6.298
25761SOL    HW179290 -10.304   2.225   6.252
25761SOL    HW279291  11.716  13.331  17.414
25762SOL     OW79292   2.817   0.601   0.039
25762SOL    HW179293  13.792   0.650   0.090
25762SOL    HW279294  13.940   0.619   0.082
25763SOL     OW79295   3.592   4.977   7.145
25763SOL    HW179296   3.542   4.907   7.103
25763SOL    HW279297   3.613   5.037   7.073
25764SOL     OW79298   9.446   8.109  10.322
25764SOL    HW179299  31.591  -2.945  10.389
25764SOL    HW279300   9.495  -2.897  21.286
25765SOL     OW79301  11.522   7.787  -0.589
25765SOL    HW179302  11.593   7.796  -0.525
25765SOL    HW279303   0.403   7.805  21.540
25766SOL     OW79304   3.397   6.472   5.832
25766SOL    HW179305   3.481  -4.534   5.800
25766SOL    HW279306   3.384  -4.523   5.916
25767SOL     OW79307   6.115   9.059   8.316
25767SOL    HW179308   6.099   8.987   8.377
25767SOL    HW279309   6.177   9.116   8.361
25768SOL     OW79310   2.487  10.897  10.268
25768SOL    HW179311 -19.683  10.868  10.268
25768SOL    HW279312   2.525  10.855  10.345
25769SOL     OW79313   8.423   0.904   0.349
25769SOL    HW179314   8.346   0.893   0.405
25769SOL    HW279315   8.492   0.856  22.473
25770SOL     OW79316   9.312   4.289   9.331
25770SOL    HW179317 -12.785 -39.910 -12.664
25770SOL    HW279318  -1.773  -6.806   9.267
25771SOL     OW79319   4.811  -0.132   2.396
25771SOL    HW179320   4.867  10.985  13.428
25771SOL    HW279321   4.868  -0.199   2.436
25772SOL     OW79322   3.409   3.436   1.668
25772SOL    HW179323   3.361  25.439   1.637
25772SOL    HW279324   3.351  47.634   1.734
25773SOL     OW79325   0.531   3.030   3.705
25773SOL    HW179326   0.477   3.000   3.778
25773SOL    HW279327   0.484  14.042  14.666
25774SOL     OW79328   1.651   7.141   9.057
25774SOL    HW179329  12.648   7.141  20.182
25774SOL    HW279330  34.829   7.066 -13.020
25775SOL     OW79331   8.726   8.047   8.645
25775SOL    HW179332   8.822   8.051 -13.431
25775SOL    HW279333   8.706   7.955  -2.374
25776SOL     OW79334   2.858   9.965  10.284
25776SOL    HW179335  13.802   9.979  -0.754
25776SOL    HW279336   2.874   9.904  -0.684
25777SOL     OW79337   6.284   9.250   8.416
25777SOL    HW179338   6.323   9.284  30.576
25777SOL    HW279339   6.355   9.199  30.454
25778SOL     OW79340   7.285   1.611   8.294
25778SOL    HW179341   7.361   1.592   8.348
25778SOL    HW279342   7.256   1.698 -24.795
25779SOL     OW79343   7.732   6.437   6.223
25779SOL    HW179344   7.802   6.498   6.201
25779SOL    HW279345   7.703   6.402   6.139
25780SOL     OW79346   5.234  10.137   7.513
25780SOL    HW179347   5.236  10.069   7.445
25780SOL    HW279348   5.240  10.089 -25.523
25781SOL     OW79349   1.551   4.449   0.617
25781SOL    HW179350   1.602   4.518  11.698
25781SOL    HW279351   1.586   4.444  11.567
25782SOL     OW79352   7.551   9.272   3.679
25782SOL    HW179353  -3.410   9.287   3.730
25782SOL    HW279354   7.580  -1.768  14.627
25783SOL     OW79355   2.287   5.928   7.162
25783SOL    HW179356   2.325  28.074   7.105
25783SOL    HW279357  24.378 -27.157  -3.789
25784SOL     OW79358   3.479   9.236   4.307
25784SOL    HW179359   3.462   9.315  -6.681
25784SOL    HW279360  -7.502   9.266   4.237
25785SOL     OW79361   1.059   7.096   6.187
25785SOL    HW179362   0.987   7.056   6.138
25785SOL    HW279363   1.031  29.265   6.204
25786SOL     OW79364   3.174   9.030   2.535
25786SOL    HW179365   3.092   8.989   2.564
25786SOL    HW279366  14.225  20.144  24.674
25787SOL     OW79367   5.916   8.042   3.033
25787SOL    HW179368   5.969   7.965 -30.107
25787SOL    HW279369  -5.077  19.123   3.106
25788SOL     OW79370   6.179   5.601   7.845
25788SOL    HW179371 -15.844   5.634  -3.264
25788SOL    HW279372 -15.988  -5.442   7.806
25789SOL     OW79373   9.365   5.757   0.314
25789SOL    HW179374   9.289   5.700   0.307
25789SOL    HW279375   9.382   5.764   0.408
25790SOL     OW79376   9.187   6.712   6.616
25790SOL    HW179377   9.104   6.746  28.727
25790SOL    HW279378   9.222   6.782   6.561
25791SOL     OW79379   7.824   3.905   6.227
25791SOL    HW179380   7.907   3.879   6.188
25791SOL    HW279381   7.757   3.864   6.172
25792SOL     OW79382   0.135   5.526   6.315
25792SOL    HW179383   0.146   5.609  17.308
25792SOL    HW279384   0.224  -5.538   6.340
25793SOL     OW79385   9.465   6.999  10.560
25793SOL    HW179386  31.500  17.963  10.521
25793SOL    HW279387   9.443   7.072 -11.577
25794SOL     OW79388   2.770   9.320   0.672
25794SOL    HW179389 -19.323   9.234  11.750
25794SOL    HW279390  -8.338  20.368  22.684
25795SOL     OW79391   0.442   1.700   2.950
25795SOL    HW179392  11.535   1.780   2.950
25795SOL    HW279393  11.516   1.647  -8.161
25796SOL     OW79394   7.908   8.411   2.539
25796SOL    HW179395  -3.208   8.364  13.612
25796SOL    HW279396   7.949  41.469   2.478
25797SOL     OW79397   1.240   5.374   7.684
25797SOL    HW179398  23.247   5.410   7.736
25797SOL    HW279399   1.263   5.292  -3.311
25798SOL     OW79400  -0.360   5.232   8.510
25798SOL    HW179401  10.653  16.185   8.541
25798SOL    HW279402  -0.293  16.254   8.444
25799SOL     OW79403   3.934   8.337   2.308
25799SOL    HW179404  15.042   8.299   2.253
25799SOL    HW279405   3.977   8.410  13.392
25800SOL     OW79406   5.202   5.227   5.643
25800SOL    HW179407   5.262   5.159   5.675
25800SOL    HW279408   5.258   5.302  -5.414
25801SOL     OW79409   5.824   8.983   7.885
25801SOL    HW179410   5.861   8.988  -3.066
25801SOL    HW279411   5.873   8.912   7.843
25802SOL     OW79412   6.198   9.918   7.427
25802SOL    HW179413   6.132   9.918  18.536
25802SOL    HW279414  -4.850 -12.075  29.465
25803SOL     OW79415   4.265   2.490  10.194
25803SOL    HW179416  26.318  13.468 -34.032
25803SOL    HW279417   4.194  13.527  10.258
25804SOL     OW79418   7.272   3.981   2.098
25804SOL    HW179419   7.282  -7.094   2.010
25804SOL    HW279420   7.315  -6.973  13.134
25805SOL     OW79421   8.404   7.013   5.389
25805SOL    HW179422  -2.727   6.985  16.423
25805SOL    HW279423 -13.662   7.037   5.481
25806SOL     OW79424   6.062   7.288   5.644
25806SOL    HW179425   5.992  18.386   5.617
25806SOL    HW279426  17.078  -3.836   5.607
25807SOL     OW79427   8.241   2.027   3.068
25807SOL    HW179428   8.255   1.957  14.171
25807SOL    HW279429  -2.779   2.108   3.116
25808SOL     OW79430   1.717   7.023   7.656
25808SOL    HW179431   1.740   6.933   7.632
25808SOL    HW279432   1.627   7.034   7.626
25809SOL     OW79433   3.720   0.521   0.550
25809SOL    HW179434   3.712   0.467   0.471
25809SOL    HW279435   3.629   0.534   0.579
25810SOL     OW79436   8.105  -0.508   4.928
25810SOL    HW179437   8.132  10.442  15.989
25810SOL    HW279438  19.050  32.611   4.942
25811SOL     OW79439   3.062   1.168   6.477
25811SOL    HW179440  14.175   1.131   6.428
25811SOL    HW279441   3.014   1.093   6.510
25812SOL     OW79442   1.177   2.937   0.966
25812SOL    HW179443   1.253   2.883   0.989
25812SOL    HW279444  12.254  14.061  11.981
25813SOL     OW79445  10.534   2.466   2.133
25813SOL    HW179446  -0.431  -8.586   2.074
25813SOL    HW279447  10.557   2.414  24.290
25814SOL     OW79448  10.003   7.210   1.136
25814SOL    HW179449  10.021  29.369   1.185
25814SOL    HW279450  -1.075  18.278   1.054
25815SOL     OW79451   7.532  10.718   1.755
25815SOL    HW179452   7.566 -22.469   1.814
25815SOL    HW279453   7.525  10.675  -9.370
25816SOL     OW79454   1.181   4.786   0.011
25816SOL    HW179455   1.100  15.811  -0.037
25816SOL    HW279456   1.246  26.885  -0.057
25817SOL     OW79457   0.113   0.103   2.753
25817SOL    HW179458  22.225   0.179  -8.239
25817SOL    HW279459   0.187   0.073   2.700
25818SOL     OW79460   0.412   5.674  11.001
25818SOL    HW179461   0.411   5.767  11.022
25818SOL    HW279462   0.338   5.638 -11.029
25819SOL     OW79463   5.740   5.105  -0.435
25819SOL    HW179464   5.692   5.068  10.678
25819SOL    HW279465  27.837  27.275  -0.409
25820SOL     OW79466   6.225   6.533   5.803
25820SOL    HW179467   6.194   6.536   5.893
25820SOL    HW279468  -4.781   6.444   5.792
25821SOL     OW79469   1.251   9.561   7.642
25821SOL    HW179470   1.221   9.530   7.557
25821SOL    HW279471   1.177  -1.428   7.676
25822SOL     OW79472   3.826   6.861   6.335
25822SOL    HW179473   3.898 -15.280   6.346
25822SOL    HW279474  -7.193  17.972 -15.684
25823SOL     OW79475   5.432   6.735   2.714
25823SOL    HW179476   5.494  28.805   2.641
25823SOL    HW279477   5.408  17.867   2.714
25824SOL     OW79478   0.823  10.266   0.484
25824SOL    HW179479  11.908  10.350   0.492
25824SOL    HW279480   0.732  10.285  11.547
25825SOL     OW79481  10.889   7.448   2.940
25825SOL    HW179482  10.945   7.489  14.045
25825SOL    HW279483  10.945   7.436   2.863
25826SOL     OW79484   0.174   7.319   7.145
25826SOL    HW179485   0.217   7.281   7.221
25826SOL    HW279486   0.126   7.245  29.186
25827SOL     OW79487   2.616   0.318   7.403
25827SOL    HW179488 -19.517 -10.800   7.414
25827SOL    HW279489   2.597  11.411  18.520
25828SOL     OW79490   4.158   9.381   2.002
25828SOL    HW179491   4.138   9.328  12.964
25828SOL    HW279492  15.165  20.508   1.981
25829SOL     OW79493   0.453   0.272   7.039
25829SOL    HW179494   0.548   0.270   7.032
25829SOL    HW279495  11.473   0.353   7.084
25830SOL     OW79496   0.738   1.963   3.406
25830SOL    HW179497 -10.268   2.052   3.419
25830SOL    HW279498   0.797   1.924   3.341
25831SOL     OW79499   1.034   8.862   1.460
25831SOL    HW179500   1.043   8.948  -9.619
25831SOL    HW279501  12.163   8.828   1.465
25832SOL     OW79502   9.836   9.853   4.484
25832SOL    HW179503   9.787   9.936   4.482
25832SOL    HW279504   9.924   9.878  37.632
25833SOL     OW79505   4.124   5.794   1.090
25833SOL    HW179506   4.200   5.853   1.083
25833SOL    HW279507  26.202  27.826   1.007
25834SOL     OW79508   3.578   4.851   1.961
25834SOL    HW179509  -7.402   4.783   1.929
25834SOL    HW279510   3.512   4.859   1.892
25835SOL     OW79511  10.022   7.096   7.262
25835SOL    HW179512  21.076   7.009   7.299
25835SOL    HW279513  10.074   7.097   7.182
25836SOL     OW79514   1.302   2.176   0.044
25836SOL    HW179515  23.298   2.218 -22.015
25836SOL    HW279516   1.283 -19.963  22.051
25837SOL     OW79517   1.184   3.093   5.047
25837SOL    HW179518  12.209   3.129   4.959
25837SOL    HW279519   1.277  -7.931   5.064
25838SOL     OW79520   3.447   2.549   5.180
25838SOL    HW179521  25.490  35.725  16.287
25838SOL    HW279522  14.441   2.466   5.192
25839SOL     OW79523   8.246   8.229   2.053
25839SOL    HW179524  19.306   8.136  13.105
25839SOL    HW279525   8.151  19.271  -8.997
25840SOL     OW79526   8.468   3.342   4.157
25840SOL    HW179527   8.540   3.344   4.094
25840SOL    HW279528   8.447  36.553   4.171
25841SOL     OW79529   7.521   3.013  10.563
25841SOL    HW179530 -14.539   3.102  10.532
25841SOL    HW279531   7.425   3.007  10.558
25842SOL     OW79532   6.612   4.917   6.662
25842SOL    HW179533 -15.484   4.867   6.582
25842SOL    HW279534 -15.494  37.977  -4.307
25843SOL     OW79535   8.555  10.400  11.022
25843SOL    HW179536 -13.519 -22.692  22.153
25843SOL    HW279537 -13.610  10.431  -0.046
25844SOL     OW79538  10.314   5.130   3.899
25844SOL    HW179539  10.279   5.132   3.988
25844SOL    HW279540  10.236  16.174   3.843
25845SOL     OW79541   2.254   5.616   5.449
25845SOL    HW179542 -30.862  38.646   5.413
25845SOL    HW279543   2.192   5.663   5.393
25846SOL     OW79544   4.358   8.660   0.252
25846SOL    HW179545   4.449   8.645   0.227
25846SOL    HW279546  26.404   8.575  11.319
25847SOL     OW79547   8.083   5.264   2.477
25847SOL    HW179548   8.101   5.351   2.511
25847SOL    HW279549  -2.974   5.210   2.554
25848SOL     OW79550   4.758   2.949   2.988
25848SOL    HW179551  37.787   2.967   2.960
25848SOL    HW279552   4.782   2.869  -8.098
25849SOL     OW79553   5.681   2.279   9.544
25849SOL    HW179554   5.700  -8.703   9.618
25849SOL    HW279555  -5.364   2.192   9.582
25850SOL     OW79556   8.674   7.793   5.603
25850SOL    HW179557   8.610   7.855   5.637
25850SOL    HW279558   8.624  18.754   5.583
25851SOL     OW79559  10.278   1.277  12.263
25851SOL    HW179560  10.240   1.365   1.222
25851SOL    HW279561  10.357   1.286   1.278
25852SOL     OW79562   9.612   4.393   9.375
25852SOL    HW179563   9.627   4.460  31.388
25852SOL    HW279564   9.524  15.400   9.356
25853SOL     OW79565   2.293   1.249   7.234
25853SOL    HW179566  24.367   1.155   7.217
25853SOL    HW279567   2.383   1.273   7.211
25854SOL     OW79568   0.998   0.204   5.500
25854SOL    HW179569  23.066  22.201   5.547
25854SOL    HW279570   0.990  11.220  27.487
25855SOL     OW79571   8.900  10.758   5.393
25855SOL    HW179572 -24.224  10.710  16.349
25855SOL    HW279573  -2.199  10.832  27.461
25856SOL     OW79574   1.974   7.980   1.921
25856SOL    HW179575   1.932   8.066   1.917
25856SOL    HW279576 -20.084  -3.072 -20.066
25857SOL     OW79577  11.263   7.153   0.616
25857SOL    HW179578   0.276   7.143  11.577
25857SOL    HW279579  11.178  -3.925   0.594
25858SOL     OW79580   5.192   0.309  10.998
25858SOL    HW179581  16.203   0.229 -11.124
25858SOL    HW279582   5.226   0.280   0.043
25859SOL     OW79583   5.888   1.327   5.449
25859SOL    HW179584 -16.247   1.388  16.537
25859SOL    HW279585 -16.110   1.324  -5.541
25860SOL     OW79586   0.031   5.531   2.843
25860SOL    HW179587  -0.036   5.464   2.857
25860SOL    HW279588   0.004  -5.464   2.763
25861SOL     OW79589   0.786   3.260   0.327
25861SOL    HW179590   0.744   3.339   0.360
25861SOL    HW279591   0.748   3.247   0.240
25862SOL     OW79592   3.965   5.012  -0.689
25862SOL    HW179593   4.022   4.937  -0.677
25862SOL    HW279594   3.968  -6.010  21.296
25863SOL     OW79595   2.477   6.371   4.393
25863SOL    HW179596  13.486   6.282   4.380
25863SOL    HW279597   2.572  17.406   4.377
25864SOL     OW79598   9.569   1.362  10.424
25864SOL    HW179599   9.596  12.488  10.391
25864SOL    HW279600   9.541   1.314 -11.733
25865SOL     OW79601   3.083   6.136   0.668
25865SOL    HW179602   2.998   6.148   0.626
25865SOL    HW279603  14.148   6.047 -10.396
25866SOL     OW79604   3.834  12.841   9.950
25866SOL    HW179605  14.815  12.769  20.966
25866SOL    HW279606   3.911 -31.360   9.988
25867SOL     OW79607   5.454   4.055   4.290
25867SOL    HW179608 -16.599 -18.031  15.238
25867SOL    HW279609   5.359   4.056  26.367
25868SOL     OW79610   5.148   4.783   9.039
25868SOL    HW179611 -16.946   4.838  -1.924
25868SOL    HW279612   5.236   4.805  20.049
25869SOL     OW79613   5.652   3.231   5.369
25869SOL    HW179614  27.762  -7.719   5.353
25869SOL    HW279615  27.808   3.186   5.405
25870SOL     OW79616   1.190   6.235   5.791
25870SOL    HW179617   1.153   6.158  27.913
25870SOL    HW279618   1.131 -15.773   5.814
25871SOL     OW79619   8.193   2.754   3.728
25871SOL    HW179620   8.207   2.810   3.805
25871SOL    HW279621   8.216  -8.373  -7.282
25872SOL     OW79622   0.869   3.839   6.972
25872SOL    HW179623   0.812   3.897   6.922
25872SOL    HW279624 -10.213  -7.287  18.004
25873SOL     OW79625   3.812   9.028   0.003
25873SOL    HW179626   3.802  -1.969   0.088
25873SOL    HW279627   3.866  20.128  -0.049
25874SOL     OW79628   4.492   8.292   3.373
25874SOL    HW179629  15.618   8.257   3.391
25874SOL    HW279630   4.485   8.368 -18.648
25875SOL     OW79631   5.728   6.316   1.111
25875SOL    HW179632  16.698  17.290   1.116
25875SOL    HW279633   5.754   6.330  12.242
25876SOL     OW79634   2.830   3.408  10.397
25876SOL    HW179635   2.771   3.362  10.338
25876SOL    HW279636  24.986  36.471  -0.636
25877SOL     OW79637   2.942   7.333   7.916
25877SOL    HW179638  -8.110   7.428  18.954
25877SOL    HW279639   3.025   7.321  -3.077
25878SOL     OW79640   8.355   2.182   6.076
25878SOL    HW179641   8.437  13.269   6.088
25878SOL    HW279642   8.327   2.158  28.244
25879SOL     OW79643  11.004   9.717   4.387
25879SOL    HW179644  10.980   9.804   4.420
25879SOL    HW279645  10.988   9.658   4.461
25880SOL     OW79646   6.955   3.410   5.190
25880SOL    HW179647  17.946  -7.706   5.219
25880SOL    HW279648   6.949   3.407   5.094
25881SOL     OW79649  -0.307  11.231   3.801
25881SOL    HW179650  -0.329   0.275   3.760
25881SOL    HW279651  10.828  11.227   3.798
25882SOL     OW79652   4.797   3.834   8.087
25882SOL    HW179653   4.779   3.802   7.998
25882SOL    HW279654  15.795   3.770   8.144
25883SOL     OW79655   9.533   6.425   9.128
25883SOL    HW179656   9.491  -4.554   9.188
25883SOL    HW279657   9.580   6.481   9.066
25884SOL     OW79658   0.684   9.524  10.830
25884SOL    HW179659 -10.407  20.637  21.834
25884SOL    HW279660   0.720   9.558 -11.167
25885SOL     OW79661   3.331  10.602   9.623
25885SOL    HW179662   3.249  10.612   9.574
25885SOL    HW279663   3.325  10.667   9.693
25886SOL     OW79664   2.179  10.522   0.178
25886SOL    HW179665  -8.794  -0.452  11.241
25886SOL    HW279666   2.143  21.593  33.214
25887SOL     OW79667   7.801   7.647   3.303
25887SOL    HW179668   7.880   7.627  -7.687
25887SOL    HW279669   7.748   7.568   3.309
25888SOL     OW79670   3.866   2.007  10.395
25888SOL    HW179671   3.947   2.035  10.436
25888SOL    HW279672  25.938   1.914  10.417
25889SOL     OW79673  -0.150   6.847   4.299
25889SOL    HW179674  10.955  28.981   4.343
25889SOL    HW279675  10.812   6.903   4.293
25890SOL     OW79676   4.078   3.633  12.268
25890SOL    HW179677   4.064   3.590  -9.895
25890SOL    HW279678  37.269   3.694  12.252
25891SOL     OW79679   2.630   2.932   0.187
25891SOL    HW179680   2.544   2.975   0.183
25891SOL    HW279681   2.671   2.954  22.183
25892SOL     OW79682   3.952   2.712   2.771
25892SOL    HW179683  14.957  -8.280  13.735
25892SOL    HW279684   4.031  -8.371   2.738
25893SOL     OW79685  10.291   6.031   1.660
25893SOL    HW179686  10.318   5.943   1.631
25893SOL    HW279687  21.281   6.067   1.587
25894SOL     OW79688   4.679   4.827  10.750
25894SOL    HW179689   4.618   4.764  10.714
25894SOL    HW279690   4.761 -17.269  10.704
25895SOL     OW79691  10.482  10.841   7.692
25895SOL    HW179692  10.460  -0.271   7.633
25895SOL    HW279693  10.540  -0.237   7.757
25896SOL     OW79694  -0.063   0.930   5.639
25896SOL    HW179695  33.016  11.957  -5.487
25896SOL    HW279696  22.023   0.841  -5.365
25897SOL     OW79697  10.424   7.861   4.519
25897SOL    HW179698 -33.708   7.871  15.467
25897SOL    HW279699  10.331   7.837  26.593
25898SOL     OW79700   4.087   9.535  10.179
25898SOL    HW179701  -7.002  20.630  -0.922
25898SOL    HW279702  15.077  20.493  -0.857
25899SOL     OW79703  10.086   6.617   2.412
25899SOL    HW179704  10.058   6.538   2.458
25899SOL    HW279705  10.103 -15.492   2.322
25900SOL     OW79706  10.681   8.139   1.133
25900SOL    HW179707  10.616  30.149  12.185
25900SOL    HW279708  -0.353   8.182   1.218
25901SOL     OW79709   7.381   4.008   3.023
25901SOL    HW179710   7.299 -29.103   3.070
25901SOL    HW279711   7.447 -18.085   3.091
25902SOL     OW79712   7.734   8.083   6.169
25902SOL    HW179713   7.734   8.041   6.255
25902SOL    HW279714   7.751  30.255   6.187
25903SOL     OW79715   8.495  10.063   4.919
25903SOL    HW179716   8.467   9.972 -17.152
25903SOL    HW279717   8.479  10.084 -17.252
25904SOL     OW79718   1.378   4.178   2.444
25904SOL    HW179719  23.369   4.206   2.466
25904SOL    HW279720  23.505   4.181   2.527
25905SOL     OW79721  10.964   4.529   3.144
25905SOL    HW179722  10.963   4.496   3.234
25905SOL    HW279723  10.991   4.620   3.152
25906SOL     OW79724   4.334   3.364   0.690
25906SOL    HW179725   4.342   3.378   0.785
25906SOL    HW279726   4.367  -7.594   0.651
25907SOL     OW79727   4.565   1.906   6.418
25907SOL    HW179728   4.639  12.968   6.362
25907SOL    HW279729   4.518  24.068   6.431
25908SOL     OW79730   8.967   4.750  12.138
25908SOL    HW179731 -13.122   4.813  12.208
25908SOL    HW279732   8.882   4.747  -9.984
25909SOL     OW79733   6.393   0.672   6.303
25909SOL    HW179734   6.409  11.680 -15.687
25909SOL    HW279735   6.303   0.705  17.345
25910SOL     OW79736   5.446  10.612   9.984
25910SOL    HW179737   5.399  10.675  10.038
25910SOL    HW279738   5.382  -0.495   9.963
25911SOL     OW79739   4.130   2.700   1.688
25911SOL    HW179740   4.222   2.724   1.698
25911SOL    HW279741   4.112  -8.328   1.595
25912SOL     OW79742   1.378  -0.704   2.017
25912SOL    HW179743   1.352  21.290   2.052
25912SOL    HW279744   1.471  -0.698   2.037
25913SOL     OW79745   8.259   2.897   3.493
25913SOL    HW179746   8.241   2.812 -29.587
25913SOL    HW279747   8.337  -8.111 -18.540
25914SOL     OW79748  10.099   7.501   1.160
25914SOL    HW179749  10.167   7.472  -9.819
25914SOL    HW279750  10.133   7.477   1.074
25915SOL     OW79751   2.906   2.907   3.791
25915SOL    HW179752   2.866   2.889   3.876
25915SOL    HW279753   2.923   2.820   3.754
25916SOL     OW79754   3.937   8.905   6.728
25916SOL    HW179755   3.929  -2.043   6.755
25916SOL    HW279756   3.900   8.855   6.801
25917SOL     OW79757   3.912   6.532   1.123
25917SOL    HW179758   3.914  28.610  12.067
25917SOL    HW279759   4.002   6.551   1.149
25918SOL     OW79760   8.810   6.823   4.031
25918SOL    HW179761   8.740   6.863   3.980
25918SOL    HW279762   8.889   6.837   3.978
25919SOL     OW79763   8.161   9.402  10.599
25919SOL    HW179764   8.082   9.381  -0.391
25919SOL    HW279765   8.233   9.367 -33.507
25920SOL     OW79766   4.324   1.008   2.339
25920SOL    HW179767  48.446   1.013  -8.789
25920SOL    HW279768   4.419   1.007  13.365
25921SOL     OW79769   4.189   6.282  10.937
25921SOL    HW179770   4.255   6.213  10.949
25921SOL    HW279771  -6.905   6.276  -0.024
25922SOL     OW79772   4.292  10.011   9.755
25922SOL    HW179773  15.295  21.127  20.748
25922SOL    HW279774   4.247  10.011   9.840
25923SOL     OW79775   6.348   3.378   2.908
25923SOL    HW179776   6.387  25.545   2.908
25923SOL    HW279777   6.314   3.367   2.820
25924SOL     OW79778   8.945   0.084   6.386
25924SOL    HW179779  -2.118   0.177  17.415
25924SOL    HW279780   8.965   0.075   6.479
25925SOL     OW79781   8.192   1.541   5.970
25925SOL    HW179782   8.176   1.593 -16.030
25925SOL    HW279783   8.191  12.490  28.080
25926SOL     OW79784   7.583   5.139   0.392
25926SOL    HW179785   7.564  16.215   0.479
25926SOL    HW279786   7.670   5.174  11.410
25927SOL     OW79787   1.586   1.679   1.312
25927SOL    HW179788   1.625   1.766   1.299
25927SOL    HW279789   1.538   1.687   1.394
25928SOL     OW79790   3.449   3.818   7.614
25928SOL    HW179791   3.509   3.885   7.646
25928SOL    HW279792 -18.612  -7.228  -3.519
25929SOL     OW79793   4.478   8.177   5.467
25929SOL    HW179794   4.502  19.287   5.528
25929SOL    HW279795  37.616   8.096  16.555
25930SOL     OW79796   5.984   0.143  10.585
25930SOL    HW179797   6.024   0.210  10.529
25930SOL    HW279798  -5.150  22.242  10.580
25931SOL     OW79799   4.529   1.890   5.971
25931SOL    HW179800   4.545   1.827  27.979
25931SOL    HW279801 -17.591   1.838  -5.000
25932SOL     OW79802   6.340   0.635   2.786
25932SOL    HW179803   6.312   0.708   2.841
25932SOL    HW279804  17.394   0.674   2.700
25933SOL     OW79805   5.052   2.376   0.021
25933SOL    HW179806   5.096   2.299   0.056
25933SOL    HW279807  16.017  24.421  -0.029
25934SOL     OW79808   3.292   6.375   4.049
25934SOL    HW179809   3.275   6.330  15.171
25934SOL    HW279810   3.372   6.335   4.015
25935SOL     OW79811   8.812   4.550  10.720
25935SOL    HW179812   8.717  37.670  10.729
25935SOL    HW279813   8.843  -6.428  10.787
25936SOL     OW79814   9.277   9.849   0.335
25936SOL    HW179815  20.380   9.778   0.342
25936SOL    HW279816   9.329   9.928   0.323
25937SOL     OW79817   7.839   6.548   7.245
25937SOL    HW179818   7.805  -4.442  18.210
25937SOL    HW279819  40.999   6.471  18.246
25938SOL     OW79820   2.911   2.824   8.146
25938SOL    HW179821   2.965   2.776   8.208
25938SOL    HW279822   2.889   2.760   8.079
25939SOL     OW79823   3.999   0.841   7.646
25939SOL    HW179824  15.121   0.882 -47.577
25939SOL    HW279825 -29.122   0.760   7.595
25940SOL     OW79826   9.315   7.146   5.484
25940SOL    HW179827   9.307   7.084   5.556
25940SOL    HW279828   9.361   7.221   5.521
25941SOL     OW79829   7.766   2.115   4.312
25941SOL    HW179830  18.753   2.167 -39.908
25941SOL    HW279831   7.751  -8.884   4.397
25942SOL     OW79832   1.002   5.474   7.150
25942SOL    HW179833  11.966 -16.565  18.230
25942SOL    HW279834   0.974  16.492  18.101
25943SOL     OW79835   4.556   4.726   4.452
25943SOL    HW179836   4.521   4.809   4.419
25943SOL    HW279837   4.613  15.734   4.382
25944SOL     OW79838   6.092  11.231   2.003
25944SOL    HW179839   6.087   0.214   1.910
25944SOL    HW279840   6.127 -10.770  24.123
25945SOL     OW79841   4.384   7.877   4.946
25945SOL    HW179842   4.395   7.971   4.932
25945SOL    HW279843  -6.633   7.837   4.862
25946SOL     OW79844  10.105   1.391   6.085
25946SOL    HW179845  10.124  12.457   6.175
25946SOL    HW279846  10.120   1.296   6.085
25947SOL     OW79847   1.410   8.871   8.696
25947SOL    HW179848   1.329   8.838   8.657
25947SOL    HW279849   1.433   8.946   8.641
25948SOL     OW79850  10.641   8.915   8.250
25948SOL    HW179851  10.611 -13.073   8.251
25948SOL    HW279852  10.729  -2.121  19.327
25949SOL     OW79853   2.691   6.124   5.405
25949SOL    HW179854  13.741   6.215   5.433
25949SOL    HW279855   2.740  17.113   5.471
25950SOL     OW79856   2.846   1.433   9.095
25950SOL    HW179857   2.918   1.426  -2.008
25950SOL    HW279858   2.874   1.500   9.157
25951SOL     OW79859  10.704   8.640  10.994
25951SOL    HW179860  10.780  19.714  11.042
25951SOL    HW279861  10.693   8.701  10.920
25952SOL     OW79862   9.966   0.966  -0.067
25952SOL    HW179863   9.996  12.010  22.103
25952SOL    HW279864   9.912   1.044  10.962
25953SOL     OW79865   9.542  10.359   7.011
25953SOL    HW179866   9.508  21.408   6.922
25953SOL    HW279867   9.532  10.446   7.050
25954SOL     OW79868   7.466   9.349   8.908
25954SOL    HW179869   7.379   9.345   8.868
25954SOL    HW279870   7.523   9.379   8.837
25955SOL     OW79871   4.559   7.375   7.722
25955SOL    HW179872  -6.442   7.293   7.691
25955SOL    HW279873   4.524   7.354   7.808
25956SOL     OW79874   2.042   8.568   9.282
25956SOL    HW179875   2.136  -2.488  -1.757
25956SOL    HW279876   2.008  19.554  -1.829
25957SOL     OW79877   2.065   3.973   1.468
25957SOL    HW179878  -9.007  15.090  12.461
25957SOL    HW279879   2.101   3.917   1.400
25958SOL     OW79880   3.168   8.404   4.338
25958SOL    HW179881   3.213   8.486  37.476
25958SOL    HW279882   3.224   8.336   4.375
25959SOL     OW79883   1.897   7.499   8.101
25959SOL    HW179884   1.828   7.458   8.152
25959SOL    HW279885   1.853  18.574   8.024
25960SOL     OW79886   5.587   0.728   1.910
25960SOL    HW179887  27.644   0.763  -9.216
25960SOL    HW279888   5.546   0.789   1.972
25961SOL     OW79889   0.616   4.915   8.985
25961SOL    HW179890  11.584   4.960   8.939
25961SOL    HW279891   0.588  -6.216   8.988
25962SOL     OW79892   2.929   4.313  12.004
25962SOL    HW179893   2.840   4.340  12.027
25962SOL    HW279894   2.984   4.385 -10.045
25963SOL     OW79895   6.027   7.302   0.814
25963SOL    HW179896   6.008   7.210   0.831
25963SOL    HW279897   5.942   7.345   0.814
25964SOL     OW79898   9.426   9.583   8.514
25964SOL    HW179899  -1.663   9.507  19.523
25964SOL    HW279900   9.394   9.599   8.602
25965SOL     OW79901   5.419  11.648   5.633
25965SOL    HW179902   5.352 -32.577   5.651
25965SOL    HW279903   5.432  11.644   5.539
25966SOL     OW79904   3.879   3.347  11.595
25966SOL    HW179905   3.882   3.384  11.683
25966SOL    HW279906  -7.072   3.317   0.538
25967SOL     OW79907   6.936  11.151   6.652
25967SOL    HW179908   6.905   0.024   6.675
25967SOL    HW279909  -4.068  11.142  -4.476
25968SOL     OW79910   2.397   7.695   3.854
25968SOL    HW179911   2.483   7.672   3.890
25968SOL    HW279912   2.348   7.729   3.929
25969SOL     OW79913   9.059   2.233   3.831
25969SOL    HW179914   9.032   2.265   3.917
25969SOL    HW279915   9.047  13.347   3.773
25970SOL     OW79916   5.851   5.865   6.472
25970SOL    HW179917   5.911   5.936   6.447
25970SOL    HW279918   5.783   5.909   6.524
25971SOL     OW79919   3.349   1.397   4.844
25971SOL    HW179920   3.255   1.402   4.828
25971SOL    HW279921   3.379   1.488   4.835
25972SOL     OW79922   0.630   3.377   2.738
25972SOL    HW179923  22.640   3.336   2.789
25972SOL    HW279924  33.816   3.400   2.802
25973SOL     OW79925   2.019   9.974   3.590
25973SOL    HW179926   1.959  -0.998   3.559
25973SOL    HW279927   2.038   9.998  -7.358
25974SOL     OW79928   8.303   3.790   3.774
25974SOL    HW179929  19.285  25.908   3.840
25974SOL    HW279930   8.245   3.769   3.701
25975SOL     OW79931   3.038   4.542   1.084
25975SOL    HW179932  25.124   4.625   1.037
25975SOL    HW279933   3.117  15.578   1.138
25976SOL     OW79934  10.090   4.890   8.970
25976SOL    HW179935  10.045   4.807   8.955
25976SOL    HW279936 -12.055   4.945   9.014
25977SOL     OW79937   8.573   3.940   3.349
25977SOL    HW179938   8.587   3.893 -18.812
25977SOL    HW279939   8.488  14.947   3.381
25978SOL     OW79940   2.644   2.724   2.696
25978SOL    HW179941  13.715   2.815  24.769
25978SOL    HW279942   2.595   2.721   2.778
25979SOL     OW79943   1.056   8.132   5.715
25979SOL    HW179944   1.143   8.164   5.691
25979SOL    HW279945   1.067  30.176  -5.236
25980SOL     OW79946   3.715   7.301   8.086
25980SOL    HW179947  14.669   7.342   8.076
25980SOL    HW279948   3.709   7.220   8.034
25981SOL     OW79949   7.753   3.146   8.257
25981SOL    HW179950 -14.267   3.130 -13.895
25981SOL    HW279951   7.798   3.111  -2.706
25982SOL     OW79952   0.687   2.499   8.081
25982SOL    HW179953   0.703   2.592   8.067
25982SOL    HW279954   0.723   2.457  19.042
25983SOL     OW79955   8.904   1.873   7.693
25983SOL    HW179956   8.871   1.890  -3.434
25983SOL    HW279957   8.837   1.906   7.752
25984SOL     OW79958   1.013   3.041   2.569
25984SOL    HW179959   1.053   3.121   2.534
25984SOL    HW279960   1.040   2.972 -19.571
25985SOL     OW79961   7.613   0.164   0.874
25985SOL    HW179962   7.525   0.146   0.842
25985SOL    HW279963   7.606   0.155   0.969
25986SOL     OW79964   4.620   5.535   3.692
25986SOL    HW179965   4.619  -5.549   3.607
25986SOL    HW279966 -17.532   5.597   3.688
25987SOL     OW79967  10.601   0.869   7.583
25987SOL    HW179968  10.615   0.959  -3.487
25987SOL    HW279969  10.558 -10.214   7.510
25988SOL     OW79970   6.582   9.093  11.379
25988SOL    HW179971   6.586   9.166 -10.761
25988SOL    HW279972   6.546   9.020  11.328
25989SOL     OW79973   0.740   7.885   3.080
25989SOL    HW179974   0.786  29.882  -7.974
25989SOL    HW279975   0.682   7.894 -19.075
25990SOL     OW79976   6.319   2.099  10.349
25990SOL    HW179977   6.303  13.058  -0.739
25990SOL    HW279978   6.414   2.099 -11.715
25991SOL     OW79979   5.527   5.683   1.909
25991SOL    HW179980   5.439 -16.387   1.947
25991SOL    HW279981   5.583   5.663  13.023
25992SOL     OW79982   6.283   1.390   6.849
25992SOL    HW179983  17.384   1.376   6.777
25992SOL    HW279984  17.370 -20.632  17.950
25993SOL     OW79985   4.244   2.726   2.074
25993SOL    HW179986  26.308  13.675   2.049
25993SOL    HW279987   4.330  13.765   2.118
25994SOL     OW79988  -1.464   2.952   0.947
25994SOL    HW179989  20.681   2.928   0.883
25994SOL    HW279990  31.664   3.047 -10.083
25995SOL     OW79991   4.055   6.175   5.992
25995SOL    HW179992   3.966  17.211   6.026
25995SOL    HW279993   4.110   6.185   6.070
25996SOL     OW79994   5.552   8.533   6.284
25996SOL    HW179995  -5.427   8.515   6.212
25996SOL    HW279996   5.508   8.449   6.300
25997SOL     OW79997   8.366   4.995   7.656
25997SOL    HW179998   8.272   5.012   7.647
25997SOL    HW279999  19.410   4.913 -14.373
25998SOL     OW80000   6.652  12.173   5.519
25998SOL    HW180001 -15.377   1.061   5.481
25998SOL    HW280002   6.561  -9.937   5.515
25999SOL     OW80003   8.726   3.305   7.715
25999SOL    HW180004   8.678   3.365   7.658
25999SOL    HW280005   8.690   3.219   7.695
26000SOL     OW80006   8.384   9.175  -2.111
26000SOL    HW180007  19.460  20.300  19.942
26000SOL    HW280008   8.293   9.179  64.095
26001SOL     OW80009   2.558   4.529   2.801
26001SOL    HW180010   2.617  26.563   2.740
26001SOL    HW280011   2.564   4.621  -8.264
26002SOL     OW80012  10.034   2.056   7.240
26002SOL    HW180013   9.990   2.132   7.277
26002SOL    HW280014   9.970   1.985  18.286
26003SOL     OW80015   9.037   8.298   2.544
26003SOL    HW180016   9.074   8.246   2.615
26003SOL    HW280017 -35.215  19.339  35.680
26004SOL     OW80018  -0.079   2.766  10.631
26004SOL    HW180019  -0.001 -19.266  10.600
26004SOL    HW280020  22.015   2.675  10.604
26005SOL     OW80021   8.002   3.042   3.466
26005SOL    HW180022 -14.130   3.026   3.388
26005SOL    HW280023   8.079   2.987   3.454
26006SOL     OW80024   5.371   3.052   3.154
26006SOL    HW180025   5.381   2.975   3.210
26006SOL    HW280026  16.319   3.077  14.202
26007SOL     OW80027   3.196   7.020   7.801
26007SOL    HW180028   3.129  -4.058   7.858
26007SOL    HW280029   3.257   6.948 -25.335
26008SOL     OW80030   9.355   9.742   5.064
26008SOL    HW180031   9.311  20.724   5.001
26008SOL    HW280032   9.431   9.775   5.017
26009SOL     OW80033   9.571   5.710   3.415
26009SOL    HW180034   9.653   5.687   3.459
26009SOL    HW280035   9.506  -5.328   3.485
26010SOL     OW80036   6.343  10.698   8.414
26010SOL    HW180037   6.266  10.751   8.434
26010SOL    HW280038   6.402  10.758   8.369
26011SOL     OW80039   2.978   0.337   7.917
26011SOL    HW180040   2.947   0.297   7.836
26011SOL    HW280041   2.982   0.265   7.980
26012SOL     OW80042   0.928  10.145   9.208
26012SOL    HW180043   0.911  21.229   9.291
26012SOL    HW280044   0.990  10.075   9.231
26013SOL     OW80045   1.323   7.368  10.776
26013SOL    HW180046   1.241   7.369  10.825
26013SOL    HW280047  -9.701  18.500  10.755
26014SOL     OW80048   5.534   7.308   6.746
26014SOL    HW180049  16.571   7.339  39.956
26014SOL    HW280050   5.602  -3.678   6.704
26015SOL     OW80051   3.089   9.165   8.342
26015SOL    HW180052  -7.922   9.074 -13.744
26015SOL    HW280053  14.203   9.211   8.380
26016SOL     OW80054   0.868   5.339   2.180
26016SOL    HW180055 -10.100   5.279   2.159
26016SOL    HW280056   0.904 -16.653  -8.877
26017SOL     OW80057   6.600   8.778   4.386
26017SOL    HW180058   6.654  19.883   4.429
26017SOL    HW280059   6.546  30.819   4.456
26018SOL     OW80060   8.726   2.679   9.021
26018SOL    HW180061   8.640   2.661   8.983
26018SOL    HW280062  -2.330   2.748   9.085
26019SOL     OW80063  11.124   3.789   4.012
26019SOL    HW180064 -10.923   3.753   4.095
26019SOL    HW280065   0.039   3.869   4.037
26020SOL     OW80066   4.417   9.628   1.739
26020SOL    HW180067   4.511   9.629  12.758
26020SOL    HW280068   4.387   9.541   1.713
26021SOL     OW80069   6.399   1.163   2.292
26021SOL    HW180070  28.397   1.149  -8.700
26021SOL    HW280071  17.506  12.202 -19.720
26022SOL     OW80072   5.770   8.883   2.050
26022SOL    HW180073  27.790   8.809   2.035
26022SOL    HW280074   5.713   8.959   2.056
26023SOL     OW80075   2.675   7.977   5.317
26023SOL    HW180076   2.689   7.953   5.409
26023SOL    HW280077   2.748  -3.102  -5.769
26024SOL     OW80078   1.557   4.857   3.050
26024SOL    HW180079  23.579   4.895   3.116
26024SOL    HW280080   1.538   4.907   2.970
26025SOL     OW80081   3.553   3.735   3.754
26025SOL    HW180082   3.546   3.748   3.849
26025SOL    HW280083   3.578  -7.219   3.720
26026SOL     OW80084   1.964   2.965   6.105
26026SOL    HW180085   1.893  24.990   6.070
26026SOL    HW280086   1.924   3.009  17.220
26027SOL     OW80087   2.673   7.911   8.513
26027SOL    HW180088   2.616  -3.171  -2.463
26027SOL    HW280089  -8.293   7.944   8.564
26028SOL     OW80090   1.810   1.481   6.096
26028SOL    HW180091   1.770   1.416  17.195
26028SOL    HW280092   1.767 -20.516   6.119
26029SOL     OW80093  10.444   3.131   5.217
26029SOL    HW180094  -0.641   3.052   5.245
26029SOL    HW280095  10.520   3.099   5.169
26030SOL     OW80096   8.694   6.873   0.175
26030SOL    HW180097   8.714  -4.094   0.117
26030SOL    HW280098   8.688   6.912   0.262
26031SOL     OW80099   4.432   0.232   7.087
26031SOL    HW180100   4.344  11.261 -15.027
26031SOL    HW280101   4.438  11.364   7.112
26032SOL     OW80102   1.710  10.271   1.783
26032SOL    HW180103   1.678  10.244   1.696
26032SOL    HW280104  -9.244  10.310  12.805
26033SOL     OW80105   6.716   3.219   6.340
26033SOL    HW180106   6.788  -7.870   6.379
26033SOL    HW280107   6.686   3.277   6.411
26034SOL     OW80108   1.791   5.117   2.988
26034SOL    HW180109   1.864 -27.983   3.046
26034SOL    HW280110   1.833   5.095   2.904
26035SOL     OW80111   2.251   9.850   1.661
26035SOL    HW180112  24.244  -1.188   1.703
26035SOL    HW280113   2.272   9.941   1.644
26036SOL     OW80114   7.502   9.372   8.608
26036SOL    HW180115   7.432   9.313  19.618
26036SOL    HW280116  29.660   9.319   8.602
26037SOL     OW80117   3.289   3.586   0.003
26037SOL    HW180118  25.321  14.671   0.073
26037SOL    HW280119   3.221   3.548  10.988
26038SOL     OW80120   6.753   3.153   8.729
26038SOL    HW180121   6.788  14.119  19.819
26038SOL    HW280122 -26.303   3.164   8.658
26039SOL     OW80123   1.149   4.048   8.330
26039SOL    HW180124  12.235   4.044  30.493
26039SOL    HW280125   1.151   3.958   8.297
26040SOL     OW80126   9.131   7.641   7.497
26040SOL    HW180127  -1.863   7.725   7.484
26040SOL    HW280128   9.140   7.596   7.413
26041SOL     OW80129   1.274   2.315   0.742
26041SOL    HW180130   1.258  24.394   0.837
26041SOL    HW280131 -20.818  -8.815   0.716
26042SOL     OW80132   6.485   8.678   1.908
26042SOL    HW180133   6.415   8.623  -9.167
26042SOL    HW280134   6.526   8.717   1.831
26043SOL     OW80135   6.573   5.315   0.144
26043SOL    HW180136  -4.383   5.351  11.155
26043SOL    HW280137  -4.444   5.232   0.186
26044SOL     OW80138   1.440   8.208   1.332
26044SOL    HW180139   1.435   8.191   1.426
26044SOL    HW280140   1.470  30.378   1.325
26045SOL     OW80141   5.223   4.196   4.725
26045SOL    HW180142   5.207  -6.896   4.646
26045SOL    HW280143   5.281   4.266  26.774
26046SOL     OW80144   0.550   8.998   8.454
26046SOL    HW180145   0.571   8.999  19.587
26046SOL    HW280146   0.483   9.067  -2.596
26047SOL     OW80147   1.359   9.419  -1.518
26047SOL    HW180148   1.335  -1.614  -1.426
26047SOL    HW280149  23.358   9.444  31.554
26048SOL     OW80150   0.396  -0.857   8.814
26048SOL    HW180151  44.643  21.257   8.811
26048SOL    HW280152  11.379  -0.782   8.793
26049SOL     OW80153  11.637   1.945  -0.169
26049SOL    HW180154  11.612   1.986  21.827
26049SOL    HW280155 -21.397  -9.055  32.971
26050SOL     OW80156   4.050   5.395   1.179
26050SOL    HW180157   4.069  16.370   1.247
26050SOL    HW280158  15.108   5.480   1.220
26051SOL     OW80159   8.366   7.667   9.465
26051SOL    HW180160  -2.679  51.904   9.411
26051SOL    HW280161   8.317   7.601  31.496
26052SOL     OW80162   1.004   0.963   8.213
26052SOL    HW180163  12.023   0.890  19.310
26052SOL    HW280164   0.984  12.081   8.264
26053SOL     OW80165   1.356   3.349  11.527
26053SOL    HW180166   1.261  -7.702   0.494
26053SOL    HW280167   1.393   3.282  11.585
26054SOL     OW80168   0.411   3.057   4.920
26054SOL    HW180169   0.407   3.050   5.015
26054SOL    HW280170   0.319   3.063   4.893
26055SOL     OW80171   2.834  -0.711  11.027
26055SOL    HW180172   2.773  21.369  11.100
26055SOL    HW280173   2.916  10.362  11.064
26056SOL     OW80174   7.594   0.484   1.817
26056SOL    HW180175  -3.449   0.547  12.929
26056SOL    HW280176   7.637   0.532  23.826
26057SOL     OW80177   0.647   8.628   1.569
26057SOL    HW180178   0.711  19.700   1.506
26057SOL    HW280179  11.640  19.745  12.639
26058SOL     OW80180   1.939   9.715   6.991
26058SOL    HW180181   1.933  20.840   6.948
26058SOL    HW280182   1.851   9.679  -4.054
26059SOL     OW80183   9.282   5.047   4.235
26059SOL    HW180184  -1.709   5.031   4.316
26059SOL    HW280185   9.341   5.099 -17.897
26060SOL     OW80186   4.123   6.143   7.979
26060SOL    HW180187   4.045   6.118  18.969
26060SOL    HW280188 -28.961   6.060   8.012
26061SOL     OW80189   8.430   3.557   9.527
26061SOL    HW180190  19.462   3.562  20.471
26061SOL    HW280191   8.466   3.641  20.592
26062SOL     OW80192   2.971   1.871   2.029
26062SOL    HW180193  -8.091   1.879   1.936
26062SOL    HW280194 -19.033   1.929   2.041
26063SOL     OW80195   3.116  10.715   7.846
26063SOL    HW180196   3.053  10.659   7.799
26063SOL    HW280197   3.187  10.657   7.871
26064SOL     OW80198   4.397   9.475   8.037
26064SOL    HW180199  -6.572   9.426   7.995
26064SOL    HW280200 -17.754   9.471   7.974
26065SOL     OW80201   7.006   9.944   4.330
26065SOL    HW180202  17.950 -12.130   4.334
26065SOL    HW280203  18.075 -12.087   4.408
26066SOL     OW80204   4.742   7.531  10.234
26066SOL    HW180205   4.688   7.610  10.233
26066SOL    HW280206 -28.289   7.561  10.208
26067SOL     OW80207   7.622   4.030   3.964
26067SOL    HW180208   7.554  15.134   3.984
26067SOL    HW280209   7.689  -6.959   3.917
26068SOL     OW80210   4.244   9.156   9.301
26068SOL    HW180211  -6.791   9.245  20.307
26068SOL    HW280212   4.150   9.135   9.301
26069SOL     OW80213   2.699   1.264   5.052
26069SOL    HW180214   2.786   1.247 -16.989
26069SOL    HW280215   2.659   1.177   5.044
26070SOL     OW80216  10.075   5.997   7.115
26070SOL    HW180217  -0.954   6.002   7.020
26070SOL    HW280218  10.132   5.925   7.141
26071SOL     OW80219   7.818   9.998   0.756
26071SOL    HW180220   7.857  -0.956   0.777
26071SOL    HW280221   7.815   9.996  33.779
26072SOL     OW80222   0.647   4.799  -0.881
26072SOL    HW180223   0.641   4.725  10.098
26072SOL    HW280224   0.741  -6.223  10.166
26073SOL     OW80225   7.937   4.577   1.807
26073SOL    HW180226  -3.181  15.568   1.831
26073SOL    HW280227  41.113   4.569   1.883
26074SOL     OW80228   9.869   3.795   0.424
26074SOL    HW180229 -12.177   3.855  11.530
26074SOL    HW280230   9.919 -29.404   0.437
26075SOL     OW80231   6.224   3.003   7.774
26075SOL    HW180232  28.361   2.950   7.720
26075SOL    HW280233   6.188   2.942   7.838
26076SOL     OW80234   1.275   7.696   4.115
26076SOL    HW180235   1.234   7.750   4.183
26076SOL    HW280236   1.244   7.607   4.133
26077SOL     OW80237   2.094   6.189   6.971
26077SOL    HW180238   2.109   6.284   6.969
26077SOL    HW280239 -20.043  17.215   7.047
26078SOL     OW80240  10.891   4.134   8.603
26078SOL    HW180241  10.983   4.133   8.629
26078SOL    HW280242  10.846   4.173  -2.362
26079SOL     OW80243   3.852  12.705   1.964
26079SOL    HW180244  -7.098   1.670  13.037
26079SOL    HW280245   3.848  -9.305   1.898
26080SOL     OW80246   9.413   8.216   4.111
26080SOL    HW180247   9.363   8.267  15.087
26080SOL    HW280248   9.466   8.281   4.158
26081SOL     OW80249   9.422   4.213   5.822
26081SOL    HW180250   9.358   4.283   5.814
26081SOL    HW280251   9.441   4.208   5.916
26082SOL     OW80252   3.226   7.907   7.833
26082SOL    HW180253   3.271  18.960  18.789
26082SOL    HW280254   3.196   7.994  29.938
26083SOL     OW80255   7.129   6.831  10.766
26083SOL    HW180256  18.189 -15.273  10.676
26083SOL    HW280257  18.248  -4.165  10.798
26084SOL     OW80258   1.396  10.012   4.251
26084SOL    HW180259   1.434   9.934   4.211
26084SOL    HW280260  12.430  10.076   4.180
26085SOL     OW80261  -2.096   5.246  10.119
26085SOL    HW180262   9.027 -27.843  10.083
26085SOL    HW280263  31.039   5.156  10.146
26086SOL     OW80264   6.304   8.169   3.999
26086SOL    HW180265   6.374   8.170 -18.145
26086SOL    HW280266   6.286   8.076   4.014
26087SOL     OW80267  10.194   5.478  10.251
26087SOL    HW180268  10.165   5.387  10.265
26087SOL    HW280269  10.127   5.531  10.293
26088SOL     OW80270   2.886   1.658   9.236
26088SOL    HW180271  -8.109   1.726   9.287
26088SOL    HW280272   2.796   1.688   9.229
26089SOL     OW80273   9.940   2.998   1.684
26089SOL    HW180274   9.879   3.008   1.611
26089SOL    HW280275   9.887   2.961   1.755
26090SOL     OW80276   4.066   0.150   2.014
26090SOL    HW180277   4.069  11.238  -9.109
26090SOL    HW280278   4.055  11.098   1.988
26091SOL     OW80279   1.419   8.430   8.202
26091SOL    HW180280   1.361  41.592  19.304
26091SOL    HW280281   1.480   8.380   8.257
26092SOL     OW80282   9.972   4.295   9.691
26092SOL    HW180283   9.881   4.276   9.670
26092SOL    HW280284  21.051   4.319   9.607
26093SOL     OW80285   8.989   7.029  10.633
26093SOL    HW180286   9.032   6.950  10.667
26093SOL    HW280287  19.943   6.999  10.603
26094SOL     OW80288  -1.266   8.211   9.211
26094SOL    HW180289   9.734  19.260 -12.782
26094SOL    HW280290  42.949   8.134   9.219
26095SOL     OW80291   3.724   4.983   5.022
26095SOL    HW180292   3.658   5.005 -16.991
26095SOL    HW280293   3.803   5.027   5.054
26096SOL     OW80294   4.176   9.470   1.409
26096SOL    HW180295   4.211   9.390  12.487
26096SOL    HW280296  15.217   9.455   1.314
26097SOL     OW80297   6.797   2.937   8.866
26097SOL    HW180298 -15.205   2.881   8.872
26097SOL    HW280299  28.809   2.891   8.916
26098SOL     OW80300   8.406   5.453   0.369
26098SOL    HW180301 -13.760   5.415   0.354
26098SOL    HW280302 -13.642  27.490  11.489
26099SOL     OW80303  11.556   5.256   1.073
26099SOL    HW180304  11.544  -5.716   1.006
26099SOL    HW280305 -10.467   5.190   1.030
26100SOL     OW80306   5.737   3.846   8.986
26100SOL    HW180307 -16.259  14.928   9.008
26100SOL    HW280308   5.733  14.888  42.009
26101SOL     OW80309   1.945  11.238   5.510
26101SOL    HW180310   2.009 -10.772   5.498
26101SOL    HW280311   1.870   0.224  16.495
26102SOL     OW80312   5.743   5.651   2.414
26102SOL    HW180313 -16.345   5.715  -8.555
26102SOL    HW280314   5.677   5.584  -8.605
26103SOL     OW80315   8.108  10.745  10.412
26103SOL    HW180316   8.114  10.793  10.330
26103SOL    HW280317  19.110  -0.379  10.388
26104SOL     OW80318  10.584   2.790   2.107
26104SOL    HW180319  10.556   2.782 -30.920
26104SOL    HW280320  10.581   2.701   2.073
26105SOL     OW80321   5.847   6.259   8.360
26105SOL    HW180322   5.850   6.288   8.451
26105SOL    HW280323  16.818   6.193   8.357
26106SOL     OW80324   4.803   0.679   9.545
26106SOL    HW180325   4.820   0.773 -12.544
26106SOL    HW280326   4.886   0.644  -1.461
26107SOL     OW80327   6.157   6.142   7.673
26107SOL    HW180328   6.198  -4.897   7.760
26107SOL    HW280329  -4.862   6.055   7.638
26108SOL     OW80330   8.901   4.317   9.734
26108SOL    HW180331   8.936   4.375   9.802
26108SOL    HW280332   8.966   4.248  20.765
26109SOL     OW80333   3.195  11.015   9.920
26109SOL    HW180334   3.259  11.072   9.878
26109SOL    HW280335   3.115  11.027  20.907
26110SOL     OW80336   2.469   7.823   9.240
26110SOL    HW180337 -19.547   7.764  -1.758
26110SOL    HW280338   2.489 -14.170   9.276
26111SOL     OW80339   2.182  -0.458   8.443
26111SOL    HW180340   2.265  -0.450   8.395
26111SOL    HW280341  13.197  10.490  30.513
26112SOL     OW80342   8.039   2.488   2.212
26112SOL    HW180343  19.120  24.499   2.158
26112SOL    HW280344   8.048   2.568   2.160
26113SOL     OW80345   4.019  10.554   8.070
26113SOL    HW180346   3.996  10.590   7.984
26113SOL    HW280347  15.046  10.459   8.060
26114SOL     OW80348   5.707  10.203   3.865
26114SOL    HW180349   5.617  10.179  -7.195
26114SOL    HW280350  16.799  -0.909   3.830
26115SOL     OW80351   3.156   5.217   5.142
26115SOL    HW180352  14.198 -50.027  38.177
26115SOL    HW280353   3.104   5.160   5.199
26116SOL     OW80354   5.933   3.191   9.495
26116SOL    HW180355   6.009   3.136   9.513
26116SOL    HW280356   5.894  -7.834  31.660
26117SOL     OW80357   9.050   4.054   1.814
26117SOL    HW180358  -2.035   3.974   1.842
26117SOL    HW280359  -2.049  -6.915  -9.201
26118SOL     OW80360   1.354   4.902  -0.152
26118SOL    HW180361  23.435   4.829  21.865
26118SOL    HW280362   1.446   4.928  21.936
26119SOL     OW80363   1.266   6.322   1.026
26119SOL    HW180364   1.200   6.289   0.966
26119SOL    HW280365  34.411   6.246   1.077
26120SOL     OW80366   2.744   0.658   4.593
26120SOL    HW180367  24.880 -10.457  15.644
26120SOL    HW280368   2.659   0.629   4.627
26121SOL     OW80369   7.861   7.591   2.538
26121SOL    HW180370   7.909   7.586   2.621
26121SOL    HW280371  -3.115   7.562   2.473
26122SOL     OW80372   9.536  10.152   3.094
26122SOL    HW180373   9.521  10.175  25.265
26122SOL    HW280374   9.450  10.124  25.141
26123SOL     OW80375   8.325   3.428   7.127
26123SOL    HW180376   8.302  14.384  29.164
26123SOL    HW280377  -2.748   3.495  18.106
26124SOL     OW80378   8.255   2.364   8.117
26124SOL    HW180379   8.286   2.290   8.065
26124SOL    HW280380 -13.897   2.328   8.168
26125SOL     OW80381   7.920   6.786   2.019
26125SOL    HW180382  18.868 -48.387   2.007
26125SOL    HW280383   7.952   6.845   2.088
26126SOL     OW80384   8.306   4.963   7.982
26126SOL    HW180385   8.333   4.881  -3.100
26126SOL    HW280386   8.251   4.936   8.055
26127SOL     OW80387   1.625   2.095   2.220
26127SOL    HW180388   1.686  13.190  -8.868
26127SOL    HW280389   1.680   2.041   2.276
26128SOL     OW80390   8.970  10.372   3.652
26128SOL    HW180391  -2.105  10.410   3.572
26128SOL    HW280392   8.949  10.279   3.645
26129SOL     OW80393   3.209   5.452   4.791
26129SOL    HW180394   3.223  16.513 -61.355
26129SOL    HW280395   3.251   5.367  -6.260
26130SOL     OW80396  10.138   8.668   9.427
26130SOL    HW180397  10.175   8.595   9.377
26130SOL    HW280398 -22.921  30.759   9.500
26131SOL     OW80399  10.798   4.901   4.844
26131SOL    HW180400  10.787   4.818  15.837
26131SOL    HW280401  10.822   4.876   4.933
26132SOL     OW80402   4.274   9.778   7.840
26132SOL    HW180403   4.259   9.795  18.972
26132SOL    HW280404   4.370   9.776   7.830
26133SOL     OW80405   5.855   3.395   3.250
26133SOL    HW180406 -16.146  -7.625   3.302
26133SOL    HW280407 -27.312   3.330   3.301
26134SOL     OW80408   1.340   0.236   9.755
26134SOL    HW180409   1.309  11.186  31.818
26134SOL    HW280410   1.273   0.292   9.716
26135SOL     OW80411  11.031   5.998   7.321
26135SOL    HW180412  10.941   6.010  -3.748
26135SOL    HW280413  11.028   5.918  -3.666
26136SOL     OW80414   4.558   3.051   4.540
26136SOL    HW180415   4.617   3.024   4.471
26136SOL    HW280416   4.546  -7.895   4.526
26137SOL     OW80417   5.475   1.812   0.860
26137SOL    HW180418 -27.679  12.773   0.903
26137SOL    HW280419   5.402 -20.234   0.808
26138SOL     OW80420   8.233   8.597  10.774
26138SOL    HW180421   8.167   8.588  10.842
26138SOL    HW280422  30.272   8.655  10.709
26139SOL     OW80423   2.698   3.722   0.056
26139SOL    HW180424   2.636   3.746  -0.012
26139SOL    HW280425   2.644   3.688  11.167
26140SOL     OW80426   6.399   8.056   9.999
26140SOL    HW180427   6.368   8.086  10.084
26140SOL    HW280428   6.477  19.148   9.982
26141SOL     OW80429   3.572   2.206   5.420
26141SOL    HW180430   3.531  13.159   5.428
26141SOL    HW280431   3.512  13.295   5.363
26142SOL     OW80432   8.270  12.246  11.222
26142SOL    HW180433   8.280   1.215   0.277
26142SOL    HW280434   8.192   1.258  11.201
26143SOL     OW80435  10.308  11.953   8.086
26143SOL    HW180436  10.216  11.975   8.098
26143SOL    HW280437  10.344 -10.053   8.037
26144SOL     OW80438   0.848   7.400   7.348
26144SOL    HW180439   0.828   7.405   7.255
26144SOL    HW280440   0.787   7.336  -3.657
26145SOL     OW80441   6.268   8.479  10.655
26145SOL    HW180442 -26.802 -13.592  -0.466
26145SOL    HW280443  -4.825 -24.560  10.660
26146SOL     OW80444   5.226   5.500   2.004
26146SOL    HW180445   5.284   5.456   2.067
26146SOL    HW280446   5.223   5.591   2.033
26147SOL     OW80447   5.744   7.981   6.890
26147SOL    HW180448   5.722   8.059   6.841
26147SOL    HW280449   5.660   7.945   6.918
26148SOL     OW80450   7.777   7.499   1.120
26148SOL    HW180451   7.852   7.446   1.147
26148SOL    HW280452  18.809  18.524  23.105
26149SOL     OW80453   9.141   9.024   1.140
26149SOL    HW180454   9.058  -1.999   1.096
26149SOL    HW280455   9.169   8.938  23.187
26150SOL     OW80456   8.662   4.455   5.482
26150SOL    HW180457   8.650   4.495   5.396
26150SOL    HW280458  -2.335   4.372   5.464
26151SOL     OW80459   3.849   7.290  10.573
26151SOL    HW180460  25.902  18.418  -0.445
26151SOL    HW280461   3.809   7.273  -0.551
26152SOL     OW80462   9.178   9.572   6.371
26152SOL    HW180463   9.176   9.489   6.419
26152SOL    HW280464   9.248   9.560   6.306
26153SOL     OW80465   7.432   6.869   5.806
26153SOL    HW180466   7.494   6.876   5.878
26153SOL    HW280467  -3.579   6.936  16.783
26154SOL     OW80468   0.071   5.493   8.333
26154SOL    HW180469  11.150 -16.500  -2.696
26154SOL    HW280470  -0.004   5.508  -2.765
26155SOL     OW80471   8.514   7.403   6.032
26155SOL    HW180472  19.490   7.448  -5.063
26155SOL    HW280473   8.599   7.425   5.994
26156SOL     OW80474   3.240   4.954   8.710
26156SOL    HW180475  -7.786   4.953   8.805
26156SOL    HW280476   3.267  -5.998   8.682
26157SOL     OW80477  10.687   1.937   1.016
26157SOL    HW180478  10.763   1.888   0.985
26157SOL    HW280479  10.614   1.875   1.009
26158SOL     OW80480  10.840   6.485  10.635
26158SOL    HW180481  10.863  61.675  10.542
26158SOL    HW280482  10.744  17.529  10.636
26159SOL     OW80483   8.345  10.457   2.942
26159SOL    HW180484   8.425  10.472   2.992
26159SOL    HW280485   8.275  10.496   2.996
26160SOL     OW80486   7.721   3.046   4.666
26160SOL    HW180487  18.747   3.128  -6.326
26160SOL    HW280488   7.641   2.995  15.721
26161SOL     OW80489   6.028   9.782   6.958
26161SOL    HW180490   6.103  20.765   6.977
26161SOL    HW280491 -16.014   9.870  -4.089
26162SOL     OW80492   2.383   9.000   8.415
26162SOL    HW180493  13.396  -1.948   8.416
26162SOL    HW280494   2.337 -13.117  30.419
26163SOL     OW80495   7.731   1.926   6.922
26163SOL    HW180496   7.743   1.912   7.016
26163SOL    HW280497 -25.410  13.058   6.914
26164SOL     OW80498   9.797   5.468   5.535
26164SOL    HW180499   9.754  16.550   5.461
26164SOL    HW280500 -12.347   5.470  16.645
26165SOL     OW80501   0.375   3.396   8.896
26165SOL    HW180502   0.335   3.316  31.008
26165SOL    HW280503   0.380   3.383   8.801
26166SOL     OW80504  10.290   6.998   2.243
26166SOL    HW180505  21.248  18.081   2.267
26166SOL    HW280506  -0.747   7.002   2.148
26167SOL     OW80507  11.600   2.639   5.181
26167SOL    HW180508  11.639   2.567  16.171
26167SOL    HW280509   0.624  -8.381   5.250
26168SOL     OW80510   0.877   4.514  10.125
26168SOL    HW180511   0.809   4.461  10.167
26168SOL    HW280512   0.905  15.614  10.194
26169SOL     OW80513   6.651  10.961   5.174
26169SOL    HW180514  17.770  11.005   5.203
26169SOL    HW280515 -26.442  10.914   5.095
26170SOL     OW80516   6.479   9.699   0.740
26170SOL    HW180517   6.418   9.721   0.670
26170SOL    HW280518  17.548 -12.295   0.773
26171SOL     OW80519   7.505   6.354   1.576
26171SOL    HW180520   7.483  28.382   1.653
26171SOL    HW280521   7.565   6.421  23.687
26172SOL     OW80522   1.991   4.359   6.720
26172SOL    HW180523   1.997   4.415  17.682
26172SOL    HW280524   1.992 -17.659   6.794
26173SOL     OW80525  10.099   2.788   2.299
26173SOL    HW180526  -0.968   2.854  -8.677
26173SOL    HW280527 -11.987  -8.335  13.385
26174SOL     OW80528   5.054   6.535   8.775
26174SOL    HW180529  16.000   6.519   8.788
26174SOL    HW280530   5.063   6.556  19.722
26175SOL     OW80531   9.717   2.196  10.669
26175SOL    HW180532   9.636  13.277  21.680
26175SOL    HW280533  20.824  24.312  -0.428
26176SOL     OW80534   2.069  -1.015   6.258
26176SOL    HW180535   2.088  21.104   6.173
26176SOL    HW280536  46.290  10.067  28.397
26177SOL     OW80537   1.534  10.201   9.589
26177SOL    HW180538  12.542  21.311   9.532
26177SOL    HW280539   1.629  -0.827   9.590
26178SOL     OW80540   9.693   5.488   3.013
26178SOL    HW180541  20.730   5.393  -8.033
26178SOL    HW280542   9.782  16.551  -8.054
26179SOL     OW80543   2.192   6.159   8.892
26179SOL    HW180544  -8.924   6.133   8.943
26179SOL    HW280545   2.267   6.122 -13.140
26180SOL     OW80546   7.018   7.479   3.811
26180SOL    HW180547   7.102   7.524   3.825
26180SOL    HW280548 -15.048  18.470   3.729
26181SOL     OW80549  10.800   8.450   4.694
26181SOL    HW180550  10.814   8.442 -17.291
26181SOL    HW280551  -0.268   8.363  15.706
26182SOL     OW80552   9.684   4.522   7.136
26182SOL    HW180553   9.759  15.502  18.170
26182SOL    HW280554   9.709   4.585   7.203
26183SOL     OW80555   1.621  10.310   5.777
26183SOL    HW180556  12.611 -11.821   5.840
26183SOL    HW280557   1.672  -0.794   5.727
26184SOL     OW80558   0.364   6.176   6.850
26184SOL    HW180559   0.441  -4.899   6.896
26184SOL    HW280560  11.427  17.306  17.870
26185SOL     OW80561   8.044  -0.572   3.009
26185SOL    HW180562   8.003  -0.658   3.001
26185SOL    HW280563   8.036  21.529  -7.938
26186SOL     OW80564   4.714   6.853   3.197
26186SOL    HW180565   4.786   6.791  25.274
26186SOL    HW280566   4.645   6.808   3.246
26187SOL     OW80567   4.236   7.356   3.704
26187SOL    HW180568  -6.834   7.265   3.708
26187SOL    HW280569   4.322   7.350   3.662
26188SOL     OW80570   5.696   0.920   6.546
26188SOL    HW180571   5.787  23.023  17.600
26188SOL    HW280572  -5.394  12.033   6.582
26189SOL     OW80573   5.045   5.784   1.746
26189SOL    HW180574   4.960  16.850   1.782
26189SOL    HW280575   5.104  27.934   1.770
26190SOL     OW80576   6.748  11.467   7.390
26190SOL    HW180577   6.705 -10.630  29.552
26190SOL    HW280578  17.876 -10.585 -14.665
26191SOL     OW80579  10.245   1.248   0.045
26191SOL    HW180580  21.378   1.263  22.113
26191SOL    HW280581  10.217   1.207  -0.038
26192SOL     OW80582  -0.836   6.652   8.870
26192SOL    HW180583  21.148  -4.383  41.995
26192SOL    HW280584  -0.808   6.619   8.955
26193SOL     OW80585   0.690   4.384   6.333
26193SOL    HW180586   0.661   4.446   6.267
26193SOL    HW280587   0.630  -6.641  28.486
26194SOL     OW80588   4.755   6.242   2.575
26194SOL    HW180589   4.822  17.274   2.507
26194SOL    HW280590  15.844   6.241   2.658
26195SOL     OW80591   3.680   1.749   3.529
26195SOL    HW180592   3.746  -9.244   3.581
26195SOL    HW280593  14.692   1.676   3.584
26196SOL     OW80594   3.233   3.337   7.247
26196SOL    HW180595   3.292   3.366   7.177
26196SOL    HW280596  14.320   3.266   7.290
26197SOL     OW80597  10.778   1.782   1.387
26197SOL    HW180598  10.795   1.865   1.432
26197SOL    HW280599  10.852   1.772  23.406
26198SOL     OW80600   9.285   6.144   4.362
26198SOL    HW180601  31.385 -26.901   4.305
26198SOL    HW280602   9.368   6.122  -6.635
26199SOL     OW80603   8.166   6.600   8.760
26199SOL    HW180604  19.260   6.654  -2.337
26199SOL    HW280605   8.171  -4.396  -2.194
26200SOL     OW80606   8.031   3.362   8.235
26200SOL    HW180607  19.039  14.448  -2.727
26200SOL    HW280608   7.989  14.447  19.201
26201SOL     OW80609   3.218   2.324   5.861
26201SOL    HW180610   3.271   2.298   5.786
26201SOL    HW280611   3.198 -19.663   5.845
26202SOL     OW80612   0.163   8.372   6.623
26202SOL    HW180613   0.216  -2.589   6.611
26202SOL    HW280614   0.220  -2.740  17.637
26203SOL     OW80615   8.956   9.168   1.815
26203SOL    HW180616  -1.998   9.144   1.779
26203SOL    HW280617   8.975  20.272   1.883
26204SOL     OW80618   4.320  11.400   5.126
26204SOL    HW180619   4.306  11.483   5.170
26204SOL    HW280620   4.259 -10.679   5.052
26205SOL     OW80621   4.924   5.454   9.719
26205SOL    HW180622   4.963   5.528   9.674
26205SOL    HW280623   4.891   5.398   9.648
26206SOL     OW80624   9.244   6.244  -0.493
26206SOL    HW180625 -12.825   6.199  32.542
26206SOL    HW280626  -1.766   6.181  -0.427
26207SOL     OW80627   5.401   3.758   7.025
26207SOL    HW180628   5.405   3.721   7.113
26207SOL    HW280629   5.353   3.840   7.035
26208SOL     OW80630   2.742   9.932   3.144
26208SOL    HW180631   2.651   9.932  14.214
26208SOL    HW280632   2.792   9.899  14.257
26209SOL     OW80633  10.398   9.811  10.815
26209SOL    HW180634  10.304   9.831  -0.227
26209SOL    HW280635 -11.653   9.838 -11.177
26210SOL     OW80636   9.691   5.662  -0.544
26210SOL    HW180637   9.659  -5.317  32.507
26210SOL    HW280638   9.616   5.605  10.514
26211SOL     OW80639   1.480   0.998   2.311
26211SOL    HW180640   1.535   0.919  13.355
26211SOL    HW280641   1.391   0.966   2.324
26212SOL     OW80642   4.391   5.884   5.113
26212SOL    HW180643   4.346  -5.237  -5.907
26212SOL    HW280644   4.466   5.859   5.059
26213SOL     OW80645   2.192  10.324   8.344
26213SOL    HW180646   2.174  10.321   8.250
26213SOL    HW280647   2.129  10.263   8.382
26214SOL     OW80648   7.824  10.882   7.803
26214SOL    HW180649  40.853  10.915   7.815
26214SOL    HW280650   7.812 -11.289   7.777
26215SOL     OW80651   0.999   3.028   1.207
26215SOL    HW180652 -10.038   3.115   1.167
26215SOL    HW280653   0.997   2.968   1.132
26216SOL     OW80654   1.139   5.211   6.883
26216SOL    HW180655   1.049   5.235   6.907
26216SOL    HW280656  12.187   5.237   6.791
26217SOL     OW80657   7.660   2.170   3.786
26217SOL    HW180658   7.575   2.208   3.812
26217SOL    HW280659  29.799 -19.835   3.787
26218SOL     OW80660   7.610   0.155   8.721
26218SOL    HW180661   7.702   0.178   8.706
26218SOL    HW280662   7.561   0.213   8.663
26219SOL     OW80663   1.941   5.789  10.470
26219SOL    HW180664   2.036   5.784  10.485
26219SOL    HW280665  12.972 -16.235  10.392
26220SOL     OW80666   1.083   7.306   2.751
26220SOL    HW180667  45.270   7.387   2.708
26220SOL    HW280668  12.161   7.236  -8.341
26221SOL     OW80669   4.639  11.512   0.554
26221SOL    HW180670   4.594  11.543   0.633
26221SOL    HW280671   4.726 -10.592   0.584
26222SOL     OW80672   2.148  11.261   8.425
26222SOL    HW180673   2.055   0.228   8.402
26222SOL    HW280674  -8.868  11.348   8.456
26223SOL     OW80675   3.205   5.024  -0.581
26223SOL    HW180676 -18.906   5.068  21.420
26223SOL    HW280677   3.288  -6.056  -0.608
26224SOL     OW80678   6.753   3.157  10.915
26224SOL    HW180679  -4.303   3.068 -11.133
26224SOL    HW280680  -4.283   3.148  10.819
26225SOL     OW80681   8.227  10.198   3.061
26225SOL    HW180682   8.215  10.284   3.019
26225SOL    HW280683   8.306  10.208   3.114
26226SOL     OW80684  10.280   7.369   5.100
26226SOL    HW180685  10.238  -3.608   5.041
26226SOL    HW280686 -11.722   7.415   5.133
26227SOL     OW80687   3.225   4.570  11.419
26227SOL    HW180688 -18.831   4.659 -10.687
26227SOL    HW280689   3.300   4.541  11.471
26228SOL     OW80690   1.290   5.838   1.132
26228SOL    HW180691   1.244  16.817  -9.850
26228SOL    HW280692   1.315   5.911   1.189
26229SOL     OW80693   0.739   3.212   3.655
26229SOL    HW180694   0.669  -7.889   3.677
26229SOL    HW280695 -10.241   3.162   3.599
26230SOL     OW80696   1.280   8.076   9.707
26230SOL    HW180697   1.340   8.131   9.758
26230SOL    HW280698   1.207  -2.905   9.686
26231SOL     OW80699   1.472   5.730   2.594
26231SOL    HW180700   1.392  27.833   2.547
26231SOL    HW280701  -9.598   5.676   2.668
26232SOL     OW80702  10.688   3.601   2.868
26232SOL    HW180703  10.617  -7.499   2.843
26232SOL    HW280704  10.647   3.662   2.930
26233SOL     OW80705   3.468   0.721   9.767
26233SOL    HW180706  -7.542   0.630   9.761
26233SOL    HW280707   3.443   0.732   9.859
26234SOL     OW80708   3.697   8.874   3.450
26234SOL    HW180709   3.621  -2.206  -7.631
26234SOL    HW280710  -7.301   8.924   3.380
26235SOL     OW80711  10.267   7.587   1.983
26235SOL    HW180712  10.281   7.540   2.066
26235SOL    HW280713  10.309  18.711  13.037
26236SOL     OW80714   6.233   6.225   5.249
26236SOL    HW180715   6.283   6.259  27.402
26236SOL    HW280716   6.142   6.231   5.276
26237SOL     OW80717   1.389   1.228   2.469
26237SOL    HW180718   1.429   1.168  -8.634
26237SOL    HW280719  -9.654   1.177   2.550
26238SOL     OW80720  10.087  -0.990   6.789
26238SOL    HW180721  10.081  21.071  -4.157
26238SOL    HW280722  21.139  32.224   6.783
26239SOL     OW80723   0.073   6.171   6.110
26239SOL    HW180724   0.088   6.096  17.092
26239SOL    HW280725   0.041   6.240   6.051
26240SOL     OW80726   9.188   6.597   3.886
26240SOL    HW180727  -1.855   6.535   3.813
26240SOL    HW280728  -1.786   6.561   3.945
26241SOL     OW80729   8.823   4.401   4.219
26241SOL    HW180730   8.801  -6.668   4.307
26241SOL    HW280731   8.749   4.457  15.233
26242SOL     OW80732   3.516  10.341   7.808
26242SOL    HW180733  14.595  21.391   7.722
26242SOL    HW280734  14.517  10.253  18.846
26243SOL     OW80735   8.033   0.111   3.777
26243SOL    HW180736   8.126   0.102   3.797
26243SOL    HW280737  19.028  11.134  25.940
26244SOL     OW80738  10.935   7.442   4.467
26244SOL    HW180739  11.031   7.445   4.469
26244SOL    HW280740  10.909   7.531   4.444
26245SOL     OW80741   0.763  -0.381   7.596
26245SOL    HW180742   0.852  10.637   7.567
26245SOL    HW280743   0.769  10.751   7.621
26246SOL     OW80744   2.484   9.030   5.525
26246SOL    HW180745 -19.660   9.026   5.595
26246SOL    HW280746   2.521  -1.922   5.531
26247SOL     OW80747   3.200   2.270   6.517
26247SOL    HW180748   3.131   2.230  17.504
26247SOL    HW280749   3.205   2.360   6.486
26248SOL     OW80750  10.242   1.424   4.280
26248SOL    HW180751  10.312   1.482   4.312
26248SOL    HW280752  10.284   1.371   4.212
26249SOL     OW80753   0.365   0.863   3.457
26249SOL    HW180754   0.409   0.816   3.386
26249SOL    HW280755   0.327   0.940   3.414
26250SOL     OW80756   8.562   1.063   4.780
26250SOL    HW180757   8.499   0.992   4.789
26250SOL    HW280758   8.550  12.134   4.690
26251SOL     OW80759   8.251   3.977   8.051
26251SOL    HW180760  -2.812  -6.993 -14.090
26251SOL    HW280761   8.211   4.004   8.133
26252SOL     OW80762   2.757   3.880   3.118
26252SOL    HW180763   2.789   3.970   3.115
26252SOL    HW280764   2.663   3.888   3.133
26253SOL     OW80765   6.198   7.899   7.481
26253SOL    HW180766   6.110  29.977  -3.522
26253SOL    HW280767   6.189  30.023   7.397
26254SOL     OW80768   7.923   1.541  10.015
26254SOL    HW180769   7.974   1.555  10.095
26254SOL    HW280770   7.907   1.630   9.982
26255SOL     OW80771   3.463   3.602   6.723
26255SOL    HW180772   3.414   3.684   6.724
26255SOL    HW280773   3.553   3.629   6.706
26256SOL     OW80774   7.134  11.032   2.996
26256SOL    HW180775  29.255  22.091  25.159
26256SOL    HW280776   7.119   0.078  36.075
26257SOL     OW80777   3.355   7.190   8.776
26257SOL    HW180778   3.443   7.229   8.774
26257SOL    HW280779   3.364   7.106   8.733
26258SOL     OW80780  10.187   6.501   9.474
26258SOL    HW180781  10.201  17.463   9.420
26258SOL    HW280782 -22.891   6.480   9.558
26259SOL     OW80783   3.358  10.006   6.026
26259SOL    HW180784   3.286   9.988   5.964
26259SOL    HW280785   3.416  -1.109   6.019
26260SOL     OW80786   9.367   2.965   7.580
26260SOL    HW180787   9.360  -8.169  -3.474
26260SOL    HW280788   9.305  -8.036  -3.521
26261SOL     OW80789   6.110   7.214   8.113
26261SOL    HW180790   6.048  40.266   8.142
26261SOL    HW280791   6.062   7.296   8.120
26262SOL     OW80792   2.784   6.940   6.533
26262SOL    HW180793  -8.249  18.004   6.626
26262SOL    HW280794   2.695  17.946   6.524
26263SOL     OW80795   1.226   7.179   3.818
26263SOL    HW180796   1.317   7.180   3.791
26263SOL    HW280797  12.217 -14.922   3.739
26264SOL     OW80798   1.939   4.286   1.587
26264SOL    HW180799  -9.161   4.321  12.691
26264SOL    HW280800  12.922   4.243  -9.517
26265SOL     OW80801   0.933   6.829   6.580
26265SOL    HW180802 -10.158   6.837  17.700
26265SOL    HW280803   0.989   6.753   6.596
26266SOL     OW80804   4.230   3.577   8.581
26266SOL    HW180805   4.174   3.544   8.510
26266SOL    HW280806   4.259  -7.377   8.550
26267SOL     OW80807   0.686   8.490   7.111
26267SOL    HW180808   0.695  -2.558   7.206
26267SOL    HW280809   0.654   8.405   7.082
26268SOL     OW80810   3.807   1.487  11.104
26268SOL    HW180811   3.839   1.402  11.073
26268SOL    HW280812   3.731   1.506   0.009
26269SOL     OW80813   4.035  10.321   1.800
26269SOL    HW180814   4.128  10.303  12.823
26269SOL    HW280815   4.006  10.368   1.723
26270SOL     OW80816   9.419   6.480   2.993
26270SOL    HW180817   9.358   6.426   3.043
26270SOL    HW280818   9.409   6.451  24.982
26271SOL     OW80819   7.111   5.401  11.152
26271SOL    HW180820  -3.847   5.372   0.071
26271SOL    HW280821   7.115   5.496   0.109
26272SOL     OW80822   4.656   2.201   0.969
26272SOL    HW180823  15.651   2.218   0.885
26272SOL    HW280824 -17.414  -8.752   1.009
26273SOL     OW80825  10.556   3.136   7.307
26273SOL    HW180826  10.526  14.149   7.219
26273SOL    HW280827  10.507   3.079   7.366
26274SOL     OW80828   9.152   9.181   2.041
26274SOL    HW180829   9.217   9.179 -20.109
26274SOL    HW280830   9.180  -1.787   2.098
26275SOL     OW80831   6.060   2.179   0.923
26275SOL    HW180832   5.974 -19.918   0.885
26275SOL    HW280833   6.098   2.093   0.940
26276SOL     OW80834   3.387   5.258   0.551
26276SOL    HW180835   3.370   5.347   0.520
26276SOL    HW280836   3.374   5.263   0.646
26277SOL     OW80837   4.578   5.409  -0.071
26277SOL    HW180838   4.601   5.320  10.942
26277SOL    HW280839  26.700  16.460   0.013
26278SOL     OW80840   5.513   7.231   5.504
26278SOL    HW180841  27.580   7.272  27.669
26278SOL    HW280842   5.475   7.293   5.442
26279SOL     OW80843   5.053   8.611   8.996
26279SOL    HW180844  16.169   8.559   8.971
26279SOL    HW280845   5.037  -2.371  -2.118
26280SOL     OW80846   0.278   0.925  10.071
26280SOL    HW180847  11.269   0.848  10.102
26280SOL    HW280848   0.249   0.937  21.020
26281SOL     OW80849   5.926   5.791  10.758
26281SOL    HW180850  -5.050   5.848  10.801
26281SOL    HW280851   5.921   5.824  -0.372
26282SOL     OW80852   4.574   7.413   0.829
26282SOL    HW180853 -28.592  18.399   0.893
26282SOL    HW280854   4.505   7.448   0.772
26283SOL     OW80855   7.554   9.896   1.827
26283SOL    HW180856   7.505  -1.095   1.761
26283SOL    HW280857   7.581   9.815   1.783
26284SOL     OW80858   5.811   4.977  10.117
26284SOL    HW180859   5.867   5.052  10.098
26284SOL    HW280860 -16.271  27.050  21.252
26285SOL     OW80861   6.810   1.469   3.890
26285SOL    HW180862   6.878   1.534   3.871
26285SOL    HW280863   6.849   1.386   3.863
26286SOL     OW80864   3.050   6.622   3.954
26286SOL    HW180865   2.981   6.666   4.003
26286SOL    HW280866   3.107  17.733   3.925
26287SOL     OW80867   1.699   4.573   2.424
26287SOL    HW180868   1.771   4.576   2.488
26287SOL    HW280869   1.743   4.573  -8.701
26288SOL     OW80870   3.799   0.556   7.708
26288SOL    HW180871   3.740   0.485  -3.356
26288SOL    HW280872   3.847   0.577   7.627
26289SOL     OW80873  10.182   0.634   6.639
26289SOL    HW180874  10.087   0.647 -26.482
26289SOL    HW280875  10.217   0.722  17.695
26290SOL     OW80876   5.155   0.425   9.870
26290SOL    HW180877   5.156   0.354   9.805
26290SOL    HW280878   5.132  11.423   9.952
26291SOL     OW80879   9.593   3.621   6.900
26291SOL    HW180880   9.677   3.607   6.943
26291SOL    HW280881   9.574  -7.503   6.857
26292SOL     OW80882   2.184   4.148   6.319
26292SOL    HW180883  13.291   4.181   6.378
26292SOL    HW280884   2.226   4.142   6.234
26293SOL     OW80885   8.500   6.278  10.656
26293SOL    HW180886   8.550   6.322  10.724
26293SOL    HW280887   8.548  -4.842  10.639
26294SOL     OW80888  10.237   2.223   6.285
26294SOL    HW180889  -0.787   2.144   6.336
26294SOL    HW280890 -11.789 -19.867   6.207
26295SOL     OW80891   9.340   0.558   0.166
26295SOL    HW180892  -1.780   0.517   0.136
26295SOL    HW280893   9.376   0.497   0.230
26296SOL     OW80894   4.767   3.982   9.280
26296SOL    HW180895   4.746   3.902   9.329
26296SOL    HW280896 -17.396   4.028  20.312
26297SOL     OW80897   0.828  10.802   2.922
26297SOL    HW180898   0.915  10.807   2.884
26297SOL    HW280899   0.768  10.802 -19.232
26298SOL     OW80900   4.229   1.010   8.286
26298SOL    HW180901  15.320   0.988   8.363
26298SOL    HW280902  15.182 -10.065   8.303
26299SOL     OW80903   1.520   5.755   3.150
26299SOL    HW180904   1.445  16.846   3.181
26299SOL    HW280905   1.567   5.815   3.093
26300SOL     OW80906   8.043   6.409   8.337
26300SOL    HW180907   7.989   6.344   8.382
26300SOL    HW280908   7.993   6.491   8.343
26301SOL     OW80909   8.586   4.671   9.442
26301SOL    HW180910  19.626   4.681   9.537
26301SOL    HW280911   8.575   4.577   9.428
26302SOL     OW80912   4.607   3.164   2.697
26302SOL    HW180913   4.540   3.168   2.629
26302SOL    HW280914   4.564   3.120   2.771
26303SOL     OW80915  10.440   5.488   8.777
26303SOL    HW180916  10.358   5.455  -2.298
26303SOL    HW280917  10.458   5.430   8.852
26304SOL     OW80918   2.657   8.203  -0.555
26304SOL    HW180919   2.644   8.222  10.577
26304SOL    HW280920   2.581  19.281  -0.598
26305SOL     OW80921   6.093   9.943   4.699
26305SOL    HW180922   6.136 -12.161  -6.258
26305SOL    HW280923  17.186  -1.026   4.664
26306SOL     OW80924   8.166  10.200   8.980
26306SOL    HW180925   8.257  10.219   8.961
26306SOL    HW280926   8.153  10.111   8.948
26307SOL     OW80927   5.178   8.835  11.617
26307SOL    HW180928   5.096  19.923  11.610
26307SOL    HW280929  -5.888   8.746   0.602
26308SOL     OW80930   7.605   4.538   7.050
26308SOL    HW180931   7.573 -17.579   6.969
26308SOL    HW280932  18.608  -6.413   7.051
26309SOL     OW80933   4.900   2.590   1.594
26309SOL    HW180934   4.925  24.702   1.680
26309SOL    HW280935   4.982   2.563   1.553
26310SOL     OW80936   7.389   9.216   0.909
26310SOL    HW180937 -36.707   9.218   0.981
26310SOL    HW280938 -14.734  20.341  11.952
26311SOL     OW80939   5.719   1.562  10.719
26311SOL    HW180940   5.646   1.501  10.712
26311SOL    HW280941   5.688   1.641  10.674
26312SOL     OW80942  10.912   8.530   8.885
26312SOL    HW180943  10.909   8.626  -2.147
26312SOL    HW280944  10.933   8.500   8.974
26313SOL     OW80945   3.081   7.489   5.963
26313SOL    HW180946   3.061  29.645   5.910
26313SOL    HW280947   3.164   7.456 -16.150
26314SOL     OW80948   2.531   5.451   3.840
26314SOL    HW180949  24.679  -5.620  14.822
26314SOL    HW280950   2.466   5.489   3.782
26315SOL     OW80951   6.288   0.514   3.327
26315SOL    HW180952   6.254   0.546   3.244
26315SOL    HW280953   6.233   0.554   3.394
26316SOL     OW80954   5.722   4.838   2.678
26316SOL    HW180955   5.699  -6.253   2.600
26316SOL    HW280956   5.648  -6.213   2.737
26317SOL     OW80957  10.574   9.696   1.947
26317SOL    HW180958  10.611   9.608  24.017
26317SOL    HW280959  -0.391  20.794  12.971
26318SOL     OW80960   3.925   3.651   2.405
26318SOL    HW180961   3.946   3.743   2.424
26318SOL    HW280962   4.005  14.643   2.428
26319SOL     OW80963   4.711   4.586  10.080
26319SOL    HW180964  15.755   4.668  -1.010
26319SOL    HW280965  -6.241   4.550  10.075
26320SOL     OW80966   3.225   6.941   2.563
26320SOL    HW180967   3.296  18.016  13.655
26320SOL    HW280968  36.387   6.909   2.483
26321SOL     OW80969  10.812   4.902   0.446
26321SOL    HW180970  10.894  15.932   0.397
26321SOL    HW280971  10.804   4.997   0.459
26322SOL     OW80972  11.249   3.313  14.131
26322SOL    HW180973  11.220   3.400  -7.975
26322SOL    HW280974 -10.881   3.253 -19.042
26323SOL     OW80975   6.419   8.816   0.508
26323SOL    HW180976   6.400   8.727  22.616
26323SOL    HW280977   6.508   8.812 -10.567
26324SOL     OW80978   6.356   2.250   1.448
26324SOL    HW180979   6.300   2.315   1.406
26324SOL    HW280980   6.298  13.217  -9.571
26325SOL     OW80981   6.413   8.063   4.691
26325SOL    HW180982   6.377   8.120   4.624
26325SOL    HW280983 -15.636   7.986  -6.397
26326SOL     OW80984   0.343   3.052   8.650
26326SOL    HW180985  11.468  25.154   8.613
26326SOL    HW280986   0.295  14.052  19.616
26327SOL     OW80987   4.713   6.644   1.975
26327SOL    HW180988   4.750   6.699   2.043
26327SOL    HW280989   4.783   6.635  -9.130
26328SOL     OW80990  -1.195   3.821   1.332
26328SOL    HW180991  -1.244  25.825   1.366
26328SOL    HW280992  31.915   3.815   1.237
26329SOL     OW80993   0.957  11.788   4.929
26329SOL    HW180994   0.898  11.713  -6.109
26329SOL    HW280995   0.988 -10.283  16.059
26330SOL     OW80996   8.234   0.992   1.347
26330SOL    HW180997   8.329  12.029   1.330
26330SOL    HW280998  -2.816   1.062   1.411
26331SOL     OW80999   6.792   4.227   7.890
26331SOL    HW181000   6.853 -17.786  -3.182
26331SOL    HW281001   6.759   4.184   7.811
26332SOL     OW81002   5.221   8.738   2.609
26332SOL    HW181003   5.261   8.699  13.726
26332SOL    HW281004   5.274   8.816   2.591
26333SOL     OW81005   5.971   6.739   8.953
26333SOL    HW181006   6.026   6.677  -2.038
26333SOL    HW281007   5.943  -4.349   8.875
26334SOL     OW81008   7.187   2.082  10.293
26334SOL    HW181009   7.137   2.000  -0.748
26334SOL    HW281010   7.227   2.085  -0.660
26335SOL     OW81011   9.716   0.974   5.099
26335SOL    HW181012   9.650   1.041   5.083
26335SOL    HW281013   9.759   0.962 -17.064
26336SOL     OW81014   1.812  -0.483   9.588
26336SOL    HW181015   1.840  -0.566   9.626
26336SOL    HW281016   1.831  10.621   9.656
26337SOL     OW81017   6.985   4.317   1.599
26337SOL    HW181018   7.024   4.375  12.705
26337SOL    HW281019   7.039   4.331   1.521
26338SOL     OW81020  -0.258  10.160   8.790
26338SOL    HW181021  -0.293  -0.962   8.824
26338SOL    HW281022  10.850  10.184  30.932
26339SOL     OW81023   6.401   0.493   4.221
26339SOL    HW181024   6.433   0.579   4.194
26339SOL    HW281025   6.477  11.475   4.216
26340SOL     OW81026   9.847   4.985   5.296
26340SOL    HW181027   9.911  16.096   5.301
26340SOL    HW281028  20.861   4.982 -16.875
26341SOL     OW81029   7.881   0.754   1.888
26341SOL    HW181030  30.008   0.837  -9.154
26341SOL    HW281031   7.944 -10.349  12.962
26342SOL     OW81032   7.026   2.642   9.975
26342SOL    HW181033   7.003   2.584  20.941
26342SOL    HW281034   6.941   2.674  10.007
26343SOL     OW81035   0.349   5.532   9.483
26343SOL    HW181036   0.427   5.561   9.531
26343SOL    HW281037   0.322   5.608   9.433
26344SOL     OW81038  10.185   0.588   3.759
26344SOL    HW181039  10.174   0.494  14.808
26344SOL    HW281040  10.249   0.598   3.689
26345SOL     OW81041   1.846   2.373   3.076
26345SOL    HW181042   1.873   2.429 -18.930
26345SOL    HW281043   1.804   2.433   3.015
26346SOL     OW81044   3.294   5.942   0.037
26346SOL    HW181045   3.297   6.030   0.074
26346SOL    HW281046   3.343   5.888   0.100
26347SOL     OW81047   1.859   0.515   1.268
26347SOL    HW181048   1.862   0.426   1.233
26347SOL    HW281049   1.857  11.544  23.442
26348SOL     OW81050   0.461  10.577   3.932
26348SOL    HW181051   0.514 -11.558   3.875
26348SOL    HW281052   0.460  10.531   4.016
26349SOL     OW81053   1.292   8.807   1.436
26349SOL    HW181054   1.330   8.882   1.483
26349SOL    HW281055  -9.714   8.730   1.482
26350SOL     OW81056   8.787  10.558   6.141
26350SOL    HW181057   8.702  10.569   6.183
26350SOL    HW281058  -2.258  -0.566   6.097
26351SOL     OW81059   2.692  -0.543   2.221
26351SOL    HW181060  13.657  -0.491  13.290
26351SOL    HW281061  13.758  10.536   2.138
26352SOL     OW81062   4.441   8.351   7.519
26352SOL    HW181063   4.386   8.363   7.596
26352SOL    HW281064   4.460   8.440   7.489
26353SOL     OW81065   9.149   8.497   1.019
26353SOL    HW181066   9.082   8.438  -9.988
26353SOL    HW281067   9.182  19.494   0.940
26354SOL     OW81068   7.618   4.475   8.909
26354SOL    HW181069 -36.528 -17.598  -2.225
26354SOL    HW281070   7.696   4.428   8.940
26355SOL     OW81071  11.023   7.593   5.636
26355SOL    HW181072  11.031  -3.480 -16.532
26355SOL    HW281073  11.112   7.619   5.659
26356SOL     OW81074   7.873   1.125   9.232
26356SOL    HW181075   7.816   1.076   9.291
26356SOL    HW281076  18.996   1.130   9.278
26357SOL     OW81077   1.819   1.473  10.060
26357SOL    HW181078   1.808  -9.520   9.977
26357SOL    HW281079   1.828   1.543  21.165
26358SOL     OW81080   9.781  11.285   5.983
26358SOL    HW181081   9.790   0.173   5.922
26358SOL    HW281082   9.738  11.247   6.060
26359SOL     OW81083   6.522   7.831  10.809
26359SOL    HW181084   6.593  18.808 -22.301
26359SOL    HW281085   6.452   7.796  10.864
26360SOL     OW81086   9.366  11.445  10.059
26360SOL    HW181087   9.370   0.414   9.964
26360SOL    HW281088  20.451 -32.635  10.092
26361SOL     OW81089   3.494   5.537   9.018
26361SOL    HW181090   3.448   5.601   8.962
26361SOL    HW281091   3.492  16.616   9.105
26362SOL     OW81092   5.379   8.771   8.991
26362SOL    HW181093  27.460   8.677   9.007
26362SOL    HW281094   5.464   8.802   9.022
26363SOL     OW81095   8.079   5.502   2.648
26363SOL    HW181096   7.990   5.478  -8.364
26363SOL    HW281097   8.135   5.463   2.715
26364SOL     OW81098   8.047   2.088   4.824
26364SOL    HW181099   7.988   2.029   4.778
26364SOL    HW281100   8.004  -8.932   4.907
26365SOL     OW81101   5.576   6.090   9.131
26365SOL    HW181102  16.550   6.113   9.065
26365SOL    HW281103   5.582   5.994   9.125
26366SOL     OW81104   7.217   9.660   9.040
26366SOL    HW181105  18.256   9.738   9.095
26366SOL    HW281106   7.173  20.726  -2.080
26367SOL     OW81107   7.943   3.109   5.584
26367SOL    HW181108   7.963  14.055   5.586
26367SOL    HW281109   7.991 -41.015  16.549
26368SOL     OW81110  11.247   2.753  10.049
26368SOL    HW181111   0.256   2.811   9.991
26368SOL    HW281112  11.306  13.719  10.065
26369SOL     OW81113   0.625   2.712   8.578
26369SOL    HW181114  11.760   2.707   8.586
26369SOL    HW281115   0.594   2.710  41.787
26370SOL     OW81116   1.719   9.550   7.635
26370SOL    HW181117   1.783  -1.531   7.692
26370SOL    HW281118  12.675   9.510   7.661
26371SOL     OW81119   4.277   6.360   0.565
26371SOL    HW181120  15.276   6.398   0.643
26371SOL    HW281121   4.216   6.293  33.654
26372SOL     OW81122  10.563   2.122   5.830
26372SOL    HW181123  10.654   2.148  16.856
26372SOL    HW281124  10.521   2.139   5.745
26373SOL     OW81125   2.603   7.504   5.124
26373SOL    HW181126   2.691   7.538  -5.903
26373SOL    HW281127   2.552  18.580  16.236
26374SOL     OW81128   1.289   8.578   2.929
26374SOL    HW181129   1.303   8.657   2.877
26374SOL    HW281130   1.231   8.606  25.079
26375SOL     OW81131   3.316   4.009   1.515
26375SOL    HW181132   3.321   3.968  12.640
26375SOL    HW281133   3.334   4.101  -9.509
26376SOL     OW81134   6.528   3.087   6.192
26376SOL    HW181135   6.607 -30.006   6.239
26376SOL    HW281136   6.464   3.067   6.260
26377SOL     OW81137   8.732   4.225   8.476
26377SOL    HW181138   8.789   4.177   8.416
26377SOL    HW281139  19.743   4.302   8.426
26378SOL     OW81140   5.529   0.608   5.383
26378SOL    HW181141   5.568   0.634   5.300
26378SOL    HW281142   5.595   0.552 -16.655
26379SOL     OW81143   2.929   5.716   8.014
26379SOL    HW181144   2.961   5.800   8.048
26379SOL    HW281145 -19.217   5.740   7.950
26380SOL     OW81146   6.498   4.158   0.555
26380SOL    HW181147 -26.700   4.161   0.502
26380SOL    HW281148   6.560 -17.971   0.501
26381SOL     OW81149   5.822   5.623   1.210
26381SOL    HW181150   5.834   5.537   1.172
26381SOL    HW281151   5.742   5.616  -9.777
26382SOL     OW81152   4.228   6.041   1.535
26382SOL    HW181153   4.291   6.051  23.685
26382SOL    HW281154   4.158  17.143  12.595
26383SOL     OW81155   6.030   5.739   2.213
26383SOL    HW181156   6.012  16.698   2.163
26383SOL    HW281157   5.964   5.801   2.181
26384SOL     OW81158   7.920   5.759  -0.372
26384SOL    HW181159   7.944   5.667  -0.375
26384SOL    HW281160  41.041   5.788  10.576
26385SOL     OW81161   5.971  10.052   2.267
26385SOL    HW181162 -27.222  21.038  13.279
26385SOL    HW281163   6.016   9.998   2.332
26386SOL     OW81164   8.238   2.944   2.557
26386SOL    HW181165   8.262   2.853   2.541
26386SOL    HW281166  19.188   2.940 -19.490
26387SOL     OW81167   0.291   1.589  -0.002
26387SOL    HW181168   0.296   1.497  -0.030
26387SOL    HW281169  22.398   1.639  22.001
26388SOL     OW81170   3.495   5.066  10.106
26388SOL    HW181171  -7.595   4.988  21.167
26388SOL    HW281172  14.483   5.139  10.139
26389SOL     OW81173   3.451   2.726   9.173
26389SOL    HW181174   3.427   2.693  20.299
26389SOL    HW281175   3.367  24.815   9.127
26390SOL     OW81176   2.961   0.342   9.829
26390SOL    HW181177  -8.031  11.320   9.775
26390SOL    HW281178   2.870   0.332   9.803
26391SOL     OW81179   0.597   4.065  -1.823
26391SOL    HW181180  11.565   4.002  42.326
26391SOL    HW281181   0.595   4.116   9.136
26392SOL     OW81182   6.791   6.333   5.126
26392SOL    HW181183   6.825  17.326   5.203
26392SOL    HW281184   6.859  -4.718  16.099
26393SOL     OW81185   7.396   4.170   6.826
26393SOL    HW181186  -3.623   4.104  -4.279
26393SOL    HW281187   7.462  15.197   6.894
26394SOL     OW81188   2.659   2.940   8.164
26394SOL    HW181189   2.615   2.887   8.097
26394SOL    HW281190   2.738   2.891 -13.893
26395SOL     OW81191  10.157   1.282   9.972
26395SOL    HW181192  21.246   1.330  20.945
26395SOL    HW281193  10.076   1.332   9.982
26396SOL     OW81194   0.782   2.386   4.729
26396SOL    HW181195   0.820 -30.647  -6.290
26396SOL    HW281196 -10.258   2.382   4.634
26397SOL     OW81197   0.476  -2.048   8.067
26397SOL    HW181198   0.420  -1.976   8.038
26397SOL    HW281199  11.553  42.141   8.149
26398SOL     OW81200   2.330   6.217   3.731
26398SOL    HW181201   2.369 -26.823 -18.312
26398SOL    HW281202   2.245  -4.830   3.774
26399SOL     OW81203   4.614  10.137  -2.463
26399SOL    HW181204  -6.453  10.218  -2.420
26399SOL    HW281205   4.532  10.088  41.683
26400SOL     OW81206   1.059   4.842   8.288
26400SOL    HW181207  34.114  15.954   8.289
26400SOL    HW281208   1.034   4.787   8.362
26401SOL     OW81209   2.021  10.169   6.942
26401SOL    HW181210   1.988  10.117   6.869
26401SOL    HW281211   2.042  -0.935   7.010
26402SOL     OW81212   2.729   1.705   9.649
26402SOL    HW181213   2.740   1.792  31.691
26402SOL    HW281214  24.715   1.686   9.641
26403SOL     OW81215   4.589  10.421   5.582
26403SOL    HW181216   4.572  -0.708   5.610
26403SOL    HW281217  37.753  10.461  -5.383
26404SOL     OW81218   0.022   8.317   2.310
26404SOL    HW181219  -0.047   8.348  24.331
26404SOL    HW281220   0.049   8.395   2.359
26405SOL     OW81221  10.370   7.002   6.946
26405SOL    HW181222  10.433   6.961   6.887
26405SOL    HW281223  10.329   7.070   6.893
26406SOL     OW81224   4.427   5.916   3.656
26406SOL    HW181225  15.512  -5.047  14.732
26406SOL    HW281226   4.461   5.907   3.567
26407SOL     OW81227   0.763   0.517   0.932
26407SOL    HW181228   0.670  11.562   0.909
26407SOL    HW281229   0.783   0.602  12.011
26408SOL     OW81230  10.232  11.341   0.198
26408SOL    HW181231  10.230   0.209   0.173
26408SOL    HW281232  10.316  11.373   0.167
26409SOL     OW81233   8.166   5.986   4.596
26409SOL    HW181234   8.194   6.055   4.657
26409SOL    HW281235   8.079 -16.118  -6.414
26410SOL     OW81236  10.903   1.517  10.378
26410SOL    HW181237  10.894   1.536 -11.607
26410SOL    HW281238  10.846   1.581  21.375
26411SOL     OW81239   7.273   5.102   2.750
26411SOL    HW181240   7.208  16.209   2.733
26411SOL    HW281241   7.238  16.063   2.709
26412SOL     OW81242   5.776  10.561  -0.507
26412SOL    HW181243  -5.185  10.608  10.506
26412SOL    HW281244   5.707  10.628  -0.506
26413SOL     OW81245   6.181   8.370   2.213
26413SOL    HW181246   6.187 -13.756   2.129
26413SOL    HW281247  17.206   8.301   2.278
26414SOL     OW81248   8.596   8.133   9.690
26414SOL    HW181249   8.526  19.231   9.661
26414SOL    HW281250   8.675   8.187   9.685
26415SOL     OW81251   7.378   5.567   1.060
26415SOL    HW181252  18.496   5.604   1.021
26415SOL    HW281253   7.342  -5.402   1.114
26416SOL     OW81254   5.721   6.623   5.707
26416SOL    HW181255   5.647   6.591   5.759
26416SOL    HW281256   5.727   6.716   5.729
26417SOL     OW81257   0.974   2.571   9.621
26417SOL    HW181258   0.983  24.632   9.715
26417SOL    HW281259   0.949   2.663   9.617
26418SOL     OW81260   5.191   6.925   2.026
26418SOL    HW181261  27.187  40.058  13.110
26418SOL    HW281262   5.220   6.839   2.057
26419SOL     OW81263   7.056  -1.783   7.657
26419SOL    HW181264   7.054  -1.775   7.753
26419SOL    HW281265   7.091  31.420   7.627
26420SOL     OW81266   3.101   9.416   3.513
26420SOL    HW181267   3.115   9.356 -18.492
26420SOL    HW281268   3.139   9.499  14.582
26421SOL     OW81269   9.183  10.733   8.549
26421SOL    HW181270   9.173  21.715  19.512
26421SOL    HW281271   9.150  -0.222  -2.521
26422SOL     OW81272  10.293   9.582   5.424
26422SOL    HW181273  10.385   9.556   5.421
26422SOL    HW281274  10.292  -1.377   5.477
26423SOL     OW81275   4.748   0.939   1.389
26423SOL    HW181276   4.760  11.923   1.311
26423SOL    HW281277   4.831   0.986  23.477
26424SOL     OW81278   3.006   3.972   4.815
26424SOL    HW181279  -8.095  -7.028   4.877
26424SOL    HW281280  14.122  15.069  15.856
26425SOL     OW81281   7.771   3.401   6.525
26425SOL    HW181282  -3.275   3.312   6.559
26425SOL    HW281283 -25.356   3.392   6.430
26426SOL     OW81284   3.482   1.559   6.979
26426SOL    HW181285  14.565   1.474  18.017
26426SOL    HW281286   3.512   1.600   7.061
26427SOL     OW81287   7.513   6.218   8.923
26427SOL    HW181288   7.444   6.174  30.952
26427SOL    HW281289  -3.499   6.290  19.906
26428SOL     OW81290   9.294   7.853   7.356
26428SOL    HW181291   9.268   7.945   7.354
26428SOL    HW281292   9.358   7.845   7.286
26429SOL     OW81293   7.712   6.459  10.493
26429SOL    HW181294  -3.299   6.368  10.495
26429SOL    HW281295   7.722   6.489  -0.457
26430SOL     OW81296   8.396   3.215   8.371
26430SOL    HW181297  -2.688  -7.769  19.474
26430SOL    HW281298   8.464   3.271  41.452
26431SOL     OW81299   9.673  10.572   3.798
26431SOL    HW181300   9.637  10.653   3.833
26431SOL    HW281301   9.737  10.544   3.864
26432SOL     OW81302  -3.045   1.454   4.579
26432SOL    HW181303  41.117  -9.667   4.630
26432SOL    HW281304   7.906   1.456   4.544
26433SOL     OW81305  11.175   3.641   4.782
26433SOL    HW181306   0.131   3.735   4.763
26433SOL    HW281307  11.267  14.665  -6.236
26434SOL     OW81308   7.634   1.514  10.287
26434SOL    HW181309   7.548  34.593  10.278
26434SOL    HW281310   7.628   1.597  10.240
26435SOL     OW81311  10.598   0.733   8.984
26435SOL    HW181312  -0.482  44.947  -1.989
26435SOL    HW281313  21.726   0.769   8.973
26436SOL     OW81314  -0.509   5.713   1.502
26436SOL    HW181315  10.440   5.700 -20.552
26436SOL    HW281316  -0.463   5.730   1.584
26437SOL     OW81317   7.257   3.042   1.003
26437SOL    HW181318  18.274   3.064   0.912
26437SOL    HW281319  29.253   3.015   1.042
26438SOL     OW81320   0.076   1.223   4.936
26438SOL    HW181321   0.099   1.145  16.027
26438SOL    HW281322   0.096  -9.840   4.846
26439SOL     OW81323   3.256   4.932   5.989
26439SOL    HW181324  -7.858   4.992   6.002
26439SOL    HW281325   3.252  -6.166   6.065
26440SOL     OW81326   2.186   3.502  10.957
26440SOL    HW181327   2.158  14.633  10.953
26440SOL    HW281328   2.112   3.456  10.995
26441SOL     OW81329   9.451   4.460   1.721
26441SOL    HW181330   9.517   4.410   1.672
26441SOL    HW281331  -1.626  15.436  -9.257
26442SOL     OW81332   3.558   9.696   7.129
26442SOL    HW181333   3.614  -1.309   7.198
26442SOL    HW281334   3.608   9.625  29.169
26443SOL     OW81335  -2.089   2.983   7.062
26443SOL    HW181336  31.074   2.978   6.977
26443SOL    HW281337  19.991   2.893   7.095
26444SOL     OW81338   9.647  10.127   6.915
26444SOL    HW181339 -12.390  10.167   6.838
26444SOL    HW281340   9.598  10.199   6.956
26445SOL     OW81341   9.888   2.220   8.730
26445SOL    HW181342   9.857   2.152  19.830
26445SOL    HW281343  -1.062  13.233   8.708
26446SOL     OW81344   1.886   6.925   8.405
26446SOL    HW181345   1.971   6.892   8.435
26446SOL    HW281346   1.899  -4.094   8.313
26447SOL     OW81347   3.039   2.678   3.205
26447SOL    HW181348   3.080  13.708   3.119
26447SOL    HW281349   3.021   2.588   3.234
26448SOL     OW81350   2.682   4.427   4.365
26448SOL    HW181351   2.592   4.441   4.335
26448SOL    HW281352   2.675  -6.685  26.506
26449SOL     OW81353   6.740   0.355   8.599
26449SOL    HW181354   6.813   0.295   8.585
26449SOL    HW281355   6.712   0.338  -2.351
26450SOL     OW81356   7.440   5.716   1.666
26450SOL    HW181357   7.499   5.689   1.596
26450SOL    HW281358   7.486   5.692   1.747
26451SOL     OW81359   2.771  -0.857  10.798
26451SOL    HW181360   2.848  32.208  10.813
26451SOL    HW281361  24.852  -0.792  10.868
26452SOL     OW81362   6.746   7.675  10.774
26452SOL    HW181363  17.758   7.586  10.797
26452SOL    HW281364  17.792   7.674  -0.361
26453SOL     OW81365   6.562   1.827   1.957
26453SOL    HW181366  -4.515   1.798  24.119
26453SOL    HW281367  -4.484   1.751   1.900
26454SOL     OW81368   8.010   0.191   9.703
26454SOL    HW181369   8.026   0.175   9.611
26454SOL    HW281370   8.029   0.284   9.715
26455SOL     OW81371   2.789   6.176   6.275
26455SOL    HW181372  13.739   6.167   6.308
26455SOL    HW281373   2.814  28.167  17.288
26456SOL     OW81374   7.171  12.739   6.825
26456SOL    HW181375   7.188 -20.428 -15.336
26456SOL    HW281376   7.081   1.730  -4.224
26457SOL     OW81377   5.504   4.111   7.409
26457SOL    HW181378   5.498   4.183  29.551
26457SOL    HW281379 -38.720   4.048   7.438
26458SOL     OW81380   0.272   6.653  -1.329
26458SOL    HW181381   0.366   6.640  31.798
26458SOL    HW281382   0.240   6.653  20.840
26459SOL     OW81383   3.551  10.501   3.487
26459SOL    HW181384   3.578  10.458   3.568
26459SOL    HW281385   3.566  10.437   3.418
26460SOL     OW81386   1.371  -0.015   6.591
26460SOL    HW181387   1.399  -0.030   6.681
26460SOL    HW281388   1.283  22.025   6.586
26461SOL     OW81389   5.651   0.427   4.261
26461SOL    HW181390 -16.337  11.476   4.288
26461SOL    HW281391   5.640  55.532  -6.796
26462SOL     OW81392   6.144   6.812  12.984
26462SOL    HW181393   6.240   6.818  12.978
26462SOL    HW281394   6.117   6.896 -31.138
26463SOL     OW81395   2.940   4.003   8.772
26463SOL    HW181396   2.962   3.991  30.943
26463SOL    HW281397   2.959  -7.122  19.772
26464SOL     OW81398   5.802   2.095   0.368
26464SOL    HW181399   5.711   2.078  22.468
26464SOL    HW281400  16.885   2.010  11.415
26465SOL     OW81401   2.169   8.063   3.782
26465SOL    HW181402  -8.953   8.055  47.988
26465SOL    HW281403   2.143  -2.961   3.691
26466SOL     OW81404  12.077   1.296   2.901
26466SOL    HW181405  23.076  -9.680 -19.119
26466SOL    HW281406 -43.119   1.214  -8.088
26467SOL     OW81407   8.767   9.802   2.810
26467SOL    HW181408   8.739   9.793   2.901
26467SOL    HW281409   8.844   9.858   2.815
26468SOL     OW81410   6.175   8.010   1.643
26468SOL    HW181411   6.206   8.040   1.728
26468SOL    HW281412  -4.909   7.927   1.661
26469SOL     OW81413   4.141   8.962   1.663
26469SOL    HW181414   4.202   8.974   1.590
26469SOL    HW281415   4.174   8.885   1.709
26470SOL     OW81416   9.064   1.653   6.926
26470SOL    HW181417  -1.894   1.698  17.987
26470SOL    HW281418   9.037   1.692   6.842
26471SOL     OW81419   9.019  10.419   2.351
26471SOL    HW181420  20.128  10.484   2.362
26471SOL    HW281421   8.966  10.453   2.280
26472SOL     OW81422   7.137   1.520   1.816
26472SOL    HW181423   7.161 -20.583   1.726
26472SOL    HW281424   7.061   1.466   1.836
26473SOL     OW81425   5.716   8.535   3.419
26473SOL    HW181426   5.777 -13.483   3.377
26473SOL    HW281427   5.634   8.546   3.369
26474SOL     OW81428   2.203  10.372  10.640
26474SOL    HW181429   2.297  -0.685  10.632
26474SOL    HW281430 -19.881  21.499  10.679
26475SOL     OW81431   2.752   2.037   8.595
26475SOL    HW181432  24.886   2.116   8.596
26475SOL    HW281433  35.881  -9.038   8.507
26476SOL     OW81434   8.728   6.843   9.382
26476SOL    HW181435  19.809  28.870   9.451
26476SOL    HW281436   8.727  17.826  20.345
26477SOL     OW81437   6.841   3.091   6.736
26477SOL    HW181438   6.769  25.212   6.783
26477SOL    HW281439  17.868   3.117   6.645
26478SOL     OW81440   8.182   6.691   3.728
26478SOL    HW181441   8.140  17.798   3.781
26478SOL    HW281442   8.115  -4.417   3.719
26479SOL     OW81443   1.453   9.842   5.187
26479SOL    HW181444   1.467 -23.264  -5.946
26479SOL    HW281445   1.452   9.747   5.199
26480SOL     OW81446   3.769   4.679   2.929
26480SOL    HW181447   3.759  15.697   2.837
26480SOL    HW281448   3.728   4.765   2.938
26481SOL     OW81449   8.855  -0.292   9.759
26481SOL    HW181450   8.856  10.683  -1.351
26481SOL    HW281451   8.906  -0.333   9.829
26482SOL     OW81452  10.038  10.059   1.181
26482SOL    HW181453  10.000  21.151   1.251
26482SOL    HW281454  21.003  10.038   1.124
26483SOL     OW81455   0.784  11.278   6.907
26483SOL    HW181456   0.719   0.257  28.918
26483SOL    HW281457   0.846  11.351   6.901
26484SOL     OW81458   6.388   0.411   2.631
26484SOL    HW181459   6.335   0.452  13.739
26484SOL    HW281460   6.469   0.462  13.670
26485SOL     OW81461  11.054   6.507   2.411
26485SOL    HW181462 -11.002  -4.454   2.361
26485SOL    HW281463  11.137  -4.579  13.461
26486SOL     OW81464   4.692   7.681   2.328
26486SOL    HW181465   4.686   7.667  35.352
26486SOL    HW281466  -6.437  -3.372   2.359
26487SOL     OW81467  12.313   8.819   1.819
26487SOL    HW181468 -20.835   8.908 -20.279
26487SOL    HW281469  12.401   8.829   1.854
26488SOL     OW81470   6.730   2.292   5.753
26488SOL    HW181471   6.701   2.299   5.844
26488SOL    HW281472  -4.347   2.210   5.722
26489SOL     OW81473  10.725   8.655   0.643
26489SOL    HW181474  10.769   8.570   0.636
26489SOL    HW281475  10.758   8.705   0.569
26490SOL     OW81476   4.772   9.170   3.812
26490SOL    HW181477   4.716  -1.910 -29.374
26490SOL    HW281478   4.836   9.103  14.873
26491SOL     OW81479   2.743   8.689   4.129
26491SOL    HW181480   2.743  -2.330   4.223
26491SOL    HW281481   2.669  -2.301   4.093
26492SOL     OW81482  12.623   7.469  10.575
26492SOL    HW181483  12.695   7.446  10.515
26492SOL    HW281484 -20.515   7.560  10.556
26493SOL     OW81485   6.310   8.149   6.935
26493SOL    HW181486   6.294   8.135   6.841
26493SOL    HW281487   6.404   8.136   6.945
26494SOL     OW81488   1.615   4.113  -0.315
26494SOL    HW181489   1.544   4.058  10.692
26494SOL    HW281490   1.603   4.197  21.719
26495SOL     OW81491   5.586   8.964   5.920
26495SOL    HW181492   5.622   8.933   6.003
26495SOL    HW281493   5.491  19.990  -5.111
26496SOL     OW81494   3.861   9.042   3.957
26496SOL    HW181495  14.870   9.035   3.866
26496SOL    HW281496  14.915  31.215   3.970
26497SOL     OW81497   4.405  10.332   2.363
26497SOL    HW181498 -17.768  10.312  -8.672
26497SOL    HW281499   4.408  10.426   2.346
26498SOL     OW81500   4.257   4.156   0.391
26498SOL    HW181501   4.204   4.216   0.442
26498SOL    HW281502   4.260  -6.844  11.343
26499SOL     OW81503   1.534  10.051   8.228
26499SOL    HW181504   1.499 -23.147  19.227
26499SOL    HW281505   1.459  10.108   8.238
26500SOL     OW81506   5.052   1.632   3.292
26500SOL    HW181507   5.118   1.591   3.236
26500SOL    HW281508  16.034   1.678   3.231
26501SOL     OW81509   3.406  10.004  10.387
26501SOL    HW181510   3.311  10.008  21.426
26501SOL    HW281511   3.427   9.924  10.435
26502SOL     OW81512   1.734   8.625   6.411
26502SOL    HW181513   1.771 -13.367 -15.682
26502SOL    HW281514   1.798  19.605   6.373
26503SOL     OW81515   3.454   8.865   7.396
26503SOL    HW181516  36.605  42.055   7.341
26503SOL    HW281517   3.500  -2.253  18.404
26504SOL     OW81518   9.260  10.577   5.677
26504SOL    HW181519   9.222  10.654   5.636
26504SOL    HW281520   9.212  10.566  16.798
26505SOL     OW81521   3.475   1.930   2.171
26505SOL    HW181522   3.527   2.001  13.173
26505SOL    HW281523  -7.510   1.852  24.240
26506SOL     OW81524  10.564   0.025   6.684
26506SOL    HW181525  10.519   0.093   6.735
26506SOL    HW281526  10.542   0.045   6.593
26507SOL     OW81527   6.781   6.039   0.683
26507SOL    HW181528   6.792 -15.946   0.674
26507SOL    HW281529   6.764 -16.072  22.674
26508SOL     OW81530   2.115   6.242   9.666
26508SOL    HW181531 -19.983   6.187  20.782
26508SOL    HW281532   2.029  -4.773   9.632
26509SOL     OW81533   8.705  13.290   8.835
26509SOL    HW181534   8.704  -8.820  30.824
26509SOL    HW281535   8.791 -19.853  19.908
26510SOL     OW81536  -0.840   6.188   2.338
26510SOL    HW181537  -0.847 -15.956   2.268
26510SOL    HW281538  21.302   6.252   2.306
26511SOL     OW81539   2.474   4.846   7.084
26511SOL    HW181540   2.472   4.865   7.178
26511SOL    HW281541  24.461   4.847   7.057
26512SOL     OW81542   2.847   1.149   7.281
26512SOL    HW181543   2.929   1.160 -14.750
26512SOL    HW281544   2.846   1.222  -3.821
26513SOL     OW81545   2.836   8.002   7.769
26513SOL    HW181546  24.940  -2.948   7.790
26513SOL    HW281547   2.846  -3.044  -3.366
26514SOL     OW81548   6.579   5.366   1.572
26514SOL    HW181549 -15.550  -5.593  -9.480
26514SOL    HW281550   6.649   5.371   1.506
26515SOL     OW81551   1.111   7.838  10.215
26515SOL    HW181552  12.079   7.776  10.204
26515SOL    HW281553 -21.007 -14.167  10.261
26516SOL     OW81554   1.334   7.296   6.737
26516SOL    HW181555   1.424  -3.774  17.775
26516SOL    HW281556   1.295  -3.787   6.812
26517SOL     OW81557   4.988   4.809   7.136
26517SOL    HW181558  -6.084   4.721  29.231
26517SOL    HW281559   5.083   4.800  18.172
26518SOL     OW81560   0.187   7.783  10.464
26518SOL    HW181561  33.231   7.800 -11.559
26518SOL    HW281562   0.174   7.693  10.433
26519SOL     OW81563   5.019   7.579   6.698
26519SOL    HW181564   4.962   7.592   6.622
26519SOL    HW281565  27.179   7.542   6.661
26520SOL     OW81566  12.306   1.421   1.438
26520SOL    HW181567   1.344  -9.640   1.490
26520SOL    HW281568  -9.839   1.447   1.503
26521SOL     OW81569   4.746  -0.013   5.112
26521SOL    HW181570   4.720  10.953   5.057
26521SOL    HW281571   4.684  -0.015  16.225
26522SOL     OW81572   4.627   1.876   7.062
26522SOL    HW181573   4.635   1.785   7.091
26522SOL    HW281574   4.536   1.884  -4.004
26523SOL     OW81575   4.631   2.898   7.458
26523SOL    HW181576   4.695   2.848  29.487
26523SOL    HW281577   4.552   2.896   7.404
26524SOL     OW81578  10.934   5.121   5.314
26524SOL    HW181579  10.997 -17.002  16.295
26524SOL    HW281580  10.849  16.128   5.286
26525SOL     OW81581  -0.120   7.658   1.907
26525SOL    HW181582  -0.108  40.861   1.863
26525SOL    HW281583  22.036  18.689   1.964
26526SOL     OW81584   7.385  11.461   3.703
26526SOL    HW181585   7.391  11.420 -18.289
26526SOL    HW281586  18.348   0.380   3.663
26527SOL     OW81587   4.997   4.577  10.124
26527SOL    HW181588   5.008   4.585  21.258
26527SOL    HW281589   5.028  -6.379  10.089
26528SOL     OW81590   2.356   9.214  10.815
26528SOL    HW181591  13.486   9.216  10.785
26528SOL    HW281592  -8.736  20.250  -0.304
26529SOL     OW81593   7.899   8.785   0.382
26529SOL    HW181594  41.088   8.779   0.317
26529SOL    HW281595  -3.145   8.878  11.444
26530SOL     OW81596  -0.350  10.367   2.132
26530SOL    HW181597  -0.295  10.444  -8.918
26530SOL    HW281598  21.700  10.345  13.083
26531SOL     OW81599   7.171   0.204   1.626
26531SOL    HW181600   7.255   0.230 -20.417
26531SOL    HW281601   7.161  11.152   1.651
26532SOL     OW81602   4.943   1.289   0.150
26532SOL    HW181603   4.953   1.316 -10.799
26532SOL    HW281604   4.942   1.193  22.232
26533SOL     OW81605  10.170   3.949   6.933
26533SOL    HW181606  -0.774  26.017 -48.271
26533SOL    HW281607  10.155  26.117   6.900
26534SOL     OW81608   4.016   6.570   4.124
26534SOL    HW181609   4.055   6.484   4.142
26534SOL    HW281610  37.165  -4.414  15.235
26535SOL     OW81611   5.052   5.589   0.508
26535SOL    HW181612  -5.903 -16.531   0.526
26535SOL    HW281613 -28.052   5.642   0.430
26536SOL     OW81614   0.922   5.397   1.431
26536SOL    HW181615   0.913   5.356   1.345
26536SOL    HW281616   0.921   5.325   1.493
26537SOL     OW81617   3.768   2.404   6.631
26537SOL    HW181618 -18.367   2.427  -4.335
26537SOL    HW281619   3.773   2.308   6.633
26538SOL     OW81620   7.998   7.232   3.733
26538SOL    HW181621  19.099   7.255   3.802
26538SOL    HW281622   8.028   7.281 -18.422
26539SOL     OW81623   8.812   7.990   4.540
26539SOL    HW181624   8.774  18.957   4.590
26539SOL    HW281625 -24.255  41.066   4.471
26540SOL     OW81626   6.951   3.016   2.938
26540SOL    HW181627  18.035   3.026   2.853
26540SOL    HW281628   6.871  -8.071   2.918
26541SOL     OW81629   2.126   3.603   0.222
26541SOL    HW181630   2.207   3.552   0.224
26541SOL    HW281631   2.155   3.693   0.209
26542SOL     OW81632   8.794   4.496   8.019
26542SOL    HW181633   8.839   4.580   8.022
26542SOL    HW281634   8.853   4.435  41.182
26543SOL     OW81635   8.874   7.139   2.372
26543SOL    HW181636   8.789   7.098   2.360
26543SOL    HW281637   8.920   7.125   2.289
26544SOL     OW81638   2.475   9.330   4.686
26544SOL    HW181639   2.525   9.412  -6.359
26544SOL    HW281640  -8.623 -12.736  -6.278
26545SOL     OW81641  11.435   3.619   7.781
26545SOL    HW181642  11.435  36.812  -3.197
26545SOL    HW281643   0.314   3.573  -3.240
26546SOL     OW81644   4.120  10.471   3.009
26546SOL    HW181645  -7.010  10.482  14.019
26546SOL    HW281646  -6.885  10.560   3.017
26547SOL     OW81647   6.507   3.444   9.026
26547SOL    HW181648 -15.561   3.419   9.117
26547SOL    HW281649   6.592 -29.640   8.999
26548SOL     OW81650   0.034   5.959   8.749
26548SOL    HW181651  10.984   5.971  -2.321
26548SOL    HW281652   0.050  16.904   8.742
26549SOL     OW81653   4.198  -0.075  -0.147
26549SOL    HW181654  15.254  -0.136  10.965
26549SOL    HW281655   4.256  22.079  -0.129
26550SOL     OW81656   5.361  -1.000   3.216
26550SOL    HW181657   5.367  21.137   3.292
26550SOL    HW281658   5.389  -0.946  -7.897
26551SOL     OW81659   8.946   2.831   1.873
26551SOL    HW181660   8.958   2.736   1.878
26551SOL    HW281661   8.851  -8.196   1.871
26552SOL     OW81662   3.331   8.737   2.235
26552SOL    HW181663   3.266   8.786   2.285
26552SOL    HW281664   3.289   8.653   2.218
26553SOL     OW81665   7.879   7.501   6.237
26553SOL    HW181666 -14.248   7.580  -4.827
26553SOL    HW281667  -3.188   7.435   6.173
26554SOL     OW81668   1.748   9.696   2.834
26554SOL    HW181669  12.696   9.719  13.890
26554SOL    HW281670   1.774  -1.393   2.912
26555SOL     OW81671  10.875   8.677   3.209
26555SOL    HW181672  10.881  19.643  -7.768
26555SOL    HW281673  10.966  19.744   3.196
26556SOL     OW81674  10.313   2.122   0.057
26556SOL    HW181675  21.322 -31.072   0.107
26556SOL    HW281676  10.406   2.106   0.043
26557SOL     OW81677  10.350   8.310   7.670
26557SOL    HW181678  10.394 -13.806   7.747
26557SOL    HW281679  10.258 -13.766   7.694
26558SOL     OW81680  -0.141   2.177   5.364
26558SOL    HW181681  -0.220   2.151   5.315
26558SOL    HW281682  21.913   2.258   5.409
26559SOL     OW81683   8.218   9.802   3.666
26559SOL    HW181684   8.124   9.817  25.731
26559SOL    HW281685   8.260   9.833   3.586
26560SOL     OW81686   0.778   1.031   1.845
26560SOL    HW181687   0.856   1.078  12.856
26560SOL    HW281688   0.715   1.041   1.774
26561SOL     OW81689   8.290   2.599   0.201
26561SOL    HW181690   8.315  24.629   0.279
26561SOL    HW281691   8.262   2.684   0.235
26562SOL     OW81692  10.474  -0.376   7.495
26562SOL    HW181693  10.511  10.672   7.407
26562SOL    HW281694  10.397  -0.432   7.484
26563SOL     OW81695   9.343   2.627   6.330
26563SOL    HW181696  20.453   2.620   6.395
26563SOL    HW281697  20.312  24.653 -48.831
26564SOL     OW81698   0.194  -0.543   5.388
26564SOL    HW181699   0.133  -0.537   5.314
26564SOL    HW281700   0.280  10.513  -5.691
26565SOL     OW81701   5.287   7.724   5.579
26565SOL    HW181702   5.370   7.755   5.541
26565SOL    HW281703  27.328  18.842   5.618
26566SOL     OW81704   7.754   3.409   9.639
26566SOL    HW181705   7.716   3.324  20.659
26566SOL    HW281706   7.832   3.389   9.691
26567SOL     OW81707  10.452   1.090   2.169
26567SOL    HW181708  -0.557  23.117   2.244
26567SOL    HW281709  10.470   1.181 -30.924
26568SOL     OW81710  10.110   4.071   7.742
26568SOL    HW181711  10.102   4.109  -3.386
26568SOL    HW281712  10.031 -51.096   7.787
26569SOL     OW81713   5.190   0.979   3.403
26569SOL    HW181714   5.258 -10.121 -18.647
26569SOL    HW281715   5.232  23.110   3.335
26570SOL     OW81716   9.588   2.425  11.225
26570SOL    HW181717   9.560   2.476   0.262
26570SOL    HW281718   9.657   2.477  11.186
26571SOL     OW81719   0.879  10.966   6.495
26571SOL    HW181720   0.974  10.961  28.563
26571SOL    HW281721   0.862  10.916   6.575
26572SOL     OW81722   8.198   0.168   6.418
26572SOL    HW181723   8.259  11.281   6.417
26572SOL    HW281724 -13.929  11.217   6.500
26573SOL     OW81725   9.882   1.353   7.263
26573SOL    HW181726   9.909  -9.764   7.214
26573SOL    HW281727   9.937   1.353   7.341
26574SOL     OW81728  10.109   2.037   3.223
26574SOL    HW181729  -0.872   2.061   3.151
26574SOL    HW281730  10.165  24.071  14.325
26575SOL     OW81731   8.667  10.291   1.320
26575SOL    HW181732  30.654  10.317   1.310
26575SOL    HW281733  -2.335  10.305   1.233
26576SOL     OW81734   9.915   5.865   6.118
26576SOL    HW181735   9.946   5.936   6.174
26576SOL    HW281736   9.826   5.892   6.093
26577SOL     OW81737   3.059   2.440   9.485
26577SOL    HW181738   3.081   2.458  20.433
26577SOL    HW281739  25.221  -8.593   9.531
26578SOL     OW81740  10.978  11.001   9.899
26578SOL    HW181741  11.072  10.993   9.884
26578SOL    HW281742  10.962  11.095   9.899
26579SOL     OW81743   3.038   7.786   2.736
26579SOL    HW181744 -30.057 -14.201   2.744
26579SOL    HW281745   2.948  18.828   2.702
26580SOL     OW81746   4.213   5.631   3.480
26580SOL    HW181747  15.186   5.568   3.505
26580SOL    HW281748 -28.838   5.624   3.548
26581SOL     OW81749   1.266   2.763   0.045
26581SOL    HW181750   1.315   2.682   0.061
26581SOL    HW281751   1.193   2.759  11.147
26582SOL     OW81752   4.742   7.070   9.049
26582SOL    HW181753   4.760  29.118   8.960
26582SOL    HW281754  15.701   7.121   9.041
26583SOL     OW81755   6.780   2.712   1.085
26583SOL    HW181756  17.828 -19.461  12.142
26583SOL    HW281757  -4.181   2.734  23.113
26584SOL     OW81758   4.011   1.944   4.945
26584SOL    HW181759   4.087   1.984  16.028
26584SOL    HW281760  -7.022  -9.066   4.854
26585SOL     OW81761   2.211   1.370   0.984
26585SOL    HW181762   2.160   1.303 -10.101
26585SOL    HW281763   2.279   1.321   1.030
26586SOL     OW81764   2.739   6.540   1.679
26586SOL    HW181765 -41.329   6.532  23.789
26586SOL    HW281766   2.701  28.532  -9.347
26587SOL     OW81767   9.368   0.639   1.606
26587SOL    HW181768   9.435   0.707   1.611
26587SOL    HW281769   9.286 -10.355   1.625
26588SOL     OW81770   1.847   0.168   9.204
26588SOL    HW181771 -20.250 -10.802   9.141
26588SOL    HW281772   1.807  11.129   9.166
26589SOL     OW81773   8.778   8.864   9.435
26589SOL    HW181774   8.764   8.919   9.358
26589SOL    HW281775 -13.237   8.799  20.446
26590SOL     OW81776   3.081   6.047   6.866
26590SOL    HW181777  14.154   6.136   6.877
26590SOL    HW281778  25.214   5.994   6.924
26591SOL     OW81779   9.294   6.477   6.698
26591SOL    HW181780   9.243   6.401  17.709
26591SOL    HW281781   9.238 -15.527   6.679
26592SOL     OW81782   2.064   3.528  10.031
26592SOL    HW181783   2.147   3.543  10.076
26592SOL    HW281784 -20.077  14.549  10.101
26593SOL     OW81785   1.098   3.073   7.751
26593SOL    HW181786   1.149   3.081  -3.369
26593SOL    HW281787   1.121   3.150   7.803
26594SOL     OW81788   0.547  10.189   7.617
26594SOL    HW181789   0.611  21.195  29.634
26594SOL    HW281790   0.584  -0.768   7.648
26595SOL     OW81791   6.824   6.627   8.820
26595SOL    HW181792   6.892   6.683  19.821
26595SOL    HW281793  -4.213   6.647   8.914
26596SOL     OW81794   3.344   4.176  11.570
26596SOL    HW181795  14.457  26.206  11.607
26596SOL    HW281796   3.268   4.121 -10.492
26597SOL     OW81797   9.276   2.488   3.806
26597SOL    HW181798   9.325 -30.571  14.790
26597SOL    HW281799   9.222   2.437   3.746
26598SOL     OW81800   3.796   9.182   1.323
26598SOL    HW181801   3.805 -12.879   1.416
26598SOL    HW281802   3.744 -12.978  -9.720
26599SOL     OW81803   6.019   3.714   5.246
26599SOL    HW181804 -27.141  -7.273  38.432
26599SOL    HW281805   6.038 -18.303  16.215
26600SOL     OW81806   5.071   0.778   4.403
26600SOL    HW181807 -17.031   0.700  26.433
26600SOL    HW281808   5.142 -10.221   4.352
26601SOL     OW81809   5.359   1.496   2.876
26601SOL    HW181810  16.488   1.462   2.864
26601SOL    HW281811  -5.730   1.461 -19.277
26602SOL     OW81812   2.145   2.573  12.647
26602SOL    HW181813   2.241   2.570  -9.438
26602SOL    HW281814   2.115   2.522   1.533
26603SOL     OW81815   1.018   6.671   5.650
26603SOL    HW181816   0.923  17.717   5.652
26603SOL    HW281817   1.036   6.593 -16.481
26604SOL     OW81818   3.784   5.178   6.097
26604SOL    HW181819   3.832  16.198   6.178
26604SOL    HW281820  -7.340  16.251   6.127
26605SOL     OW81821   4.785   4.287   8.933
26605SOL    HW181822   4.865 -17.774   8.983
26605SOL    HW281823   4.776  -6.676   8.876
26606SOL     OW81824   9.099   9.128   3.375
26606SOL    HW181825  20.124  -1.981   3.439
26606SOL    HW281826   9.194   9.136   3.370
26607SOL     OW81827   4.981   4.061   0.562
26607SOL    HW181828   5.053   4.043   0.623
26607SOL    HW281829   5.022   4.103  11.526
26608SOL     OW81830   6.325   3.729   6.536
26608SOL    HW181831  -4.695   3.820   6.560
26608SOL    HW281832   6.310   3.732   6.442
26609SOL     OW81833   9.332   0.197   4.923
26609SOL    HW181834   9.399   0.142  -6.158
26609SOL    HW281835   9.375   0.282   4.934
26610SOL     OW81836   8.807  10.614   2.947
26610SOL    HW181837 -13.240  10.612 -41.302
26610SOL    HW281838   8.768  10.701   2.956
26611SOL     OW81839   1.130   0.881  10.333
26611SOL    HW181840   1.069   0.875  32.338
26611SOL    HW281841   1.170   0.793  -0.702
26612SOL     OW81842   0.736   0.607   8.334
26612SOL    HW181843   0.649   0.582   8.366
26612SOL    HW281844  11.772   0.591  -2.800
26613SOL     OW81845   6.913  10.336   0.925
26613SOL    HW181846   6.926  10.245   0.899
26613SOL    HW281847  17.966  10.386   0.844
26614SOL     OW81848   5.771   9.878   2.217
26614SOL    HW181849   5.733  20.884   2.298
26614SOL    HW281850   5.720   9.957   2.198
26615SOL     OW81851   1.036   0.605   7.784
26615SOL    HW181852   1.016   0.512   7.792
26615SOL    HW281853   0.953  11.689  -3.238
26616SOL     OW81854   4.478   2.530  -0.293
26616SOL    HW181855   4.388   2.538  10.715
26616SOL    HW281856   4.503   2.441  -0.315
26617SOL     OW81857   1.485   1.493   2.694
26617SOL    HW181858  12.436  12.551   2.663
26617SOL    HW281859  -9.499  -9.491 -19.439
26618SOL     OW81860   1.756   8.546   1.252
26618SOL    HW181861   1.693  30.621   1.325
26618SOL    HW281862   1.753   8.637 -20.855
26619SOL     OW81863   8.458   2.986   8.482
26619SOL    HW181864  19.489   3.066   8.429
26619SOL    HW281865   8.419  -8.122   8.428
26620SOL     OW81866   0.973   4.528   6.617
26620SOL    HW181867   0.893   4.483   6.591
26620SOL    HW281868   1.023   4.461   6.665
26621SOL     OW81869   4.105   3.511   5.199
26621SOL    HW181870   4.160   3.446  27.322
26621SOL    HW281871   4.017   3.474   5.202
26622SOL     OW81872   5.845   8.566   1.368
26622SOL    HW181873  16.830   8.489   1.356
26622SOL    HW281874   5.933 -13.548   1.386
26623SOL     OW81875   8.296   9.097   7.862
26623SOL    HW181876   8.284   9.162   7.932
26623SOL    HW281877   8.345   9.026   7.904
26624SOL     OW81878   2.274   4.661   8.703
26624SOL    HW181879   2.179  15.691   8.705
26624SOL    HW281880   2.292   4.737   8.758
26625SOL     OW81881   5.675   4.324  11.572
26625SOL    HW181882  27.691  15.414  11.521
26625SOL    HW281883   5.702  26.333   0.474
26626SOL     OW81884  10.042   1.106   8.502
26626SOL    HW181885   9.948   1.094   8.513
26626SOL    HW281886  10.068 -10.001   8.439
26627SOL     OW81887  11.380   2.800   9.502
26627SOL    HW181888   0.275   2.783   9.434
26627SOL    HW281889  11.459  13.864   9.454
26628SOL     OW81890   0.004  -0.412   5.998
26628SOL    HW181891   0.020  21.677  28.171
26628SOL    HW281892   0.081  -0.456   5.965
26629SOL     OW81893   0.923   7.995  10.310
26629SOL    HW181894   0.905  19.109  21.408
26629SOL    HW281895  22.981   8.028 -11.856
26630SOL     OW81896   3.878  11.030   3.281
26630SOL    HW181897   3.934  11.107   3.271
26630SOL    HW281898   3.935  -0.084   3.264
26631SOL     OW81899   2.126   7.222   5.571
26631SOL    HW181900  -8.821   7.233   5.551
26631SOL    HW281901  -8.957  -3.811   5.486
26632SOL     OW81902   6.513   9.076   6.246
26632SOL    HW181903   6.481 -12.974   6.160
26632SOL    HW281904   6.603   9.048   6.229
26633SOL     OW81905   1.143   2.839   3.691
26633SOL    HW181906   1.235   2.831  14.756
26633SOL    HW281907   1.144  -8.206   3.595
26634SOL     OW81908   2.764   4.716   8.920
26634SOL    HW181909   2.670   4.721 -13.140
26634SOL    HW281910   2.769   4.672   8.836
26635SOL     OW81911   8.350   9.001   3.185
26635SOL    HW181912   8.295   8.925  14.244
26635SOL    HW281913   8.438   8.965  25.255
26636SOL     OW81914   2.291   6.162   1.931
26636SOL    HW181915 -19.695   6.142  12.978
26636SOL    HW281916   2.261 -26.944   2.021
26637SOL     OW81917   1.210   0.804   8.045
26637SOL    HW181918   1.124   0.837   8.020
26637SOL    HW281919   1.193 -10.306   8.106
26638SOL     OW81920   9.224   3.652   2.961
26638SOL    HW181921   9.246   3.690   2.876
26638SOL    HW281922 -12.774  14.648   2.989
26639SOL     OW81923   1.755   0.933   5.019
26639SOL    HW181924   1.698 -10.170   4.975
26639SOL    HW281925  -9.209  11.981   4.962
26640SOL     OW81926   0.711   7.905  12.436
26640SOL    HW181927   0.767   7.964  12.385
26640SOL    HW281928   0.707  30.023 -20.596
26641SOL     OW81929   9.346   8.817   1.786
26641SOL    HW181930  20.456   8.794  -9.314
26641SOL    HW281931   9.343   8.744   1.848
26642SOL     OW81932  10.561   7.089   5.927
26642SOL    HW181933  10.541   7.110   5.836
26642SOL    HW281934 -11.538   6.996  -5.104
26643SOL     OW81935   3.328   7.362   9.409
26643SOL    HW181936  14.368  29.517   9.467
26643SOL    HW281937   3.281   7.392   9.331
26644SOL     OW81938  -0.148   4.943   1.318
26644SOL    HW181939  10.860  15.899   1.350
26644SOL    HW281940  -0.100  -6.059   1.393
26645SOL     OW81941   4.491   0.057   8.816
26645SOL    HW181942  -6.511   0.100   8.739
26645SOL    HW281943   4.471   0.128 -24.242
26646SOL     OW81944   0.300   4.693   5.098
26646SOL    HW181945   0.360   4.760 -17.013
26646SOL    HW281946   0.226   4.696   5.038
26647SOL     OW81947   9.273   9.686  10.510
26647SOL    HW181948   9.278   9.643  10.425
26647SOL    HW281949   9.362 -12.360  10.525
26648SOL     OW81950   8.599   1.734   6.210
26648SOL    HW181951 -13.450   1.792   6.280
26648SOL    HW281952   8.511 -20.372   6.237
26649SOL     OW81953   3.535  10.710  10.052
26649SOL    HW181954   3.464  10.677  -0.932
26649SOL    HW281955  -7.547  10.734 -12.109
26650SOL     OW81956   5.302   6.049   0.885
26650SOL    HW181957   5.328  -5.068  11.875
26650SOL    HW281958  -5.694   6.039   0.969
26651SOL     OW81959   2.179   7.472   7.000
26651SOL    HW181960   2.086   7.483  18.020
26651SOL    HW281961  13.237   7.538   7.067
26652SOL     OW81962  10.331   5.172   3.290
26652SOL    HW181963  10.388   5.148   3.362
26652SOL    HW281964 -11.737  -5.938   3.226
26653SOL     OW81965  10.513  10.382   4.431
26653SOL    HW181966  10.479 -11.761  15.533
26653SOL    HW281967  10.553  -0.590  26.565
26654SOL     OW81968   7.700   8.292  10.708
26654SOL    HW181969   7.636   8.317  10.641
26654SOL    HW281970  18.768 -13.703  10.745
26655SOL     OW81971   0.686  12.230   3.115
26655SOL    HW181972   0.651  12.300   3.169
26655SOL    HW281973 -10.402 -20.967   3.143
26656SOL     OW81974   9.719   1.735   6.789
26656SOL    HW181975   9.732   1.768   6.878
26656SOL    HW281976   9.677   1.807  -4.297
26657SOL     OW81977   4.476   3.611  13.237
26657SOL    HW181978   4.442   3.535 -30.873
26657SOL    HW281979   4.400  -7.393  13.191
26658SOL     OW81980   6.031   6.645  10.061
26658SOL    HW181981   6.074   6.570 -34.139
26658SOL    HW281982   6.024   6.620 -11.926
26659SOL     OW81983   3.272   6.991   2.142
26659SOL    HW181984   3.343   6.982   2.078
26659SOL    HW281985   3.316   6.984   2.227
26660SOL     OW81986   9.859   4.977   2.883
26660SOL    HW181987   9.893   4.901  24.916
26660SOL    HW281988  -1.275   4.961   2.890
26661SOL     OW81989   9.870   4.992   9.114
26661SOL    HW181990   9.795 -17.107   9.170
26661SOL    HW281991   9.833   5.041   9.040
26662SOL     OW81992   1.032   6.851   7.895
26662SOL    HW181993   0.964  -4.196  -3.211
26662SOL    HW281994   0.994   6.807  19.011
26663SOL     OW81995   1.616   3.194   7.650
26663SOL    HW181996   1.659   3.276  18.666
26663SOL    HW281997  45.830   3.155   7.717
26664SOL     OW81998  -1.493   7.101  10.791
26664SOL    HW181999  31.543   7.147 -11.275
26664SOL    HW282000  -1.499   7.066  10.702
26665SOL     OW82001   2.227   5.459   1.195
26665SOL    HW182002   2.142   5.459   1.238
26665SOL    HW282003   2.264   5.545   1.214
26666SOL     OW82004   5.161   8.858   4.050
26666SOL    HW182005   5.128  19.829  37.226
26666SOL    HW282006   5.134   8.832  15.001
26667SOL     OW82007   8.715   9.704   3.077
26667SOL    HW182008   8.621   9.711   3.093
26667SOL    HW282009  19.785   9.637   3.139
26668SOL     OW82010   2.308   2.320   9.285
26668SOL    HW182011   2.386   2.263  -1.751
26668SOL    HW282012   2.235   2.260  -1.742
26669SOL     OW82013   1.155   8.648  10.993
26669SOL    HW182014   1.088   8.582  11.014
26669SOL    HW282015   1.134   8.722  11.049
26670SOL     OW82016   7.045   7.560   8.248
26670SOL    HW182017   7.000   7.477   8.267
26670SOL    HW282018   7.074   7.551   8.157
26671SOL     OW82019   4.652   9.612   1.564
26671SOL    HW182020  -6.327   9.654  12.543
26671SOL    HW282021  15.620 -12.498  23.589
26672SOL     OW82022   2.777   2.521   9.451
26672SOL    HW182023   2.779  35.718   9.505
26672SOL    HW282024   2.869   2.494   9.445
26673SOL     OW82025  10.494   0.738   0.758
26673SOL    HW182026  10.421 -10.245   0.780
26673SOL    HW282027  10.481   0.660   0.813
26674SOL     OW82028   5.106   5.413   3.861
26674SOL    HW182029   5.020   5.454   3.849
26674SOL    HW282030   5.101   5.332  14.850
26675SOL     OW82031   5.282   2.359   5.248
26675SOL    HW182032  16.242   2.334   5.202
26675SOL    HW282033   5.267   2.451  38.391
26676SOL     OW82034   1.753   6.265   1.783
26676SOL    HW182035   1.699   6.339   1.810
26676SOL    HW282036  -9.224   6.302 -20.359
26677SOL     OW82037   4.418   3.838   4.406
26677SOL    HW182038   4.413   3.786   4.326
26677SOL    HW282039   4.396  -7.264  -6.564
26678SOL     OW82040   5.704   1.517   1.666
26678SOL    HW182041   5.690   1.585  23.679
26678SOL    HW282042 -16.383   1.563   1.750
26679SOL     OW82043   1.646   5.430   0.964
26679SOL    HW182044   1.727   5.395  23.079
26679SOL    HW282045  12.617  16.418  23.084
26680SOL     OW82046   4.931   7.011   5.846
26680SOL    HW182047   5.024   7.018   5.822
26680SOL    HW282048   4.914   6.917   5.848
26681SOL     OW82049   9.006   2.329   2.354
26681SOL    HW182050   8.969   2.417   2.347
26681SOL    HW282051   9.058   2.332   2.435
26682SOL     OW82052  10.765   1.054  10.336
26682SOL    HW182053  10.675   1.048  -0.735
26682SOL    HW282054  10.810   0.981 -11.784
26683SOL     OW82055   2.133   8.964   7.794
26683SOL    HW182056   2.134   9.052  -3.209
26683SOL    HW282057   2.139  -2.133  18.910
26684SOL     OW82058  -0.573   1.852   6.560
26684SOL    HW182059  10.419   1.769   6.564
26684SOL    HW282060  -0.575 -20.194   6.650
26685SOL     OW82061   3.744   9.130   7.316
26685SOL    HW182062   3.768   9.204 -25.859
26685SOL    HW282063  14.866   9.105   7.359
26686SOL     OW82064   3.348   8.100   6.180
26686SOL    HW182065   3.267   8.056 -26.966
26686SOL    HW282066   3.329   8.194   6.170
26687SOL     OW82067   9.011   1.978   4.214
26687SOL    HW182068  42.143   2.046   4.148
26687SOL    HW282069   8.964   2.022 -17.794
26688SOL     OW82070   6.451  11.188  11.345
26688SOL    HW182071   6.430   0.170   0.215
26688SOL    HW282072   6.538  11.225   0.320
26689SOL     OW82073   7.287  10.622   7.803
26689SOL    HW182074   7.211  -0.361   7.804
26689SOL    HW282075  18.291 -22.586   7.809
26690SOL     OW82076   9.976   3.691   3.743
26690SOL    HW182077  21.089   3.726   3.693
26690SOL    HW282078   9.924   3.644   3.678
26691SOL     OW82079   5.009   5.653   6.832
26691SOL    HW182080   4.967  -5.324  -4.148
26691SOL    HW282081   4.986   5.685   6.744
26692SOL     OW82082   1.864   2.839   6.647
26692SOL    HW182083   1.935  -8.195   6.583
26692SOL    HW282084   1.788   2.811   6.597
26693SOL     OW82085   4.533   7.935  11.799
26693SOL    HW182086   4.490 -14.179   0.838
26693SOL    HW282087   4.602 -14.087   0.793
26694SOL     OW82088   7.813   2.584  11.447
26694SOL    HW182089   7.887   2.542   0.451
26694SOL    HW282090   7.761  13.551  11.412
26695SOL     OW82091   9.108   9.703  10.703
26695SOL    HW182092   9.161   9.672  10.629
26695SOL    HW282093   9.102  31.707  -0.278
26696SOL     OW82094   4.250   7.371   6.290
26696SOL    HW182095   4.204   7.371   6.374
26696SOL    HW282096   4.194   7.421   6.231
26697SOL     OW82097   9.475   1.758   9.968
26697SOL    HW182098   9.397   1.731  21.055
26697SOL    HW282099   9.442  -9.238   9.890
26698SOL     OW82100   2.240   6.277  10.398
26698SOL    HW182101   2.218   6.321  10.316
26698SOL    HW282102   2.318   6.323 -11.650
26699SOL     OW82103   8.499   8.067   2.427
26699SOL    HW182104   8.566   8.050   2.362
26699SOL    HW282105   8.507  19.036   2.490
26700SOL     OW82106   5.677   4.340   4.365
26700SOL    HW182107   5.658   4.394   4.289
26700SOL    HW282108  -5.278  15.412  26.476
26701SOL     OW82109   3.312   0.515   4.976
26701SOL    HW182110   3.407   0.521   4.971
26701SOL    HW282111  36.410   0.429  -6.100
26702SOL     OW82112   8.248   0.017   7.062
26702SOL    HW182113   8.157  22.091  29.169
26702SOL    HW282114  -2.762   0.102  18.134
26703SOL     OW82115  10.495   1.126   6.247
26703SOL    HW182116  -0.538   1.218   6.270
26703SOL    HW282117  10.495   1.080  17.370
26704SOL     OW82118   2.648   9.628   0.642
26704SOL    HW182119   2.679   9.541   0.618
26704SOL    HW282120   2.681   9.685   0.572
26705SOL     OW82121   5.097   8.953   2.914
26705SOL    HW182122   5.101   8.949   3.010
26705SOL    HW282123  16.185   8.876  36.003
26706SOL     OW82124   0.711   3.023  10.645
26706SOL    HW182125   0.628   2.978  10.631
26706SOL    HW282126   0.777  -8.086  10.650
26707SOL     OW82127   5.775   2.842   0.992
26707SOL    HW182128 -16.239   2.772   0.990
26707SOL    HW282129 -27.428   2.796  12.037
26708SOL     OW82130  -0.104   5.876   1.901
26708SOL    HW182131  -0.035   5.811   1.893
26708SOL    HW282132  21.926  -5.191   1.978
26709SOL     OW82133   3.581   1.491   0.759
26709SOL    HW182134  14.634   1.566   0.818
26709SOL    HW282135   3.667   1.450   0.754
26710SOL     OW82136   5.089   0.808   3.104
26710SOL    HW182137   5.060   0.860   3.029
26710SOL    HW282138   5.008   0.774   3.142
26711SOL     OW82139   4.528   1.756   8.745
26711SOL    HW182140   4.569  23.796   8.822
26711SOL    HW282141  -6.481   1.703  19.711
26712SOL     OW82142   7.453   8.739   9.762
26712SOL    HW182143   7.521  19.744 -12.260
26712SOL    HW282144   7.483   8.718  20.713
26713SOL     OW82145   0.057   1.845   9.867
26713SOL    HW182146   0.120  12.956  -1.177
26713SOL    HW282147  11.021  -9.163 -12.263
26714SOL     OW82148   9.152   8.521   8.027
26714SOL    HW182149  -1.817  -2.567  19.109
26714SOL    HW282150   9.181 -24.506   8.030
26715SOL     OW82151   1.323   9.036   6.450
26715SOL    HW182152 -20.789   9.006   6.366
26715SOL    HW282153   1.402   8.984  17.505
26716SOL     OW82154   4.927   7.524   5.660
26716SOL    HW182155   4.912 -14.646   5.636
26716SOL    HW282156   4.851  -3.469   5.626
26717SOL     OW82157  10.118   7.480  10.479
26717SOL    HW182158  10.077   7.451  -0.478
26717SOL    HW282159 -11.908  18.595  10.505
26718SOL     OW82160   3.057   2.562   4.271
26718SOL    HW182161  -8.046   2.629  15.287
26718SOL    HW282162  -7.936   2.598   4.347
26719SOL     OW82163   3.230   3.639   9.595
26719SOL    HW182164   3.185   3.717  20.601
26719SOL    HW282165   3.165  -7.442   9.652
26720SOL     OW82166   4.357   1.678   2.925
26720SOL    HW182167   4.352   1.643   2.837
26720SOL    HW282168   4.390   1.605   2.978
26721SOL     OW82169   2.968   4.686   9.437
26721SOL    HW182170   2.922  -6.282  20.520
26721SOL    HW282171   2.968   4.710   9.345
26722SOL     OW82172   9.353   8.993   7.997
26722SOL    HW182173   9.406 -13.069  -2.965
26722SOL    HW282174   9.396  -1.997   7.927
26723SOL     OW82175   2.523   2.904   9.844
26723SOL    HW182176 -30.587   2.810   9.859
26723SOL    HW282177   2.430   2.921  20.894
26724SOL     OW82178   0.550   2.575   5.463
26724SOL    HW182179  22.676   2.505   5.419
26724SOL    HW282180   0.586   2.577   5.552
26725SOL     OW82181  10.600   9.710   7.634
26725SOL    HW182182  10.512   9.694   7.668
26725SOL    HW282183  10.646 -23.491   7.649
26726SOL     OW82184   2.119   9.838   1.405
26726SOL    HW182185   2.173   9.803   1.335
26726SOL    HW282186   2.171   9.825   1.485
26727SOL     OW82187   2.501   4.789  10.146
26727SOL    HW182188   2.549  15.846  10.065
26727SOL    HW282189  -8.489   4.719  10.189
26728SOL     OW82190   1.238  11.759   0.763
26728SOL    HW182191   1.249 -21.301   0.839
26728SOL    HW282192  -9.896 -10.320   0.746
26729SOL     OW82193   2.214   7.567   0.399
26729SOL    HW182194   2.149   7.527   0.342
26729SOL    HW282195  -8.747  18.553   0.386
26730SOL     OW82196   4.783   2.879   1.704
26730SOL    HW182197  15.758  13.872   1.650
26730SOL    HW282198   4.860   2.823  -9.336
26731SOL     OW82199   5.411   4.768  10.047
26731SOL    HW182200   5.459 -17.333   9.967
26731SOL    HW282201   5.323   4.788  10.017
26732SOL     OW82202   4.839   3.848  11.493
26732SOL    HW182203   4.897   3.796  11.437
26732SOL    HW282204   4.895  37.038 -10.554
26733SOL     OW82205   0.674   8.161   2.341
26733SOL    HW182206   0.619  -2.957   2.340
26733SOL    HW282207   0.620   8.227   2.297
26734SOL     OW82208   3.305   4.228   9.186
26734SOL    HW182209   3.251  15.320  31.205
26734SOL    HW282210   3.271 -28.979   9.178
26735SOL     OW82211   6.626   6.873   2.269
26735SOL    HW182212   6.652   6.887   2.178
26735SOL    HW282213   6.667 -37.213   2.317
26736SOL     OW82214   1.897   8.560   4.158
26736SOL    HW182215  -9.102   8.610   4.228
26736SOL    HW282216  -9.098   8.589   4.078
26737SOL     OW82217   7.631  10.718   8.712
26737SOL    HW182218   7.552  10.686   8.755
26737SOL    HW282219  29.701  10.692 -13.459
26738SOL     OW82220   7.938   4.439   5.489
26738SOL    HW182221   7.978   4.504   5.546
26738SOL    HW282222   8.010   4.380   5.467
26739SOL     OW82223   1.889   7.411   4.044
26739SOL    HW182224 -31.312   7.455  26.103
26739SOL    HW282225   1.952  29.562  15.096
26740SOL     OW82226   1.710   9.186   9.192
26740SOL    HW182227  -9.291   9.269   9.220
26740SOL    HW282228   1.649  20.250   9.123
26741SOL     OW82229   0.104   5.679   6.014
26741SOL    HW182230   0.118   5.585  17.062
26741SOL    HW282231   0.090 -27.425   5.921
26742SOL     OW82232   3.213   0.638   9.098
26742SOL    HW182233   3.165   0.593   9.029
26742SOL    HW282234  -7.737   0.647   9.063
26743SOL     OW82235   2.747   6.714  11.183
26743SOL    HW182236   2.662   6.695  11.142
26743SOL    HW282237   2.732   6.795   0.192
26744SOL     OW82238   1.144  11.495   0.152
26744SOL    HW182239  12.227 -21.563   0.092
26744SOL    HW282240   1.081   0.408  11.135
26745SOL     OW82241   7.071   2.033   4.313
26745SOL    HW182242  -3.936  12.983   4.303
26745SOL    HW282243  -3.956   2.053   4.405
26746SOL     OW82244   3.875  10.231   8.787
26746SOL    HW182245   3.870  10.198  -2.342
26746SOL    HW282246   3.849  10.323   8.780
26747SOL     OW82247   4.606   8.415   5.668
26747SOL    HW182248  26.696  -2.594  -5.281
26747SOL    HW282249   4.557   8.485  16.664
26748SOL     OW82250   6.993   5.610   8.530
26748SOL    HW182251   6.974  49.773  -2.604
26748SOL    HW282252 -15.172  27.698  30.651
26749SOL     OW82253   4.295   9.341   5.648
26749SOL    HW182254  26.451   9.292   5.675
26749SOL    HW282255   4.325  31.511   5.639
26750SOL     OW82256   5.362   1.514  -1.547
26750SOL    HW182257  49.503  12.616   9.563
26750SOL    HW282258   5.333  12.469  31.606
26751SOL     OW82259   1.536   2.406   7.537
26751SOL    HW182260  -9.516   2.320   7.497
26751SOL    HW282261   1.452  13.466   7.577
26752SOL     OW82262   3.189   9.699  -0.358
26752SOL    HW182263   3.093   9.698  -0.356
26752SOL    HW282264   3.211   9.695  10.588
26753SOL     OW82265   1.418   5.286   6.449
26753SOL    HW182266   1.457   5.213  28.575
26753SOL    HW282267   1.335  -5.738  39.612
26754SOL     OW82268  10.832   7.874   0.533
26754SOL    HW182269  10.769   7.855  22.542
26754SOL    HW282270  -0.260   7.912 -21.476
26755SOL     OW82271   8.029   0.865  12.244
26755SOL    HW182272   8.051  11.918  -9.927
26755SOL    HW282273   8.098  11.950  12.292
26756SOL     OW82274   4.440   8.414   1.670
26756SOL    HW182275   4.392   8.340   1.708
26756SOL    HW282276 -28.703   8.489   1.723
26757SOL     OW82277   5.662  11.203   4.566
26757SOL    HW182278   5.737 -10.869   4.508
26757SOL    HW282279   5.695  11.155   4.642
26758SOL     OW82280   9.315   7.109   2.105
26758SOL    HW182281  31.438  18.070 -19.943
26758SOL    HW282282  -1.816   7.097   2.132
26759SOL     OW82283   7.310   8.302   8.193
26759SOL    HW182284   7.340   8.252  19.309
26759SOL    HW282285   7.215  19.340   8.200
26760SOL     OW82286  12.052  -0.256   9.357
26760SOL    HW182287   0.926  -0.296   9.360
26760SOL    HW282288   1.072  10.716   9.389
26761SOL     OW82289  12.960   1.126   1.766
26761SOL    HW182290 -20.229  23.180  -9.212
26761SOL    HW282291   1.876   1.133  -9.358
26762SOL     OW82292   9.654   5.825   3.207
26762SOL    HW182293  20.674  16.826   3.292
26762SOL    HW282294 -12.415  27.997  14.264
26763SOL     OW82295   3.257   5.264   2.956
26763SOL    HW182296   3.274  16.215   2.989
26763SOL    HW282297   3.219   5.310  14.070
26764SOL     OW82298   0.855   4.990   8.879
26764SOL    HW182299   0.798   4.973   8.954
26764SOL    HW282300   0.830   4.924  19.854
26765SOL     OW82301   9.178   9.475   0.399
26765SOL    HW182302  -1.798 -12.630   0.466
26765SOL    HW282303   9.232 -23.614   0.326
26766SOL     OW82304   2.100   0.822   2.946
26766SOL    HW182305  13.096  11.777   2.939
26766SOL    HW282306   2.118  22.926   2.855
26767SOL     OW82307   2.113   6.857   9.207
26767SOL    HW182308   2.166   6.789 -12.832
26767SOL    HW282309 -20.057   6.829  31.301
26768SOL     OW82310  11.278   0.093  10.673
26768SOL    HW182311 -10.896   0.080  10.669
26768SOL    HW282312 -10.766   0.034  10.606
26769SOL     OW82313  11.130   5.636   1.775
26769SOL    HW182314 -10.916   5.550  23.882
26769SOL    HW282315  11.112   5.625   1.682
26770SOL     OW82316   0.458  11.494   4.444
26770SOL    HW182317   0.498 -21.635   4.530
26770SOL    HW282318   0.365   0.433   4.458
26771SOL     OW82319   7.486   9.402   4.499
26771SOL    HW182320   7.509   9.412   4.591
26771SOL    HW282321   7.390   9.397   4.498
26772SOL     OW82322   5.031  -0.297   6.886
26772SOL    HW182323   4.992  10.809   6.942
26772SOL    HW282324   4.957  -0.333  -4.203
26773SOL     OW82325   7.284   2.831   9.806
26773SOL    HW182326   7.330   2.903   9.763
26773SOL    HW282327   7.329   2.752   9.775
26774SOL     OW82328  10.449   6.328   8.559
26774SOL    HW182329  10.369   6.301  19.643
26774SOL    HW282330  -0.579 -15.660   8.584
26775SOL     OW82331   8.947   3.441   6.816
26775SOL    HW182332  20.042   3.505   6.860
26775SOL    HW282333   8.861  25.561   6.814
26776SOL     OW82334   6.975   8.580   3.369
26776SOL    HW182335  -4.063   8.491   3.403
26776SOL    HW282336   7.011  41.752   3.440
26777SOL     OW82337   3.673   3.988   9.371
26777SOL    HW182338  14.687   3.956   9.285
26777SOL    HW282339   3.767   4.001   9.365
26778SOL     OW82340   2.693   8.058   5.725
26778SOL    HW182341  24.756   8.022  27.892
26778SOL    HW282342  13.781   8.139  27.820
26779SOL     OW82343   1.952   5.578   7.877
26779SOL    HW182344   1.914   5.656   7.837
26779SOL    HW282345  24.089  -5.427  30.025
26780SOL     OW82346   9.311   7.712   3.351
26780SOL    HW182347   9.372  -3.338  -7.616
26780SOL    HW282348   9.233  18.703   3.378
26781SOL     OW82349   7.884   5.721   1.811
26781SOL    HW182350   7.930   5.638   1.826
26781SOL    HW282351 -14.244   5.707   1.730
26782SOL     OW82352  11.459   6.968   9.821
26782SOL    HW182353   0.476   7.040   9.850
26782SOL    HW282354  11.418  17.975  20.941
26783SOL     OW82355   1.092   7.597   9.810
26783SOL    HW182356   1.101 -25.579   9.734
26783SOL    HW282357  -9.923 -25.435  -1.263
26784SOL     OW82358   8.594   7.846   1.421
26784SOL    HW182359   8.647   7.842   1.500
26784SOL    HW282360  -2.500  18.807  -9.616
26785SOL     OW82361   2.977   5.370   6.235
26785SOL    HW182362   2.998   5.433   6.166
26785SOL    HW282363   3.062   5.337   6.263
26786SOL     OW82364   5.122   9.915   8.113
26786SOL    HW182365   5.145  10.002   8.081
26786SOL    HW282366   5.197  -1.179  -2.950
26787SOL     OW82367   2.161   7.009   4.119
26787SOL    HW182368   2.078   7.002  -6.969
26787SOL    HW282369   2.193   7.097   4.098
26788SOL     OW82370   6.751  -0.443  -1.268
26788SOL    HW182371   6.792  32.760  -1.287
26788SOL    HW282372   6.720  -0.474  31.766
26789SOL     OW82373   0.930   1.694  -0.760
26789SOL    HW182374   1.001   1.683  -0.696
26789SOL    HW282375 -10.189   1.674  21.368
26790SOL     OW82376   3.401   0.623   8.751
26790SOL    HW182377 -18.605   0.575  19.830
26790SOL    HW282378 -18.683   0.589  -2.378
26791SOL     OW82379   9.195   8.643   5.336
26791SOL    HW182380   9.248   8.709 -16.698
26791SOL    HW282381  20.146   8.680  -5.704
26792SOL     OW82382   0.756   9.145   1.789
26792SOL    HW182383   0.674   9.108   1.821
26792SOL    HW282384 -10.290  -1.900  12.733
26793SOL     OW82385   4.046   2.854   3.299
26793SOL    HW182386   4.074   2.763   3.295
26793SOL    HW282387   4.105  24.974   3.362
26794SOL     OW82388   2.493   8.034   9.425
26794SOL    HW182389   2.540   8.078 -12.583
26794SOL    HW282390   2.446   8.105   9.380
26795SOL     OW82391   1.788   4.868   9.965
26795SOL    HW182392   1.864  26.981   9.917
26795SOL    HW282393   1.825  26.902  10.040
26796SOL     OW82394   5.801   8.895   6.406
26796SOL    HW182395  16.836   8.897   6.310
26796SOL    HW282396   5.719   8.855   6.433
26797SOL     OW82397   0.965   0.407   1.945
26797SOL    HW182398   1.040   0.466   1.949
26797SOL    HW282399   1.003   0.319  -9.092
26798SOL     OW82400   1.146   6.528   7.130
26798SOL    HW182401   1.235 -15.555   7.095
26798SOL    HW282402   1.146   6.464   7.202
26799SOL     OW82403   2.200   6.453   2.567
26799SOL    HW182404  13.288   6.437  -8.392
26799SOL    HW282405   2.113   6.481 -19.484
26800SOL     OW82406   5.157   8.364   7.907
26800SOL    HW182407   5.221   8.360  -3.203
26800SOL    HW282408   5.187  -2.604   7.963
26801SOL     OW82409   0.373  10.625  10.987
26801SOL    HW182410   0.317  10.691  11.029
26801SOL    HW282411   0.397  -0.375  10.904
26802SOL     OW82412   1.860   3.914   4.035
26802SOL    HW182413   1.788  -7.064   4.018
26802SOL    HW282414  23.931   3.849   3.966
26803SOL     OW82415   2.332   3.631   9.362
26803SOL    HW182416   2.345   3.550   9.411
26803SOL    HW282417   2.239   3.630 -23.779
26804SOL     OW82418   8.524   4.828   3.911
26804SOL    HW182419 -13.545   4.905  15.007
26804SOL    HW282420 -13.635   4.786  -7.098
26805SOL     OW82421   2.540  12.441   4.497
26805SOL    HW182422   2.615  -9.655   4.439
26805SOL    HW282423   2.536   1.325   4.554
26806SOL     OW82424   2.677  -0.130   3.781
26806SOL    HW182425   2.648  21.961   3.691
26806SOL    HW282426   2.598  10.924   3.834
26807SOL     OW82427   7.080   9.136   2.008
26807SOL    HW182428   7.076 -23.888  -9.017
26807SOL    HW282429   7.075 -12.981   2.096
26808SOL     OW82430  10.737   4.435   7.599
26808SOL    HW182431  10.685   4.515   7.602
26808SOL    HW282432  10.687   4.375   7.544
26809SOL     OW82433   1.849   7.642   8.951
26809SOL    HW182434   1.824   7.558  31.068
26809SOL    HW282435  23.901   7.636   8.860
26810SOL     OW82436   4.190   6.172   6.252
26810SOL    HW182437   4.268  -4.814   6.238
26810SOL    HW282438  15.219  39.287 -26.772
26811SOL     OW82439   9.512   4.402   6.019
26811SOL    HW182440   9.440   4.463  17.076
26811SOL    HW282441   9.577  -6.585   5.971
26812SOL     OW82442  -0.598   6.670   7.953
26812SOL    HW182443  -0.685  17.680   7.927
26812SOL    HW282444  10.471   6.727   7.882
26813SOL     OW82445  10.284   1.745   7.711
26813SOL    HW182446  10.263   1.669   7.657
26813SOL    HW282447  10.204  12.838   7.710
26814SOL     OW82448   7.922   4.123   4.546
26814SOL    HW182449   7.930   4.212   4.512
26814SOL    HW282450   7.867   4.077   4.482
26815SOL     OW82451   1.599   5.456   9.667
26815SOL    HW182452   1.569   5.504   9.744
26815SOL    HW282453  34.787  16.550   9.630
26816SOL     OW82454  11.430   3.555   4.841
26816SOL    HW182455  11.497   3.578   4.777
26816SOL    HW282456   0.412 -18.473  15.958
26817SOL     OW82457   9.434  10.416   1.677
26817SOL    HW182458   9.439  10.501  23.712
26817SOL    HW282459   9.512  10.369   1.648
26818SOL     OW82460   4.130   4.140   2.119
26818SOL    HW182461   4.115  15.269   2.150
26818SOL    HW282462   4.216   4.144   2.078
26819SOL     OW82463   1.621   8.141   6.629
26819SOL    HW182464   1.711   8.123 -15.478
26819SOL    HW282465   1.607   8.233  17.644
26820SOL     OW82466   5.785   9.903   1.449
26820SOL    HW182467   5.803   9.997   1.446
26820SOL    HW282468  16.908   9.861   1.428
26821SOL     OW82469   4.991   4.600   8.920
26821SOL    HW182470  -6.055   4.513   8.960
26821SOL    HW282471   5.059   4.645 -24.149
26822SOL     OW82472   2.312   1.906   5.057
26822SOL    HW182473   2.284 -20.238  -5.918
26822SOL    HW282474   2.390   1.869  -6.022
26823SOL     OW82475   8.383   0.793   3.275
26823SOL    HW182476   8.318  22.901   3.339
26823SOL    HW282477  -2.626   0.874   3.235
26824SOL     OW82478   7.247   0.152   1.362
26824SOL    HW182479   7.224   0.180   1.450
26824SOL    HW282480   7.171  33.294   1.309
26825SOL     OW82481   1.837   4.484   4.889
26825SOL    HW182482   1.768   4.429  -6.189
26825SOL    HW282483   1.797   4.522 -17.112
26826SOL     OW82484   2.828   1.338  11.256
26826SOL    HW182485   2.815  12.299 -10.771
26826SOL    HW282486  13.909  12.346  11.175
26827SOL     OW82487   8.286   9.497   3.757
26827SOL    HW182488  -2.757   9.589   3.730
26827SOL    HW282489   8.293   9.448   3.675
26828SOL     OW82490   7.557   8.438   9.462
26828SOL    HW182491  29.644   8.487   9.380
26828SOL    HW282492  29.727  -2.622  -1.553
26829SOL     OW82493   2.130   1.363   3.155
26829SOL    HW182494   2.119   1.458  -7.877
26829SOL    HW282495 -19.911   1.337  -7.801
26830SOL     OW82496   8.443   2.836  10.387
26830SOL    HW182497 -13.637   2.755  10.437
26830SOL    HW282498  19.487   2.905  10.453
26831SOL     OW82499   9.202   2.801   1.622
26831SOL    HW182500  20.268   2.803  12.754
26831SOL    HW282501  -1.784   2.868   1.581
26832SOL     OW82502   1.976   8.501   7.542
26832SOL    HW182503   2.018 -13.662   7.560
26832SOL    HW282504  13.003   8.502  29.526
26833SOL     OW82505   2.114   4.314   7.855
26833SOL    HW182506   2.086   4.311   7.763
26833SOL    HW282507   2.119   4.407 -14.204
26834SOL     OW82508   5.109   8.819   2.221
26834SOL    HW182509   5.205   8.811   2.216
26834SOL    HW282510   5.081   8.823  -8.910
26835SOL     OW82511   8.065   4.399   4.983
26835SOL    HW182512  19.124   4.307 -17.113
26835SOL    HW282513  19.011  15.441   5.005
26836SOL     OW82514   1.781   3.886  10.856
26836SOL    HW182515   1.786  15.011  10.898
26836SOL    HW282516  23.823   3.903  10.770
26837SOL     OW82517   4.573   8.510   1.095
26837SOL    HW182518   4.579   8.605  -9.961
26837SOL    HW282519   4.652  -2.565   1.055
26838SOL     OW82520   1.238   9.113   0.287
26838SOL    HW182521  -9.773  -1.873   0.213
26838SOL    HW282522   1.311   9.053   0.303
26839SOL     OW82523  10.292   1.006   8.397
26839SOL    HW182524  10.383 -10.055  -2.667
26839SOL    HW282525  10.295   1.100   8.418
26840SOL     OW82526   9.696   9.828   5.732
26840SOL    HW182527   9.782  -1.204  16.731
26840SOL    HW282528  -1.405   9.858  16.704
26841SOL     OW82529   5.764  10.867   6.141
26841SOL    HW182530   5.717  10.892   6.220
26841SOL    HW282531   5.794  -0.262   6.159
26842SOL     OW82532   3.885   7.075  11.504
26842SOL    HW182533   3.905   7.046  11.415
26842SOL    HW282534  25.945   7.169   0.456
26843SOL     OW82535   1.091   8.010   1.415
26843SOL    HW182536   1.111   7.918   1.401
26843SOL    HW282537   0.998   8.011  -9.603
26844SOL     OW82538   2.665   1.926  10.740
26844SOL    HW182539  13.796  12.940  10.751
26844SOL    HW282540   2.649  13.030 -11.271
26845SOL     OW82541   7.939   7.094   4.793
26845SOL    HW182542   7.951   6.999  -6.243
26845SOL    HW282543   7.853   7.105   4.752
26846SOL     OW82544   1.535   3.529   8.033
26846SOL    HW182545   1.489   3.574   8.104
26846SOL    HW282546   1.468   3.472   7.994
26847SOL     OW82547   2.672   7.915   9.046
26847SOL    HW182548   2.739   7.849   9.025
26847SOL    HW282549  13.631   7.864  20.099
26848SOL     OW82550   9.535  14.219   0.703
26848SOL    HW182551  20.522 -18.821  11.730
26848SOL    HW282552   9.623 -29.914   0.675
26849SOL     OW82553   9.825   5.601   9.973
26849SOL    HW182554   9.790   5.547  10.043
26849SOL    HW282555   9.807   5.552   9.893
26850SOL     OW82556   5.397  10.606   3.172
26850SOL    HW182557   5.481  21.615  -7.900
26850SOL    HW282558   5.335  -0.453   3.101
26851SOL     OW82559   7.048   4.595   3.074
26851SOL    HW182560   6.959   4.630  14.127
26851SOL    HW282561   7.042   4.544   2.993
26852SOL     OW82562   9.318   3.233   7.261
26852SOL    HW182563   9.269  -7.758   7.195
26852SOL    HW282564  -1.788   3.182  18.347
26853SOL     OW82565   1.436   0.514   5.857
26853SOL    HW182566  -9.593  22.585   5.952
26853SOL    HW282567   1.345  44.700   5.845
26854SOL     OW82568   1.832   4.765   7.554
26854SOL    HW182569   1.792   4.697  -3.430
26854SOL    HW282570   1.912   4.790   7.600
26855SOL     OW82571   2.618  10.705   1.385
26855SOL    HW182572  -8.332  -0.303  -9.662
26855SOL    HW282573   2.587  10.739   1.469
26856SOL     OW82574   9.428   2.187   5.618
26856SOL    HW182575  -1.602   2.117  -5.357
26856SOL    HW282576   9.337   2.216   5.627
26857SOL     OW82577   7.398   3.741   4.630
26857SOL    HW182578  18.531   3.756  -6.422
26857SOL    HW282579  18.409   3.699  15.588
26858SOL     OW82580   3.864   7.035   7.499
26858SOL    HW182581   3.947   7.004   7.462
26858SOL    HW282582   3.813  17.995   7.512
26859SOL     OW82583   6.079  10.244   2.071
26859SOL    HW182584   6.041  -0.719   2.028
26859SOL    HW282585 -16.077  10.192  13.138
26860SOL     OW82586   4.275  10.701   3.015
26860SOL    HW182587  -6.722  10.650   3.084
26860SOL    HW282588 -17.739  10.708 -30.173
26861SOL     OW82589   1.559   5.116   4.155
26861SOL    HW182590   1.652   5.108   4.179
26861SOL    HW282591   1.544  16.085 -17.987
26862SOL     OW82592   0.375   0.683  10.433
26862SOL    HW182593   0.344   0.754  10.376
26862SOL    HW282594   0.399   0.613  10.374
26863SOL     OW82595   8.781   4.907   1.761
26863SOL    HW182596   8.701   4.857  34.864
26863SOL    HW282597   8.850   4.840  12.805
26864SOL     OW82598   8.024   6.242  10.436
26864SOL    HW182599   8.072   6.207  10.510
26864SOL    HW282600   8.057   6.331  -0.615
26865SOL     OW82601   9.973   3.051   9.886
26865SOL    HW182602  20.946   3.052  -1.084
26865SOL    HW282603  10.008   3.140   9.885
26866SOL     OW82604  10.587   4.505  10.904
26866SOL    HW182605  10.587 -17.484  10.936
26866SOL    HW282606  10.505  -6.572  10.937
26867SOL     OW82607   4.701   8.974  10.476
26867SOL    HW182608   4.717  19.962  10.554
26867SOL    HW282609   4.738   8.921  10.404
26868SOL     OW82610   5.280   9.565   7.079
26868SOL    HW182611   5.315   9.652   7.058
26868SOL    HW282612 -16.742  -1.508   7.148
26869SOL     OW82613   0.096   2.832   9.098
26869SOL    HW182614   0.049 -19.217   9.020
26869SOL    HW282615   0.166   2.776   9.064
26870SOL     OW82616   7.406  -0.481   9.627
26870SOL    HW182617   7.414  10.653   9.622
26870SOL    HW282618  18.469  -0.512   9.539
26871SOL     OW82619  11.677   4.471   6.038
26871SOL    HW182620 -10.477   4.531   6.029
26871SOL    HW282621  11.651   4.393   5.989
26872SOL     OW82622   1.971   7.847   2.496
26872SOL    HW182623   2.009   7.915   2.552
26872SOL    HW282624   1.878   7.846   2.519
26873SOL     OW82625   7.994   5.753   8.784
26873SOL    HW182626  19.080   5.831   8.813
26873SOL    HW282627  30.048   5.773   8.693
26874SOL     OW82628   2.904   6.803   4.073
26874SOL    HW182629   2.875 -15.211   4.010
26874SOL    HW282630   2.894  -4.195   4.159
26875SOL     OW82631   7.435   2.658   9.433
26875SOL    HW182632  -3.567  24.675  20.411
26875SOL    HW282633  -3.597  13.654   9.518
26876SOL     OW82634   9.936   6.124   1.859
26876SOL    HW182635   9.953   6.209   1.900
26876SOL    HW282636   9.908 -26.973   1.770
26877SOL     OW82637   2.300   6.387   2.798
26877SOL    HW182638  13.292   6.321   2.848
26877SOL    HW282639   2.331   6.450   2.863
26878SOL     OW82640   0.665  10.843   0.820
26878SOL    HW182641   0.677 -11.331 -10.218
26878SOL    HW282642 -10.295  10.876  11.817
26879SOL     OW82643   0.442   2.005   6.142
26879SOL    HW182644   0.479   1.924  17.145
26879SOL    HW282645   0.500   2.074   6.111
26880SOL     OW82646   8.149   9.458   6.137
26880SOL    HW182647  41.248 -12.528  28.224
26880SOL    HW282648   8.085   9.425   6.074
26881SOL     OW82649   7.874   5.923   4.663
26881SOL    HW182650   7.831   6.000   4.699
26881SOL    HW282651   7.856  16.893   4.726
26882SOL     OW82652  12.846  -0.095   1.458
26882SOL    HW182653 -20.256 -11.055   1.408
26882SOL    HW282654  12.834  21.916 -20.688
26883SOL     OW82655   9.043   1.702  11.091
26883SOL    HW182656   9.046  -9.252  11.049
26883SOL    HW282657   9.066   1.719 -10.897
26884SOL     OW82658   1.522   9.881   9.733
26884SOL    HW182659   1.493   9.846   9.817
26884SOL    HW282660   1.602   9.930   9.753
26885SOL     OW82661  10.363   7.586   5.477
26885SOL    HW182662  10.350   7.637  16.596
26885SOL    HW282663  10.279  18.579  16.504
26886SOL     OW82664   1.398   7.111   8.177
26886SOL    HW182665   1.432  18.065   8.152
26886SOL    HW282666   1.461 -14.935   8.241
26887SOL     OW82667   4.426   0.308   8.902
26887SOL    HW182668   4.334  11.372  -2.150
26887SOL    HW282669   4.456   0.363   8.974
26888SOL     OW82670   8.626   4.664   6.842
26888SOL    HW182671   8.543   4.712  28.917
26888SOL    HW282672   8.607  -6.460   6.801
26889SOL     OW82673   6.714   6.061   5.415
26889SOL    HW182674  -4.269  -4.903  16.440
26889SOL    HW282675   6.748   5.994 -16.724
26890SOL     OW82676   6.778   1.350   0.037
26890SOL    HW182677   6.773  12.358  -0.053
26890SOL    HW282678   6.831   1.430   0.032
26891SOL     OW82679   0.555   8.757   3.765
26891SOL    HW182680   0.507   8.839  14.817
26891SOL    HW282681   0.617   8.776   3.695
26892SOL     OW82682   6.542  10.059   7.601
26892SOL    HW182683   6.563  10.139 -14.527
26892SOL    HW282684   6.563   9.988  -3.499
26893SOL     OW82685   2.197  10.129   4.083
26893SOL    HW182686   2.276  21.118   4.061
26893SOL    HW282687  -8.881  10.083 -28.961
26894SOL     OW82688   8.353   4.634   4.029
26894SOL    HW182689   8.377   4.568   3.963
26894SOL    HW282690   8.258  -6.400 -29.096
26895SOL     OW82691   2.853   7.690  10.244
26895SOL    HW182692   2.810  29.820  10.313
26895SOL    HW282693   2.783   7.634  10.208
26896SOL     OW82694   4.805   4.865   3.399
26896SOL    HW182695   4.809   4.929   3.470
26896SOL    HW282696  -6.327  26.941   3.374
26897SOL     OW82697   5.198  10.516   5.112
26897SOL    HW182698   5.291  10.493  16.150
26897SOL    HW282699   5.197  10.611  27.181
26898SOL     OW82700   3.751   7.688   0.097
26898SOL    HW182701 -18.258  -3.293  11.108
26898SOL    HW282702  -7.258   7.600   0.076
26899SOL     OW82703   8.868   0.992   9.981
26899SOL    HW182704   8.905  12.020   9.893
26899SOL    HW282705  -2.202  12.122   9.982
26900SOL     OW82706  10.405   5.998   8.823
26900SOL    HW182707  21.448   5.905   8.843
26900SOL    HW282708  10.494   6.021   8.798
26901SOL     OW82709   4.887   8.906   0.168
26901SOL    HW182710   4.961   8.845   0.160
26901SOL    HW282711   4.925   8.992   0.148
26902SOL     OW82712   2.923  10.139   8.489
26902SOL    HW182713   2.963  10.187 -13.662
26902SOL    HW282714   2.982  10.066  -2.534
26903SOL     OW82715  -0.218   3.619   3.329
26903SOL    HW182716  21.927  -7.351   3.315
26903SOL    HW282717  32.828   3.664   3.372
26904SOL     OW82718   8.345   7.177   6.064
26904SOL    HW182719   8.407   7.229   6.013
26904SOL    HW282720   8.393  18.194  17.183
26905SOL     OW82721   3.707   7.801   5.652
26905SOL    HW182722   3.733   7.891   5.669
26905SOL    HW282723   3.704   7.795   5.556
26906SOL     OW82724   6.222   5.898   7.526
26906SOL    HW182725   6.265   5.832 -36.577
26906SOL    HW282726   6.196  27.929   7.447
26907SOL     OW82727   4.210   7.781   1.363
26907SOL    HW182728   4.224   7.857   1.419
26907SOL    HW282729   4.183   7.818   1.279
26908SOL     OW82730  11.115   0.211   5.843
26908SOL    HW182731  11.073   0.259   5.915
26908SOL    HW282732 -10.872   0.236   5.848
26909SOL     OW82733   4.904   7.307  -0.114
26909SOL    HW182734  -6.129   7.388  10.875
26909SOL    HW282735  -6.221  -3.769  -0.137
26910SOL     OW82736  10.876   7.008   7.243
26910SOL    HW182737  -0.159  51.117   7.324
26910SOL    HW282738  10.792   7.055  18.287
26911SOL     OW82739   2.277   4.050   2.339
26911SOL    HW182740 -19.826   3.958  13.374
26911SOL    HW282741  -8.815   4.085  24.490
26912SOL     OW82742   8.251   1.337   4.229
26912SOL    HW182743  -2.700  34.448   4.195
26912SOL    HW282744  19.237   1.285 -17.910
26913SOL     OW82745  10.224   5.979  10.614
26913SOL    HW182746  10.312   5.984  10.577
26913SOL    HW282747  21.268   5.904  10.673
26914SOL     OW82748   2.061   9.642   1.047
26914SOL    HW182749  13.136   9.730   1.059
26914SOL    HW282750   2.092  -1.446   1.124
26915SOL     OW82751  11.721   6.752   5.074
26915SOL    HW182752 -10.410   6.673  16.129
26915SOL    HW282753   0.619   6.816  16.079
26916SOL     OW82754   8.948   0.955   7.477
26916SOL    HW182755 -13.053   0.933  29.607
26916SOL    HW282756   8.929   1.046  18.540
26917SOL     OW82757   9.440   8.558   5.817
26917SOL    HW182758  20.559   8.559  16.802
26917SOL    HW282759   9.368   8.548  -5.285
26918SOL     OW82760   3.206  11.184   4.217
26918SOL    HW182761  14.268 -21.864  15.196
26918SOL    HW282762 -18.959  11.208  48.411
26919SOL     OW82763   4.532   2.050   5.251
26919SOL    HW182764  -6.453  -8.919   5.216
26919SOL    HW282765  -6.597   2.082   5.243
26920SOL     OW82766   6.292   4.622   1.526
26920SOL    HW182767  17.274   4.677   1.578
26920SOL    HW282768  17.282   4.602  12.486
26921SOL     OW82769   4.104   2.276   4.618
26921SOL    HW182770   4.032   2.338  37.731
26921SOL    HW282771   4.172   2.322   4.668
26922SOL     OW82772   8.345   2.480   1.459
26922SOL    HW182773   8.261   2.483   1.414
26922SOL    HW282774   8.360  35.688   1.490
26923SOL     OW82775   9.359   0.248   2.841
26923SOL    HW182776   9.453   0.231   2.833
26923SOL    HW282777   9.320   0.209   2.762
26924SOL     OW82778   6.973   9.604   7.808
26924SOL    HW182779  -4.074   9.668   7.737
26924SOL    HW282780   6.914   9.533   7.782
26925SOL     OW82781   4.602   4.568  11.337
26925SOL    HW182782   4.572   4.636   0.357
26925SOL    HW282783   4.682   4.604  11.298
26926SOL     OW82784   8.664   6.312   0.908
26926SOL    HW182785   8.606   6.236   0.902
26926SOL    HW282786   8.697   6.311   0.998
26927SOL     OW82787   6.773   3.532   0.504
26927SOL    HW182788   6.860   3.551   0.468
26927SOL    HW282789   6.776  -7.600   0.528
26928SOL     OW82790   1.906   8.196   1.536
26928SOL    HW182791   1.903   8.105   1.565
26928SOL    HW282792   1.978   8.235   1.586
26929SOL     OW82793   6.123   1.365   1.139
26929SOL    HW182794   6.102   1.320   1.221
26929SOL    HW282795   6.069   1.444   1.140
26930SOL     OW82796   6.037   8.573  10.511
26930SOL    HW182797   6.093   8.530  10.446
26930SOL    HW282798  17.131  41.763  10.545
26931SOL     OW82799   8.721   7.765   7.749
26931SOL    HW182800  19.681   7.714   7.733
26931SOL    HW282801   8.702   7.850   7.711
26932SOL     OW82802   8.285   7.191   1.234
26932SOL    HW182803   8.211   7.137  34.327
26932SOL    HW282804   8.348  40.248  12.310
26933SOL     OW82805   5.792   7.388  10.086
26933SOL    HW182806   5.723   7.333  10.123
26933SOL    HW282807   5.769   7.477  -0.928
26934SOL     OW82808  10.069   4.876   4.622
26934SOL    HW182809  10.159   4.900   4.600
26934SOL    HW282810 -12.051   4.854   4.538
26935SOL     OW82811   0.766   2.023   5.995
26935SOL    HW182812 -10.259   1.969   6.073
26935SOL    HW282813   0.818  -8.938  17.051
26936SOL     OW82814   4.188  10.626   6.990
26936SOL    HW182815   4.107  10.671   7.017
26936SOL    HW282816   4.209  10.569   7.063
26937SOL     OW82817   5.126   4.752   7.784
26937SOL    HW182818   5.099   4.666   7.750
26937SOL    HW282819   5.105   4.813   7.714
26938SOL     OW82820  11.274   5.413   1.705
26938SOL    HW182821   0.323  -5.605   1.676
26938SOL    HW282822  11.227   5.391  12.664
26939SOL     OW82823  11.387   9.800   4.582
26939SOL    HW182824  11.353   9.842  15.543
26939SOL    HW282825   0.288  -1.313  15.638
26940SOL     OW82826   0.077   7.368   1.903
26940SOL    HW182827   0.146   7.395  12.882
26940SOL    HW282828   0.056   7.448   1.952
26941SOL     OW82829   0.198   2.655   1.547
26941SOL    HW182830  11.152   2.683   1.580
26941SOL    HW282831   0.243   2.736   1.525
26942SOL     OW82832   3.305   3.644   7.776
26942SOL    HW182833  -7.724   3.555   7.744
26942SOL    HW282834   3.357   3.698   7.716
26943SOL     OW82835   0.467   4.278   2.533
26943SOL    HW182836   0.486  26.276   2.580
26943SOL    HW282837  11.411   4.282   2.528
26944SOL     OW82838  10.005   1.906   4.474
26944SOL    HW182839   9.911 -20.176   4.488
26944SOL    HW282840  10.024   1.828   4.422
26945SOL     OW82841   0.684   1.221   2.058
26945SOL    HW182842   0.683   1.292  13.033
26945SOL    HW282843   0.753   1.247 -19.960
26946SOL     OW82844   1.285   4.922   4.580
26946SOL    HW182845   1.329   4.846   4.542
26946SOL    HW282846   1.193   4.897  15.624
26947SOL     OW82847   3.758   6.999   3.794
26947SOL    HW182848  -7.229   7.037   3.865
26947SOL    HW282849   3.687   7.063   3.780
26948SOL     OW82850   2.582   2.996   4.790
26948SOL    HW182851   2.575   3.078  15.879
26948SOL    HW282852   2.652   2.948  15.873
26949SOL     OW82853   9.781   5.789   5.692
26949SOL    HW182854   9.798   5.706  16.687
26949SOL    HW282855   9.690   5.810   5.671
26950SOL     OW82856   0.957   8.584  10.519
26950SOL    HW182857   0.873   8.624  -0.502
26950SOL    HW282858   1.016   8.618  10.586
26951SOL     OW82859  12.156   1.630   4.165
26951SOL    HW182860   1.212   1.637   4.159
26951SOL    HW282861  -9.956   1.707   4.119
26952SOL     OW82862   8.732   0.643   8.278
26952SOL    HW182863  19.804   0.554  -2.770
26952SOL    HW282864   8.655   0.647   8.221
26953SOL     OW82865   1.671   4.354   4.488
26953SOL    HW182866  12.632   4.317   4.449
26953SOL    HW282867  -9.383   4.350   4.582
26954SOL     OW82868   8.550   7.332  10.482
26954SOL    HW182869   8.524  29.336  10.536
26954SOL    HW282870  19.562  29.487  10.533
26955SOL     OW82871   4.956   1.718   1.422
26955SOL    HW182872  26.990   1.740   1.340
26955SOL    HW282873  -6.093   1.796   1.476
26956SOL     OW82874   8.849   8.534   8.453
26956SOL    HW182875   8.882   8.503  -2.671
26956SOL    HW282876   8.927   8.567 -13.581
26957SOL     OW82877  11.208   4.668   9.454
26957SOL    HW182878 -21.934  26.840 -12.625
26957SOL    HW282879  11.162   4.631   9.379
26958SOL     OW82880   5.599   2.401   5.505
26958SOL    HW182881  -5.515   2.347   5.530
26958SOL    HW282882 -38.486  -8.674   5.557
26959SOL     OW82883   8.304   1.616   6.563
26959SOL    HW182884   8.327   1.622   6.470
26959SOL    HW282885   8.237   1.548   6.566
26960SOL     OW82886   9.844  10.263   5.948
26960SOL    HW182887   9.904  -0.830  -5.040
26960SOL    HW282888   9.863  21.393 -27.144
26961SOL     OW82889  11.223   0.733   7.852
26961SOL    HW182890 -32.927   0.811   7.906
26961SOL    HW282891  11.133   0.704   7.866
26962SOL     OW82892   2.936  10.318   6.586
26962SOL    HW182893   2.927  10.351   6.497
26962SOL    HW282894  24.979  10.388   6.641
26963SOL     OW82895   7.674   9.078   1.945
26963SOL    HW182896  18.721   9.049  -9.186
26963SOL    HW282897  51.911   9.042   1.987
26964SOL     OW82898  -0.173   4.821   8.232
26964SOL    HW182899  10.857   4.743  19.327
26964SOL    HW282900  -0.088   4.809   8.190
26965SOL     OW82901   6.385   8.105   0.974
26965SOL    HW182902  17.390   8.128   1.060
26965SOL    HW282903   6.454   8.041   0.993
26966SOL     OW82904   1.322   6.972   8.506
26966SOL    HW182905   1.403  18.023  -2.484
26966SOL    HW282906   1.309   7.056  19.501
26967SOL     OW82907   3.936   0.051   0.313
26967SOL    HW182908   3.918  11.149   0.239
26967SOL    HW282909  -7.190 -11.005  11.391
26968SOL     OW82910   7.648  -1.437   5.801
26968SOL    HW182911   7.575   9.618  16.780
26968SOL    HW282912   7.702  31.617  16.795
26969SOL     OW82913   7.067  -0.716   5.125
26969SOL    HW182914   7.023  21.448   5.131
26969SOL    HW282915   7.057  -0.756  16.251
26970SOL     OW82916   8.693   9.378   2.679
26970SOL    HW182917   8.685  -1.638   2.771
26970SOL    HW282918  30.814   9.292  24.759
26971SOL     OW82919   6.218   4.309   1.649
26971SOL    HW182920  17.250   4.348  34.681
26971SOL    HW282921   6.149   4.242   1.651
26972SOL     OW82922   1.594   5.085   8.962
26972SOL    HW182923   1.672   5.033  19.982
26972SOL    HW282924   1.626   5.160   9.012
26973SOL     OW82925   6.419   9.259   2.886
26973SOL    HW182926   6.455   9.208   2.813
26973SOL    HW282927   6.423   9.200   2.961
26974SOL     OW82928   8.121   1.287   1.236
26974SOL    HW182929   8.154  -9.742  12.364
26974SOL    HW282930   8.182   1.225  12.234
26975SOL     OW82931  11.189   6.592   8.016
26975SOL    HW182932  11.111   6.616  19.006
26975SOL    HW282933 -10.843   6.532   7.958
26976SOL     OW82934   6.241   4.347   0.359
26976SOL    HW182935  -4.797  15.460   0.420
26976SOL    HW282936   6.291   4.378   0.283
26977SOL     OW82937   7.249   0.891   7.203
26977SOL    HW182938  -3.840   0.915  -3.758
26977SOL    HW282939  -3.699   0.892   7.231
26978SOL     OW82940  11.786   6.651   5.716
26978SOL    HW182941 -10.363 -26.440  -5.383
26978SOL    HW282942   0.700  -4.426   5.791
26979SOL     OW82943   4.200   3.018   0.370
26979SOL    HW182944   4.221  13.998   0.298
26979SOL    HW282945   4.197   2.961  11.487
26980SOL     OW82946   7.566  -1.501   1.021
26980SOL    HW182947   7.594  -1.460  -9.936
26980SOL    HW282948   7.474  31.594   1.036
26981SOL     OW82949   8.383  10.921   1.617
26981SOL    HW182950   8.287  10.926   1.614
26981SOL    HW282951  -2.633  10.874   1.537
26982SOL     OW82952   2.840   4.200  10.144
26982SOL    HW182953   2.829   4.105  10.131
26982SOL    HW282954   2.927   4.208  10.184
26983SOL     OW82955   8.357   1.890  10.343
26983SOL    HW182956   8.448   1.866  10.360
26983SOL    HW282957   8.307   1.848  10.413
26984SOL     OW82958   9.920  10.483   8.819
26984SOL    HW182959   9.963 -11.660  19.801
26984SOL    HW282960   9.878  10.545  19.798
26985SOL     OW82961   4.517  -0.186   1.785
26985SOL    HW182962  15.607  21.956   1.837
26985SOL    HW282963   4.497  -0.257  12.885
26986SOL     OW82964   4.118   7.382   4.890
26986SOL    HW182965   4.049   7.425   4.840
26986SOL    HW282966   4.179   7.349  -6.215
26987SOL     OW82967   3.561   4.652   1.353
26987SOL    HW182968   3.491   4.667  12.456
26987SOL    HW282969  -7.399  15.695  -9.635
26988SOL     OW82970   4.451   1.218   0.504
26988SOL    HW182971   4.390  12.325  11.573
26988SOL    HW282972  37.607  -9.786  22.503
26989SOL     OW82973   3.003  10.724   8.630
26989SOL    HW182974   2.916  10.748   8.662
26989SOL    HW282975  14.059  10.638   8.669
26990SOL     OW82976  10.876   9.998   0.943
26990SOL    HW182977  10.964   9.979  12.014
26990SOL    HW282978  10.818   9.945   0.997
26991SOL     OW82979  10.997   7.898   9.826
26991SOL    HW182980  10.959   7.825 -12.204
26991SOL    HW282981  10.970   7.976  20.914
26992SOL     OW82982   2.565   7.246  12.093
26992SOL    HW182983   2.510   7.186   1.104
26992SOL    HW282984  -8.531   7.276   0.982
26993SOL     OW82985   1.661   5.416   7.381
26993SOL    HW182986  12.667  16.498 -14.619
26993SOL    HW282987   1.733   5.473  -3.687
26994SOL     OW82988   4.680   5.278   6.383
26994SOL    HW182989  -6.405  27.439   6.402
26994SOL    HW282990   4.690   5.277   6.287
26995SOL     OW82991   3.807   6.449   7.617
26995SOL    HW182992   3.767   6.479   7.536
26995SOL    HW282993   3.824   6.356  -3.436
26996SOL     OW82994  -2.368   7.475   2.134
26996SOL    HW182995  52.807   7.476 -19.852
26996SOL    HW282996  -2.451   7.460   2.090
26997SOL     OW82997   4.259   9.488  11.035
26997SOL    HW182998   4.184   9.509  11.090
26997SOL    HW282999  -6.741  20.612  11.015
26998SOL     OW83000   1.879   9.367   9.353
26998SOL    HW183001 -31.319   9.368  -1.633
26998SOL    HW283002   1.928   9.444   9.383
26999SOL     OW83003   3.868   1.412   0.695
26999SOL    HW183004   3.854   1.318  11.719
26999SOL    HW283005   3.871   1.450 -10.432
27000SOL     OW83006   5.778   0.946   0.310
27000SOL    HW183007   5.774   1.036   0.343
27000SOL    HW283008   5.851   0.907  22.436
27001SOL     OW83009   2.826   7.452   5.402
27001SOL    HW183010   2.832  -3.528   5.327
27001SOL    HW283011   2.918   7.434  16.465
27002SOL     OW83012   6.306   5.537   5.646
27002SOL    HW183013  -4.795   5.473   5.610
27002SOL    HW283014 -15.824  38.737   5.653
27003SOL     OW83015  -0.009   6.943   8.422
27003SOL    HW183016  10.988  -4.063   8.343
27003SOL    HW283017   0.046   7.015   8.452
27004SOL     OW83018  11.986   3.808   6.001
27004SOL    HW183019   1.010   3.880   6.008
27004SOL    HW283020 -10.121  14.832 -15.988
27005SOL     OW83021   0.328   6.204   8.829
27005SOL    HW183022   0.342   6.297  -2.194
27005SOL    HW283023   0.399   6.160   8.877
27006SOL     OW83024   6.215  11.001   9.970
27006SOL    HW183025   6.187  11.091   9.954
27006SOL    HW283026  -4.750  10.988  -1.129
27007SOL     OW83027   6.540   9.515   4.690
27007SOL    HW183028   6.574   9.605   4.690
27007SOL    HW283029   6.450   9.523   4.661
27008SOL     OW83030  -0.042   6.810  -0.478
27008SOL    HW183031  11.070 -15.286  -0.417
27008SOL    HW283032  -0.019   6.758  10.484
27009SOL     OW83033   9.329   6.144   6.850
27009SOL    HW183034   9.248   6.117   6.807
27009SOL    HW283035   9.380   6.063  -4.182
27010SOL     OW83036   8.309   3.151   4.212
27010SOL    HW183037   8.369   3.226  -6.832
27010SOL    HW283038   8.364  -7.965  -6.844
27011SOL     OW83039   9.035   6.011   7.501
27011SOL    HW183040   9.078   5.931   7.471
27011SOL    HW283041  20.063  17.103   7.423
27012SOL     OW83042   8.932   4.082   6.420
27012SOL    HW183043 -13.127   4.173   6.443
27012SOL    HW283044  -2.163   4.089  17.382
27013SOL     OW83045   6.345   0.985  10.583
27013SOL    HW183046  -4.647  23.015  10.649
27013SOL    HW283047   6.297   1.052  10.632
27014SOL     OW83048   1.780   7.117   2.182
27014SOL    HW183049   1.723  18.231   2.202
27014SOL    HW283050   1.737   7.042  13.261
27015SOL     OW83051   8.427   6.291   7.868
27015SOL    HW183052 -13.720   6.352   7.896
27015SOL    HW283053   8.395   6.205   7.897
27016SOL     OW83054   6.157  11.046   2.980
27016SOL    HW183055 -16.012  11.077   2.992
27016SOL    HW283056   6.147 -11.127   2.960
27017SOL     OW83057   3.233   6.623   0.254
27017SOL    HW183058  14.179   6.622   0.275
27017SOL    HW283059   3.243   6.695   0.192
27018SOL     OW83060   2.318   7.362  10.199
27018SOL    HW183061   2.344  51.612  10.191
27018SOL    HW283062   2.224   7.363  10.183
27019SOL     OW83063   8.237  10.315   6.669
27019SOL    HW183064   8.315  -0.741 -26.396
27019SOL    HW283065   8.170  10.257   6.706
27020SOL     OW83066   7.894   1.126   6.742
27020SOL    HW183067   7.833   1.068  17.827
27020SOL    HW283068   7.968   1.070  39.838
27021SOL     OW83069   9.352   6.354  10.013
27021SOL    HW183070   9.412   6.287  10.046
27021SOL    HW283071   9.409   6.422 -12.100
27022SOL     OW83072   3.836   7.550   7.869
27022SOL    HW183073  25.993 -25.516   7.884
27022SOL    HW283074   3.840  29.562   7.938
27023SOL     OW83075   5.167   4.332   4.200
27023SOL    HW183076   5.213  15.446  15.278
27023SOL    HW283077   5.119  -6.670  15.165
27024SOL     OW83078   4.030   0.170   7.401
27024SOL    HW183079  -7.068   0.196   7.472
27024SOL    HW283080   4.115  22.289   7.423
27025SOL     OW83081   8.705   0.199   4.530
27025SOL    HW183082  -2.317   0.239   4.615
27025SOL    HW283083   8.653   0.122   4.550
27026SOL     OW83084   3.331   6.553   1.154
27026SOL    HW183085   3.325  28.592   1.241
27026SOL    HW283086   3.287   6.637  23.243
27027SOL     OW83087   8.584   3.778   7.358
27027SOL    HW183088   8.665   3.771  18.346
27027SOL    HW283089   8.609  14.784   7.445
27028SOL     OW83090   4.701   8.634   4.410
27028SOL    HW183091   4.785   8.603   4.446
27028SOL    HW283092   4.719  -2.316 -17.698
27029SOL     OW83093   4.772  10.415   2.582
27029SOL    HW183094   4.854  10.465   2.584
27029SOL    HW283095   4.704  10.481  -8.449
27030SOL     OW83096   5.916   2.883  10.369
27030SOL    HW183097   5.909   2.965  10.419
27030SOL    HW283098   5.965  -8.133  10.290
27031SOL     OW83099   9.380   5.216   4.017
27031SOL    HW183100  -1.625   5.305   4.012
27031SOL    HW283101   9.434   5.165   3.956
27032SOL     OW83102   9.000   5.065   0.021
27032SOL    HW183103   8.944   5.140   0.001
27032SOL    HW283104   8.943  -6.036  11.107
27033SOL     OW83105   2.400   1.430   5.858
27033SOL    HW183106   2.313   1.445   5.894
27033SOL    HW283107   2.385   1.388  -5.266
27034SOL     OW83108   3.657   4.699   4.324
27034SOL    HW183109   3.695   4.779  26.441
27034SOL    HW283110   3.701  -6.351   4.240
27035SOL     OW83111   1.559   1.248   2.770
27035SOL    HW183112  23.574   1.225  13.876
27035SOL    HW283113  23.602   1.327 -30.390
27036SOL     OW83114   7.181   0.642   5.519
27036SOL    HW183115   7.138   0.561   5.545
27036SOL    HW283116   7.115  11.749  -5.505
27037SOL     OW83117   6.240   4.820  10.950
27037SOL    HW183118 -15.787   4.877  11.006
27037SOL    HW283119  -4.866  37.901  11.009
27038SOL     OW83120   3.500   7.313   4.753
27038SOL    HW183121   3.550   7.334   4.675
27038SOL    HW283122   3.414 -14.794   4.720
27039SOL     OW83123   9.088   0.956   4.048
27039SOL    HW183124   9.144   1.011  15.033
27039SOL    HW283125  20.186  23.001   4.115
27040SOL     OW83126  10.938   9.599  11.538
27040SOL    HW183127  10.940   9.571  11.447
27040SOL    HW283128  11.020  20.605   0.536
27041SOL     OW83129   2.146   4.756   4.630
27041SOL    HW183130   2.070   4.700   4.646
27041SOL    HW283131 -19.964   4.845   4.649
27042SOL     OW83132   5.066   2.358   5.031
27042SOL    HW183133   5.017  46.435  -6.019
27042SOL    HW283134   5.154   2.338   5.000
27043SOL     OW83135   3.684   4.407   7.394
27043SOL    HW183136   3.708   4.472   7.460
27043SOL    HW283137 -18.470 -17.632   7.348
27044SOL     OW83138   3.262   8.899   8.847
27044SOL    HW183139   3.236   8.958   8.776
27044SOL    HW283140  25.431   8.874   8.826
27045SOL     OW83141   2.937  -4.257   1.009
27045SOL    HW183142   2.854  17.799   1.051
27045SOL    HW283143  14.037  50.956   1.082
27046SOL     OW83144   9.830   2.624   2.599
27046SOL    HW183145   9.790   2.587   2.678
27046SOL    HW283146  20.814   2.698   2.576
27047SOL     OW83147   5.910   7.040  10.233
27047SOL    HW183148  28.074 -15.084  10.231
27047SOL    HW283149   5.929   7.125  10.273
27048SOL     OW83150   0.786   7.729   4.088
27048SOL    HW183151 -10.194  -3.340  26.236
27048SOL    HW283152   0.824   7.811  15.096
27049SOL     OW83153   7.020   1.351   2.436
27049SOL    HW183154   6.991  23.512   2.476
27049SOL    HW283155   6.977 -20.729   2.350
27050SOL     OW83156   0.386   2.188   5.269
27050SOL    HW183157 -21.730  -8.810   5.347
27050SOL    HW283158  22.533  13.288   5.240
27051SOL     OW83159   9.155   0.929   8.902
27051SOL    HW183160   9.230   0.870   8.905
27051SOL    HW283161   9.121   0.920 -35.346
27052SOL     OW83162   9.498   2.939   2.681
27052SOL    HW183163  20.504   2.946  -8.447
27052SOL    HW283164  20.557   2.846  -8.348
27053SOL     OW83165  11.589  -1.061   9.104
27053SOL    HW183166   0.590  -1.031 -12.894
27053SOL    HW283167  11.500  20.993   9.129
27054SOL     OW83168   0.371   4.546  11.581
27054SOL    HW183169  11.461   4.536 -21.618
27054SOL    HW283170  11.354   4.621  11.565
27055SOL     OW83171   8.963   8.129   1.359
27055SOL    HW183172   8.991   8.204   1.412
27055SOL    HW283173   8.867   8.136   1.357
27056SOL     OW83174  10.234   9.867   8.712
27056SOL    HW183175 -11.906   9.821   8.770
27056SOL    HW283176  -0.734  20.844   8.699
27057SOL     OW83177   9.023   4.571   4.973
27057SOL    HW183178   9.107   4.563  16.057
27057SOL    HW283179   9.026   4.505   4.904
27058SOL     OW83180   1.204   9.322   4.266
27058SOL    HW183181   1.123 -12.802   4.286
27058SOL    HW283182   1.194   9.351   4.175
27059SOL     OW83183   4.760   2.406   8.445
27059SOL    HW183184   4.809   2.451   8.514
27059SOL    HW283185  -6.349  13.506   8.421
27060SOL     OW83186   3.642   1.615   0.263
27060SOL    HW183187  14.751  -9.422   0.198
27060SOL    HW283188   3.673  -9.368   0.333
27061SOL     OW83189   1.492   2.965   6.784
27061SOL    HW183190   1.511   2.881   6.826
27061SOL    HW283191   1.441   3.014  -4.192
27062SOL     OW83192   5.645   0.812   7.878
27062SOL    HW183193   5.687   0.858   7.950
27062SOL    HW283194   5.566   0.773   7.917
27063SOL     OW83195   7.203   1.524   0.067
27063SOL    HW183196  -3.748  -9.477   0.072
27063SOL    HW283197   7.212   1.449  22.088
27064SOL     OW83198   7.619  -0.887   1.928
27064SOL    HW183199  51.726  21.119   1.893
27064SOL    HW283200  18.693  21.237   1.851
27065SOL     OW83201  -1.091   6.260  -0.790
27065SOL    HW183202   9.879  -4.830  32.371
27065SOL    HW283203  20.971   6.350  -0.763
27066SOL     OW83204   8.955  -0.948   7.540
27066SOL    HW183205   8.972  21.094   7.454
27066SOL    HW283206   8.869  -0.982   7.564
27067SOL     OW83207  11.803   5.152   1.738
27067SOL    HW183208 -10.326  -5.840   1.672
27067SOL    HW283209 -10.320   5.173  -9.219
27068SOL     OW83210   4.277   4.987   0.977
27068SOL    HW183211   4.358   5.008   0.930
27068SOL    HW283212  -6.810   5.070   0.981
27069SOL     OW83213   8.655   2.762   1.055
27069SOL    HW183214   8.631 -30.447  -9.964
27069SOL    HW283215   8.719  -8.254   1.123
27070SOL     OW83216   9.512   3.455   4.817
27070SOL    HW183217  -1.511   3.441   4.910
27070SOL    HW283218  -1.442   3.443   4.775
27071SOL     OW83219   3.534   2.529   4.018
27071SOL    HW183220   3.467  35.713  -7.002
27071SOL    HW283221   3.612  -8.480  -6.975
27072SOL     OW83222   3.558   6.921  10.942
27072SOL    HW183223   3.644  17.922  10.923
27072SOL    HW283224  25.590   6.918  10.859
27073SOL     OW83225  10.316   8.711   6.853
27073SOL    HW183226  10.379   8.726   6.783
27073SOL    HW283227  10.332   8.621   6.881
27074SOL     OW83228   6.690  12.363   3.278
27074SOL    HW183229   6.727 -20.669  14.328
27074SOL    HW283230   6.756  -9.776   3.313
27075SOL     OW83231   3.503   9.219   9.906
27075SOL    HW183232   3.522  20.229   9.817
27075SOL    HW283233   3.448   9.150   9.943
27076SOL     OW83234   2.129   6.930   6.052
27076SOL    HW183235   2.147 -26.116  17.151
27076SOL    HW283236   2.104   6.972  -5.070
27077SOL     OW83237   3.316   0.520   0.982
27077SOL    HW183238   3.286   0.608  23.085
27077SOL    HW283239   3.398  11.548   1.029
27078SOL     OW83240   3.586   0.791   8.481
27078SOL    HW183241  14.641 -10.187   8.408
27078SOL    HW283242   3.608   0.705   8.445
27079SOL     OW83243   0.002   0.438   2.191
27079SOL    HW183244  11.059   0.444   2.285
27079SOL    HW283245  -0.076   0.492   2.178
27080SOL     OW83246   6.244   8.295   7.922
27080SOL    HW183247  50.356   8.226  -3.165
27080SOL    HW283248  17.372  -2.779   7.934
27081SOL     OW83249   4.568   5.966   6.886
27081SOL    HW183250  26.563 -16.153   6.866
27081SOL    HW283251   4.551   6.060  -4.156
27082SOL     OW83252   8.828   6.676  10.888
27082SOL    HW183253   8.839   6.659 -22.137
27082SOL    HW283254  19.816   6.756  10.884
27083SOL     OW83255   5.291   3.064   8.910
27083SOL    HW183256   5.380 -18.981   8.899
27083SOL    HW283257   5.292 -19.057  20.036
27084SOL     OW83258   3.226   5.379   9.746
27084SOL    HW183259   3.190   5.461   9.778
27084SOL    HW283260  14.190   5.323 -12.349
27085SOL     OW83261   4.948   8.142   8.381
27085SOL    HW183262   4.920   8.179  -2.742
27085SOL    HW283263   4.891   8.184   8.446
27086SOL     OW83264   1.336   7.071   9.506
27086SOL    HW183265  -9.698   6.996   9.447
27086SOL    HW283266  23.332 -14.966   9.485
27087SOL     OW83267   7.381  10.429  10.627
27087SOL    HW183268  18.492 -11.703  -0.378
27087SOL    HW283269   7.400  10.518  10.656
27088SOL     OW83270  10.109   3.992   3.261
27088SOL    HW183271 -12.021 -18.135   3.196
27088SOL    HW283272 -23.047   4.081   3.259
27089SOL     OW83273  11.225  11.000  12.102
27089SOL    HW183274   0.118  10.965   1.122
27089SOL    HW283275  11.233  10.934 -32.125
27090SOL     OW83276   5.459   2.269   7.192
27090SOL    HW183277   5.393   2.208  18.263
27090SOL    HW283278 -16.632   2.270   7.097
27091SOL     OW83279   4.087   0.171   3.308
27091SOL    HW183280 -17.937   0.175   3.387
27091SOL    HW283281  15.143   0.255  -7.775
27092SOL     OW83282   6.254   9.054   4.474
27092SOL    HW183283  17.345 -13.005   4.552
27092SOL    HW283284   6.163   9.049   4.506
27093SOL     OW83285  10.317   6.150   0.307
27093SOL    HW183286  -0.697   6.229   0.354
27093SOL    HW283287  21.370   6.079  22.448
27094SOL     OW83288   3.666  10.434   6.364
27094SOL    HW183289  14.655  10.367   6.410
27094SOL    HW283290   3.624  10.516   6.388
27095SOL     OW83291   6.750   0.732   9.858
27095SOL    HW183292   6.720   0.775   9.777
27095SOL    HW283293   6.687  22.838   9.924
27096SOL     OW83294  11.349   0.058   8.013
27096SOL    HW183295   0.261   0.053  -3.109
27096SOL    HW283296   0.399   0.077   7.988
27097SOL     OW83297   5.859   8.830   7.026
27097SOL    HW183298   5.921  -2.137  -4.008
27097SOL    HW283299   5.779   8.863   7.066
27098SOL     OW83300   3.485   5.030  10.751
27098SOL    HW183301 -18.534  -5.967 -22.307
27098SOL    HW283302   3.402  16.117  -0.278
27099SOL     OW83303   6.324   4.730   1.869
27099SOL    HW183304   6.241  -6.353  12.926
27099SOL    HW283305   6.384 -28.459   1.843
27100SOL     OW83306  -0.098   5.403   3.536
27100SOL    HW183307  10.962   5.314  25.644
27100SOL    HW283308  -0.138  -5.595  14.651
27101SOL     OW83309   8.023   5.384   7.022
27101SOL    HW183310   8.097   5.367   7.081
27101SOL    HW283311   7.984  27.544  18.094
27102SOL     OW83312   0.999   5.179   1.593
27102SOL    HW183313   0.931  -5.879   1.658
27102SOL    HW283314   1.018   5.093   1.554
27103SOL     OW83315   0.929   3.802   4.716
27103SOL    HW183316   0.881   3.726   4.748
27103SOL    HW283317   0.919  14.839   4.621
27104SOL     OW83318   5.845   0.355   0.543
27104SOL    HW183319   5.887  22.468  11.504
27104SOL    HW283320   5.897   0.278 -10.473
27105SOL     OW83321   6.936   6.326  10.341
27105SOL    HW183322   6.931  61.514  -0.794
27105SOL    HW283323   7.017   6.282  32.445
27106SOL     OW83324   4.082   0.497   2.850
27106SOL    HW183325   4.075   0.578   2.800
27106SOL    HW283326   4.090   0.428   2.784
27107SOL     OW83327   4.551   4.851  10.415
27107SOL    HW183328  15.575   4.915  -0.555
27107SOL    HW283329   4.476   4.793  -0.622
27108SOL     OW83330   1.137   2.552   3.804
27108SOL    HW183331  12.183   2.645   3.784
27108SOL    HW283332   1.066   2.546  25.947
27109SOL     OW83333   0.450   6.586   0.459
27109SOL    HW183334  22.527  -4.541   0.499
27109SOL    HW283335   0.366   6.594   0.415
27110SOL     OW83336   2.678  11.675   3.318
27110SOL    HW183337   2.648 -10.364   3.237
27110SOL    HW283338   2.636  11.589  -7.721
27111SOL     OW83339   3.727   4.279   8.920
27111SOL    HW183340   3.802   4.267   8.980
27111SOL    HW283341   3.663   4.327  -2.067
27112SOL     OW83342   8.524   2.620   2.037
27112SOL    HW183343   8.485   2.609   2.123
27112SOL    HW283344  19.520  -8.342   2.001
27113SOL     OW83345   3.848   8.331   9.186
27113SOL    HW183346   3.768 -24.774   9.237
27113SOL    HW283347   3.835 -35.913   9.144
27114SOL     OW83348   1.553  10.471   1.810
27114SOL    HW183349   1.602  10.389   1.819
27114SOL    HW283350 -20.584  10.474   1.886
27115SOL     OW83351   0.792   0.689   9.879
27115SOL    HW183352   0.848 -10.285   9.920
27115SOL    HW283353   0.831   0.605  -1.136
27116SOL     OW83354  11.645   7.923   5.159
27116SOL    HW183355 -10.498  29.932   5.146
27116SOL    HW283356   0.658   7.895   5.234
27117SOL     OW83357   9.014   5.014   7.988
27117SOL    HW183358   8.937   4.982   7.942
27117SOL    HW283359   8.995   4.999   8.081
27118SOL     OW83360  10.500   6.123   9.911
27118SOL    HW183361  10.452   6.190  -1.080
27118SOL    HW283362  10.453   6.114   9.828
27119SOL     OW83363  10.254  10.967   8.526
27119SOL    HW183364 -11.834  10.903   8.596
27119SOL    HW283365  10.237  11.051   8.569
27120SOL     OW83366  11.015   1.306   4.521
27120SOL    HW183367  11.068  -9.667  26.556
27120SOL    HW283368  11.079  -9.787   4.568
27121SOL     OW83369   9.023   6.008   4.403
27121SOL    HW183370  20.151   6.030  -6.605
27121SOL    HW283371  -2.024   5.914   4.417
27122SOL     OW83372   2.321   6.784   6.207
27122SOL    HW183373   2.251 -26.294   6.155
27122SOL    HW283374  13.358 -26.427   6.182
27123SOL     OW83375   5.530   7.149   8.183
27123SOL    HW183376   5.484   7.068   8.203
27123SOL    HW283377  -5.554   7.215   8.236
27124SOL     OW83378   6.307   3.327   8.422
27124SOL    HW183379   6.357   3.296   8.347
27124SOL    HW283380  17.375   3.272  -2.545
27125SOL     OW83381   7.332   0.310  10.030
27125SOL    HW183382   7.251   0.310 -23.037
27125SOL    HW283383   7.359   0.402  10.029
27126SOL     OW83384   5.288   1.912   6.991
27126SOL    HW183385   5.195   1.896  -4.065
27126SOL    HW283386   5.299 -20.073   6.979
27127SOL     OW83387   9.437   7.329   2.590
27127SOL    HW183388   9.352   7.288   2.576
27127SOL    HW283389   9.429  18.454   2.547
27128SOL     OW83390  10.009   5.939   5.705
27128SOL    HW183391   9.927  27.970  16.754
27128SOL    HW283392  10.055  -5.147 -16.445
27129SOL     OW83393   2.443   0.196   7.816
27129SOL    HW183394  -8.633   0.131  52.034
27129SOL    HW283395   2.518   0.152   7.776
27130SOL     OW83396   8.796   5.124   3.798
27130SOL    HW183397 -24.389   5.159   3.738
27130SOL    HW283398   8.817   5.197   3.856
27131SOL     OW83399   5.844   8.829   3.568
27131SOL    HW183400 -27.369  -2.195   3.563
27131SOL    HW283401   5.868  -2.238 -18.599
27132SOL     OW83402   5.246   0.105   2.368
27132SOL    HW183403   5.339  22.177  -8.649
27132SOL    HW283404  16.262 -11.021  24.414
27133SOL     OW83405   2.578   5.042   5.068
27133SOL    HW183406  -8.401  16.151   5.096
27133SOL    HW283407   2.601   5.025   4.977
27134SOL     OW83408   4.655   7.008   8.584
27134SOL    HW183409   4.561   7.018  -2.467
27134SOL    HW283410   4.682  -4.090 -13.566
27135SOL     OW83411   6.993   7.353   3.468
27135SOL    HW183412   6.949  18.308   3.466
27135SOL    HW283413   6.923   7.416   3.484
27136SOL     OW83414   3.352  -2.432   6.194
27136SOL    HW183415   3.319   8.685   6.240
27136SOL    HW283416   3.394  30.722   6.115
27137SOL     OW83417   2.917   4.499   5.614
27137SOL    HW183418 -19.119  15.613   5.656
27137SOL    HW283419   2.888   4.444  -5.352
27138SOL     OW83420   2.562  10.971   9.349
27138SOL    HW183421  -8.509  10.892   9.305
27138SOL    HW283422   2.489  11.000   9.403
27139SOL     OW83423  10.204   3.562   2.977
27139SOL    HW183424  10.125  14.561   2.944
27139SOL    HW283425  21.251   3.645   2.929
27140SOL     OW83426   3.978   4.634   0.093
27140SOL    HW183427   4.011   4.626   0.182
27140SOL    HW283428  14.959 -17.370   0.095
27141SOL     OW83429   5.080   9.834   0.867
27141SOL    HW183430  16.130   9.905   0.931
27141SOL    HW283431   5.132  -1.277   0.903
27142SOL     OW83432  10.544   1.419   5.577
27142SOL    HW183433  10.598   1.417   5.498
27142SOL    HW283434  -0.583   1.397  -5.492
27143SOL     OW83435   2.543   9.272   1.744
27143SOL    HW183436   2.620   9.264  23.879
27143SOL    HW283437   2.577   9.268   1.655
27144SOL     OW83438  10.111   4.241   8.354
27144SOL    HW183439  10.153   4.327  -2.693
27144SOL    HW283440  -0.856   4.179  -2.681
27145SOL     OW83441   6.173   7.665   4.268
27145SOL    HW183442  17.252   7.641   4.185
27145SOL    HW283443   6.209  18.642  26.410
27146SOL     OW83444   8.092   3.815   4.243
27146SOL    HW183445   8.156   3.829  37.431
27146SOL    HW283446   8.120   3.734   4.200
27147SOL     OW83447   3.883   0.022   5.843
27147SOL    HW183448   3.915   0.111   5.855
27147SOL    HW283449   3.806   0.016   5.899
27148SOL     OW83450   9.492   2.146   1.652
27148SOL    HW183451  20.604 -19.995   1.647
27148SOL    HW283452  20.553   2.214  -9.452
27149SOL     OW83453   1.605   8.258   3.979
27149SOL    HW183454   1.617  30.243  15.028
27149SOL    HW283455   1.516   8.268   3.944
27150SOL     OW83456   2.819   7.658   9.891
27150SOL    HW183457   2.739   7.662   9.838
27150SOL    HW283458  13.840   7.590   9.957
27151SOL     OW83459   5.425   2.341   4.587
27151SOL    HW183460  -5.593   2.341   4.680
27151SOL    HW283461  16.455  35.552   4.565
27152SOL     OW83462   9.493   9.150   4.781
27152SOL    HW183463   9.484  20.173   4.687
27152SOL    HW283464 -23.698   9.103   4.821
27153SOL     OW83465   6.836   0.062   9.188
27153SOL    HW183466   6.786  22.137 -12.810
27153SOL    HW283467   6.855 -22.108  -1.873
27154SOL     OW83468   9.012   2.893   5.877
27154SOL    HW183469 -13.063   2.821   5.939
27154SOL    HW283470  31.097   2.851   5.791
27155SOL     OW83471   9.674   9.032   3.468
27155SOL    HW183472  31.839   8.991   3.465
27155SOL    HW283473   9.616  20.006   3.507
27156SOL     OW83474   1.744   8.031   7.827
27156SOL    HW183475   1.731 -14.102   7.749
27156SOL    HW283476   1.667   8.088  -3.210
27157SOL     OW83477   9.975   9.896   7.492
27157SOL    HW183478   9.916   9.927  18.600
27157SOL    HW283479   9.925   9.827   7.448
27158SOL     OW83480   8.126   9.260   1.667
27158SOL    HW183481   8.205   9.312  12.719
27158SOL    HW283482   8.059   9.305   1.718
27159SOL     OW83483   6.173   4.112   6.455
27159SOL    HW183484  -4.898   4.065   6.377
27159SOL    HW283485   6.221   4.187   6.420
27160SOL     OW83486   0.288   2.830   6.405
27160SOL    HW183487  11.307  13.895 -15.584
27160SOL    HW283488   0.384   2.824   6.403
27161SOL     OW83489   7.922   1.162   1.439
27161SOL    HW183490  29.969  -9.892   1.350
27161SOL    HW283491   7.935  23.153   1.474
27162SOL     OW83492   6.022   4.108   8.742
27162SOL    HW183493   5.976   4.158  19.849
27162SOL    HW283494   6.003   4.154   8.661
27163SOL     OW83495   2.807   5.447  10.632
27163SOL    HW183496   2.822   5.421  10.541
27163SOL    HW283497   2.854   5.530 -11.438
27164SOL     OW83498   3.285   3.295   0.428
27164SOL    HW183499   3.353  -7.811   0.439
27164SOL    HW283500   3.332   3.378  11.474
27165SOL     OW83501   1.153   4.366   4.829
27165SOL    HW183502  -9.794   4.348   4.842
27165SOL    HW283503   1.122  15.437  26.993
27166SOL     OW83504   0.519   0.180   9.257
27166SOL    HW183505   0.524   0.114   9.326
27166SOL    HW283506   0.598   0.234  20.310
27167SOL     OW83507   8.126   4.896   7.161
27167SOL    HW183508   8.087   4.983   7.171
27167SOL    HW283509  -2.962  -6.183   7.089
27168SOL     OW83510   9.535   3.695   7.717
27168SOL    HW183511   9.474  -7.402   7.764
27168SOL    HW283512   9.519  -7.258   7.753
27169SOL     OW83513   9.836   3.350   3.549
27169SOL    HW183514   9.888 -18.753   3.472
27169SOL    HW283515   9.796   3.433   3.526
27170SOL     OW83516   7.603   0.107   5.637
27170SOL    HW183517   7.603   0.023   5.591
27170SOL    HW283518  29.658   0.171   5.570
27171SOL     OW83519   2.596   3.202   7.635
27171SOL    HW183520   2.521   3.226   7.581
27171SOL    HW283521 -19.516   3.135   7.694
27172SOL     OW83522   6.829   0.792   4.632
27172SOL    HW183523   6.907   0.736   4.635
27172SOL    HW283524   6.842   0.847   4.555
27173SOL     OW83525   8.506   8.933   2.941
27173SOL    HW183526   8.417   8.903  -8.083
27173SOL    HW283527   8.498   8.997   2.870
27174SOL     OW83528   9.658   4.429   7.742
27174SOL    HW183529   9.633  -6.540   7.801
27174SOL    HW283530  -1.410   4.349   7.786
27175SOL     OW83531  11.662  11.593   2.775
27175SOL    HW183532   0.528   0.569   2.767
27175SOL    HW283533  11.669  11.527  -8.196
27176SOL     OW83534   5.286   9.267   3.135
27176SOL    HW183535   5.196   9.299   3.137
27176SOL    HW283536  -5.745  20.263   3.050
27177SOL     OW83537   9.828   9.527   9.574
27177SOL    HW183538   9.910   9.494  -1.429
27177SOL    HW283539  20.884  20.574  -1.560
27178SOL     OW83540   4.000   3.098   3.816
27178SOL    HW183541 -18.115  14.049  -7.232
27178SOL    HW283542   3.931   3.155   3.782
27179SOL     OW83543   1.164   1.369  11.235
27179SOL    HW183544   1.165   1.396 -10.752
27179SOL    HW283545  -9.884   1.274  11.237
27180SOL     OW83546   5.409   1.489   3.831
27180SOL    HW183547   5.397   1.436   3.910
27180SOL    HW283548   5.325   1.533   3.819
27181SOL     OW83549   5.881   3.167   8.082
27181SOL    HW183550   5.953   3.219  -2.924
27181SOL    HW283551   5.846  -7.821  -3.031
27182SOL     OW83552   5.734   8.223   7.966
27182SOL    HW183553   5.679   8.242  30.121
27182SOL    HW283554   5.723   8.129   7.952
27183SOL     OW83555   3.889  11.469   9.098
27183SOL    HW183556 -18.263 -10.583   9.154
27183SOL    HW283557   3.930 -10.681   9.146
27184SOL     OW83558  10.410  10.975   7.309
27184SOL    HW183559  -0.545  22.003  51.424
27184SOL    HW283560  10.432  -0.026  29.473
27185SOL     OW83561   9.706   3.970   7.971
27185SOL    HW183562   9.723  14.924   7.931
27185SOL    HW283563  20.825   4.020   7.952
27186SOL     OW83564   5.108  10.134  10.243
27186SOL    HW183565 -17.018  10.120  10.161
27186SOL    HW283566   5.109  10.049  -0.753
27187SOL     OW83567   3.398   3.013  10.061
27187SOL    HW183568   3.451   3.031  -0.901
27187SOL    HW283569  36.540   3.082   9.999
27188SOL     OW83570   3.135   3.122   6.544
27188SOL    HW183571   3.144   3.101  17.491
27188SOL    HW283572  25.185  14.080   6.584
27189SOL     OW83573   9.602   6.044   2.871
27189SOL    HW183574   9.684   6.041   2.921
27189SOL    HW283575   9.580   5.952   2.856
27190SOL     OW83576   0.547   5.187  -0.619
27190SOL    HW183577   0.581  -5.781  10.474
27190SOL    HW283578   0.452   5.194  -0.611
27191SOL     OW83579   3.492   5.213   4.993
27191SOL    HW183580   3.587   5.203  -6.043
27191SOL    HW283581   3.466   5.239   5.081
27192SOL     OW83582   5.983   4.965   5.081
27192SOL    HW183583   6.077   4.971  16.139
27192SOL    HW283584   5.975   4.991   4.989
27193SOL     OW83585   9.714   6.954   8.320
27193SOL    HW183586   9.782   7.018   8.341
27193SOL    HW283587   9.746   6.871   8.357
27194SOL     OW83588  10.971   6.557   8.616
27194SOL    HW183589  10.882   6.539  19.686
27194SOL    HW283590  11.022   6.482   8.646
27195SOL     OW83591   3.718   1.601   4.364
27195SOL    HW183592  14.699   1.589  -6.600
27195SOL    HW283593   3.802  45.726   4.395
27196SOL     OW83594   2.706   5.170  10.401
27196SOL    HW183595  -8.374   5.125  10.326
27196SOL    HW283596  24.823   5.099  21.493
27197SOL     OW83597   3.365  11.309   9.936
27197SOL    HW183598   3.369   0.222   9.853
27197SOL    HW283599   3.420  11.257   9.996
27198SOL     OW83600   7.311   2.105   2.584
27198SOL    HW183601 -36.898  -8.876   2.527
27198SOL    HW283602   7.393   2.090   2.537
27199SOL     OW83603   5.319  11.128  -0.836
27199SOL    HW183604   5.310   0.146  -0.760
27199SOL    HW283605  -5.643  11.076  21.261
27200SOL     OW83606  10.963   7.952   1.850
27200SOL    HW183607  10.888   7.917  12.840
27200SOL    HW283608  10.936   8.040   1.874
27201SOL     OW83609   8.305   1.162   3.456
27201SOL    HW183610   8.292   1.093   3.391
27201SOL    HW283611 -13.860   1.173   3.497
27202SOL     OW83612   9.566   8.806   2.465
27202SOL    HW183613  20.513 -13.292   2.478
27202SOL    HW283614   9.609   8.721   2.463
27203SOL     OW83615   9.860   7.506   2.842
27203SOL    HW183616   9.787  40.630   2.780
27203SOL    HW283617   9.866   7.413  13.904
27204SOL     OW83618   6.992   3.907   7.988
27204SOL    HW183619   6.936  14.922   8.061
27204SOL    HW283620  18.082   3.829   7.969
27205SOL     OW83621   2.492  10.088   6.024
27205SOL    HW183622   2.567  10.131   6.066
27205SOL    HW283623  24.517 -11.919   5.992
27206SOL     OW83624   2.456  -0.544   8.354
27206SOL    HW183625   2.424  43.530   8.322
27206SOL    HW283626   2.528  -0.522 -13.785
27207SOL     OW83627   1.109   8.188  12.164
27207SOL    HW183628   1.071   8.158 -20.872
27207SOL    HW283629  12.074   8.216  12.111
27208SOL     OW83630  10.121   0.057   0.963
27208SOL    HW183631  10.058  22.147   1.034
27208SOL    HW283632  10.120   0.140  34.035
27209SOL     OW83633   8.014   3.761   2.599
27209SOL    HW183634   8.036  25.768   2.658
27209SOL    HW283635   7.937  14.769   2.552
27210SOL     OW83636  10.710   8.241   4.492
27210SOL    HW183637  10.753  30.270   4.422
27210SOL    HW283638  10.628  19.309   4.454
27211SOL     OW83639   2.210   8.135   4.603
27211SOL    HW183640   2.210  -2.834   4.667
27211SOL    HW283641  -8.752   8.083  15.664
27212SOL     OW83642   3.113   4.720  10.218
27212SOL    HW183643   3.159 -17.288  10.173
27212SOL    HW283644  25.148   4.763  10.292
27213SOL     OW83645  10.182   1.429   0.890
27213SOL    HW183646  21.224   1.375   0.811
27213SOL    HW283647  10.253  23.473   0.944
27214SOL     OW83648   4.336  10.335   8.139
27214SOL    HW183649   4.419  10.354  30.175
27214SOL    HW283650  -6.690  10.360   8.231
27215SOL     OW83651   4.664   8.723   8.511
27215SOL    HW183652   4.706   8.801   8.546
27215SOL    HW283653   4.735  19.713  -2.569
27216SOL     OW83654   2.564  -2.521   9.596
27216SOL    HW183655  -8.517  63.752   9.675
27216SOL    HW283656   2.499  19.574   9.527
27217SOL     OW83657   6.837   5.426   0.074
27217SOL    HW183658  -4.109   5.411   0.087
27217SOL    HW283659   6.832   5.514   0.037
27218SOL     OW83660  10.308   7.166   1.465
27218SOL    HW183661  10.265   7.243  -9.611
27218SOL    HW283662 -11.808  29.172  -9.624
27219SOL     OW83663   2.391   8.164  10.784
27219SOL    HW183664   2.384  -2.866  10.879
27219SOL    HW283665   2.419   8.073  10.771
27220SOL     OW83666  10.268   8.141   1.173
27220SOL    HW183667  10.265   8.165   1.080
27220SOL    HW283668  21.354   8.213  -9.825
27221SOL     OW83669   9.286   7.099   9.344
27221SOL    HW183670   9.289   7.016  20.336
27221SOL    HW283671   9.368   7.143   9.322
27222SOL     OW83672   0.943   5.085   4.503
27222SOL    HW183673   0.958   4.990   4.507
27222SOL    HW283674  23.079   5.115   4.432
27223SOL     OW83675   5.525   9.372   7.895
27223SOL    HW183676   5.592   9.384   7.827
27223SOL    HW283677   5.533  31.529   7.950
27224SOL     OW83678   7.931   5.918   7.141
27224SOL    HW183679   7.988   5.910   7.064
27224SOL    HW283680   7.874   5.841   7.136
27225SOL     OW83681  10.303   1.059  11.452
27225SOL    HW183682  10.234   1.000  11.481
27225SOL    HW283683  10.293   1.136   0.467
27226SOL     OW83684   7.902   0.129   3.542
27226SOL    HW183685   7.922   0.102   3.631
27226SOL    HW283686  -3.198   0.203  -7.488
27227SOL     OW83687   4.251   7.851   3.976
27227SOL    HW183688   4.261   7.871   4.069
27227SOL    HW283689   4.159 -36.330   3.965
27228SOL     OW83690   3.618   3.940   2.341
27228SOL    HW183691   3.652   3.852   2.323
27228SOL    HW283692   3.591  15.013   2.255
27229SOL     OW83693   7.445   4.226   4.017
27229SOL    HW183694   7.514  26.349  15.105
27229SOL    HW283695   7.401   4.295   3.969
27230SOL     OW83696   6.380   9.886  10.675
27230SOL    HW183697   6.394   9.851  10.587
27230SOL    HW283698  -4.573   9.913  10.704
27231SOL     OW83699  10.335   7.844   6.641
27231SOL    HW183700  10.424   7.847   6.604
27231SOL    HW283701  10.298   7.930   6.621
27232SOL     OW83702   0.276   9.750   3.089
27232SOL    HW183703  11.310  -1.221   3.155
27232SOL    HW283704  11.312   9.797 -19.074
27233SOL     OW83705   8.696   2.025   5.102
27233SOL    HW183706  19.693   1.969  -6.004
27233SOL    HW283707   8.669  -9.052   5.186
27234SOL     OW83708   7.176   6.079  10.995
27234SOL    HW183709   7.168   6.097  10.902
27234SOL    HW283710   7.185  28.063  11.001
27235SOL     OW83711   9.509   4.383   3.487
27235SOL    HW183712   9.431   4.407  -7.502
27235SOL    HW283713   9.513  -6.590   3.418
27236SOL     OW83714   5.309   2.803   0.687
27236SOL    HW183715   5.265   2.720   0.667
27236SOL    HW283716   5.391   2.777   0.728
27237SOL     OW83717   7.192   7.643   1.482
27237SOL    HW183718  -3.776  -3.405   1.420
27237SOL    HW283719   7.117   7.604   1.437
27238SOL     OW83720   0.114   9.711   3.612
27238SOL    HW183721   0.126  20.721   3.702
27238SOL    HW283722  22.281  20.753   3.575
27239SOL     OW83723  10.104  -0.862   4.687
27239SOL    HW183724  10.129  -0.772   4.707
27239SOL    HW283725  10.074  21.181   4.770
27240SOL     OW83726   5.492   7.151   7.233
27240SOL    HW183727   5.446  -3.874   7.316
27240SOL    HW283728   5.505  -3.984   7.230
27241SOL     OW83729   7.854   6.957   4.084
27241SOL    HW183730   7.814   6.870   4.084
27241SOL    HW283731   7.839   6.991   4.172
27242SOL     OW83732  10.053  -0.277  11.120
27242SOL    HW183733  10.012  21.830 -10.877
27242SOL    HW283734  10.145  -0.252  11.129
27243SOL     OW83735   7.029   4.475   1.962
27243SOL    HW183736   7.071  -6.536   1.881
27243SOL    HW283737   6.961   4.414   1.933
27244SOL     OW83738   9.741   3.986   3.158
27244SOL    HW183739  20.761   4.061  14.254
27244SOL    HW283740   9.655   3.952   3.134
27245SOL     OW83741   7.074   8.099   8.279
27245SOL    HW183742  18.089   8.047  30.281
27245SOL    HW283743  18.204   8.074  -2.744
27246SOL     OW83744   5.284   3.308   9.952
27246SOL    HW183745   5.292   3.216   9.926
27246SOL    HW283746   5.201  -7.703  -1.126
27247SOL     OW83747   4.727   3.511   6.134
27247SOL    HW183748  26.869   3.518   6.062
27247SOL    HW283749   4.777   3.476   6.207
27248SOL     OW83750  10.722  10.891  11.031
27248SOL    HW183751  10.738  10.984  11.014
27248SOL    HW283752  10.681  10.889  11.118
27249SOL     OW83753   4.387   4.690   8.886
27249SOL    HW183754  15.391   4.634   8.817
27249SOL    HW283755   4.394  15.816   8.846
27250SOL     OW83756  10.140   4.463   7.927
27250SOL    HW183757  10.109   4.552   7.945
27250SOL    HW283758  21.117   4.429   7.863
27251SOL     OW83759   4.950   6.779   2.495
27251SOL    HW183760   4.948   6.747  13.444
27251SOL    HW283761   5.043   6.787  -8.525
27252SOL     OW83762   9.206   7.832   4.793
27252SOL    HW183763  -1.744   7.810  15.806
27252SOL    HW283764  -1.831   7.831   4.888
27253SOL     OW83765   3.957   5.519   2.105
27253SOL    HW183766   3.985   5.462   2.034
27253SOL    HW283767   3.968   5.607   2.071
27254SOL     OW83768   3.503   8.965   2.210
27254SOL    HW183769   3.468   9.053   2.225
27254SOL    HW283770  -7.612   8.908   2.215
27255SOL     OW83771   2.494   1.291   1.872
27255SOL    HW183772   2.472   1.336 -20.289
27255SOL    HW283773   2.430   1.324  24.014
27256SOL     OW83774   3.568   5.477   4.655
27256SOL    HW183775   3.573   5.381  -6.392
27256SOL    HW283776   3.509  16.542   4.583
27257SOL     OW83777  10.707   0.233   9.305
27257SOL    HW183778  10.726  11.362   9.330
27257SOL    HW283779  10.775   0.212  -1.800
27258SOL     OW83780   6.271   6.184   2.464
27258SOL    HW183781   6.220   6.263   2.484
27258SOL    HW283782  28.430   6.193   2.515
27259SOL     OW83783   6.688   7.052   7.493
27259SOL    HW183784 -26.411  -4.008   7.401
27259SOL    HW283785  17.710  29.045   7.532
27260SOL     OW83786   9.796   2.395   0.445
27260SOL    HW183787   9.737  24.449   0.515
27260SOL    HW283788   9.788   2.491   0.440
27261SOL     OW83789  10.531  11.238   0.312
27261SOL    HW183790  10.486   0.139   0.251
27261SOL    HW283791  10.567  11.307   0.255
27262SOL     OW83792   5.941   7.537   4.200
27262SOL    HW183793   5.975   7.592  -6.769
27262SOL    HW283794   5.920   7.599   4.130
27263SOL     OW83795   9.169   5.217   8.881
27263SOL    HW183796   9.257   5.222   8.845
27263SOL    HW283797   9.179   5.244   8.973
27264SOL     OW83798  12.835   3.102   1.742
27264SOL    HW183799 -20.285  14.132   1.646
27264SOL    HW283800   1.847  25.260  23.837
27265SOL     OW83801   6.576   1.641   9.755
27265SOL    HW183802   6.540   1.601   9.675
27265SOL    HW283803   6.590   1.732   9.731
27266SOL     OW83804   2.102   6.842   9.571
27266SOL    HW183805   2.009   6.817   9.570
27266SOL    HW283806   2.113   6.887  20.695
27267SOL     OW83807   2.223   7.712  10.462
27267SOL    HW183808  35.389   7.630  10.471
27267SOL    HW283809   2.171   7.701  10.382
27268SOL     OW83810   3.563   8.101   7.359
27268SOL    HW183811  25.596   8.023   7.386
27268SOL    HW283812  14.634   8.141  18.479
27269SOL     OW83813   8.550  10.398   7.446
27269SOL    HW183814  19.563  10.315   7.406
27269SOL    HW283815   8.530  10.465   7.380
27270SOL     OW83816  10.057   6.851   3.086
27270SOL    HW183817  10.056   6.909   3.010
27270SOL    HW283818   9.979   6.875   3.136
27271SOL     OW83819   2.592   6.142   6.949
27271SOL    HW183820   2.663   6.106   6.895
27271SOL    HW283821   2.629  17.186 -26.082
27272SOL     OW83822   2.225   0.064   5.373
27272SOL    HW183823   2.230   0.157   5.354
27272SOL    HW283824   2.192   0.024   5.292
27273SOL     OW83825   8.074   8.623   5.211
27273SOL    HW183826   7.999   8.674   5.180
27273SOL    HW283827   8.051  -2.442  -5.739
27274SOL     OW83828   1.245   8.579   0.259
27274SOL    HW183829  23.384  19.691  11.280
27274SOL    HW283830   1.253   8.522 -10.857
27275SOL     OW83831   4.938   2.591   7.827
27275SOL    HW183832   5.023  13.601   7.796
27275SOL    HW283833  -6.092   2.686  18.877
27276SOL     OW83834   9.904   9.609   9.889
27276SOL    HW183835  20.904  -1.425  -1.064
27276SOL    HW283836   9.857   9.538   9.845
27277SOL     OW83837  -0.471   2.756   2.863
27277SOL    HW183838  10.530  -8.196  -8.175
27277SOL    HW283839  -0.542 -19.380  13.873
27278SOL     OW83840   8.812   6.949   3.702
27278SOL    HW183841   8.841   6.885  14.677
27278SOL    HW283842  19.771   6.912   3.738
27279SOL     OW83843   5.557   6.984   9.545
27279SOL    HW183844  16.678   6.988  -1.545
27279SOL    HW283845  16.548   7.062  20.557
27280SOL     OW83846   2.716  11.780   6.362
27280SOL    HW183847   2.736   0.794   6.286
27280SOL    HW283848   2.660   0.797   6.416
27281SOL     OW83849   3.101   1.532   9.459
27281SOL    HW183850  25.148   1.619   9.479
27281SOL    HW283851  14.181   1.502   9.540
27282SOL     OW83852   7.180  -0.597   0.740
27282SOL    HW183853   7.187  -0.688  11.808
27282SOL    HW283854   7.247  10.489   0.789
27283SOL     OW83855   8.954   7.491   1.452
27283SOL    HW183856  20.089  -3.559  -9.584
27283SOL    HW283857  31.008   7.510  -9.497
27284SOL     OW83858   6.206   5.596  10.009
27284SOL    HW183859   6.228  16.640  -1.124
27284SOL    HW283860   6.276  -5.395  21.092
27285SOL     OW83861   1.531   3.899  10.357
27285SOL    HW183862   1.448   3.879  10.312
27285SOL    HW283863   1.508   3.900  10.450
27286SOL     OW83864   3.694   7.754   4.588
27286SOL    HW183865   3.761   7.740  -6.384
27286SOL    HW283866   3.612   7.764   4.637
27287SOL     OW83867   5.287   9.262   6.471
27287SOL    HW183868   5.304   9.356  17.515
27287SOL    HW283869   5.354   9.222  -4.513
27288SOL     OW83870   9.538   2.160   3.804
27288SOL    HW183871  20.634   2.237   3.812
27288SOL    HW283872   9.539   2.140   3.710
27289SOL     OW83873   7.185   9.063   4.299
27289SOL    HW183874   7.173   8.977   4.261
27289SOL    HW283875   7.266   9.096   4.261
27290SOL     OW83876   8.782   9.981  -0.311
27290SOL    HW183877   8.821  10.049  10.783
27290SOL    HW283878   8.855   9.946  -0.363
27291SOL     OW83879   1.686   4.662   7.333
27291SOL    HW183880   1.743   4.689   7.404
27291SOL    HW283881  -9.442   4.684   7.363
27292SOL     OW83882  -0.751   5.942   4.680
27292SOL    HW183883  10.241   5.982   4.753
27292SOL    HW283884  10.357   5.889   4.721
27293SOL     OW83885   7.771   8.005   8.851
27293SOL    HW183886  18.886   7.955  -2.217
27293SOL    HW283887   7.805   8.063   8.920
27294SOL     OW83888   0.204   5.775   3.282
27294SOL    HW183889   0.161   5.715   3.343
27294SOL    HW283890  11.240  27.809   3.198
27295SOL     OW83891   3.745   7.122   1.103
27295SOL    HW183892   3.766   7.142   1.194
27295SOL    HW283893   3.709  18.242   1.067
27296SOL     OW83894   4.458   8.385   9.360
27296SOL    HW183895   4.490  30.527   9.425
27296SOL    HW283896   4.482   8.424  -1.764
27297SOL     OW83897   5.673   2.141   1.529
27297SOL    HW183898   5.666   2.156   1.435
27297SOL    HW283899   5.706   2.223  23.643
27298SOL     OW83900   7.729   3.336  -0.465
27298SOL    HW183901  18.840  -7.640  10.566
27298SOL    HW283902  18.741   3.342  -0.374
27299SOL     OW83903   6.706   6.180  10.377
27299SOL    HW183904   6.776   6.245  10.379
27299SOL    HW283905   6.745   6.104  10.333
27300SOL     OW83906   6.462  10.552  10.352
27300SOL    HW183907   6.426  21.514  10.395
27300SOL    HW283908   6.387  -0.450  10.305
27301SOL     OW83909   9.176   4.586   1.414
27301SOL    HW183910  20.247   4.579   1.505
27301SOL    HW283911   9.159   4.680   1.402
27302SOL     OW83912   0.657   7.946   5.559
27302SOL    HW183913  33.825   7.995 -38.533
27302SOL    HW283914   0.665  18.894   5.587
27303SOL     OW83915   9.463   2.482  11.621
27303SOL    HW183916  -1.672  13.530   0.587
27303SOL    HW283917   9.491   2.563  11.577
27304SOL     OW83918   6.245   0.697  10.183
27304SOL    HW183919  17.312   0.714  10.273
27304SOL    HW283920  -4.845   0.616 -11.891
27305SOL     OW83921   6.248   0.690   3.534
27305SOL    HW183922   6.156   0.671   3.553
27305SOL    HW283923   6.246   0.764   3.474
27306SOL     OW83924   0.769   7.849   7.369
27306SOL    HW183925  11.754  18.823   7.325
27306SOL    HW283926  11.871   7.797   7.420
27307SOL     OW83927   4.133   1.682   5.345
27307SOL    HW183928   4.097   1.770   5.355
27307SOL    HW283929   4.227   1.693  16.393
27308SOL     OW83930   2.828   7.752   4.920
27308SOL    HW183931   2.822  18.885   4.940
27308SOL    HW283932   2.795   7.744   4.831
27309SOL     OW83933   5.394  11.510  10.013
27309SOL    HW183934   5.475  11.549 -23.139
27309SOL    HW283935   5.330   0.486   9.944
27310SOL     OW83936   9.831   8.647  -2.200
27310SOL    HW183937   9.791   8.714  42.014
27310SOL    HW283938   9.775   8.570   8.851
27311SOL     OW83939   8.883   0.138   2.412
27311SOL    HW183940  30.919   0.196  -8.691
27311SOL    HW283941  -2.216   0.063  -8.620
27312SOL     OW83942   2.347   3.547   0.737
27312SOL    HW183943   2.290   3.597   0.677
27312SOL    HW283944   2.385   3.614   0.795
27313SOL     OW83945   6.134  -0.429   5.948
27313SOL    HW183946   6.076  21.705   5.895
27313SOL    HW283947   6.075  -0.488  -5.045
27314SOL     OW83948   0.570   8.983   5.662
27314SOL    HW183949   0.547  -2.111   5.587
27314SOL    HW283950  11.585   9.072  27.716
27315SOL     OW83951   0.666   2.255   1.674
27315SOL    HW183952   0.585   2.271   1.723
27315SOL    HW283953 -10.327   2.189   1.724
27316SOL     OW83954   8.347   0.009   4.327
27316SOL    HW183955   8.323  22.002   4.294
27316SOL    HW283956   8.263  11.091   4.347
27317SOL     OW83957   8.449   2.660   8.974
27317SOL    HW183958   8.404  13.705   9.058
27317SOL    HW283959   8.380   2.670 -13.171
27318SOL     OW83960   2.175   8.792   4.035
27318SOL    HW183961   2.217  19.881   3.965
27318SOL    HW283962   2.103   8.848   4.064
27319SOL     OW83963  10.313   6.435   1.903
27319SOL    HW183964  21.362   6.383   1.823
27319SOL    HW283965  10.386   6.497  -9.138
27320SOL     OW83966   4.226   1.229   9.130
27320SOL    HW183967   4.151  12.239 -13.000
27320SOL    HW283968   4.207   1.199 -12.860
27321SOL     OW83969   8.209   2.588   8.580
27321SOL    HW183970  41.269   2.565  30.587
27321SOL    HW283971 -13.782   2.578   8.543
27322SOL     OW83972   1.462   5.393   5.879
27322SOL    HW183973   1.556   5.389   5.859
27322SOL    HW283974   1.458  16.441   5.974
27323SOL     OW83975  -0.023   6.403   8.133
27323SOL    HW183976   0.044 -15.738  30.241
27323SOL    HW283977  33.141  -4.552   8.133
27324SOL     OW83978  11.025   2.257   4.101
27324SOL    HW183979  10.951   2.285   4.154
27324SOL    HW283980  11.014   2.303   4.017
27325SOL     OW83981   8.250   6.974  11.308
27325SOL    HW183982  -2.746   7.039  11.363
27325SOL    HW283983  19.277   6.899   0.327
27326SOL     OW83984   7.161   3.575  -0.204
27326SOL    HW183985   7.167   3.552  -0.296
27326SOL    HW283986   7.212  14.695  21.884
27327SOL     OW83987   3.608   8.500   9.965
27327SOL    HW183988   3.539   8.563  -1.094
27327SOL    HW283989   3.638   8.523  10.053
27328SOL     OW83990   7.978   1.990   0.571
27328SOL    HW183991   7.921   1.949   0.506
27328SOL    HW283992   7.920   2.007   0.646
27329SOL     OW83993   0.558   8.557   5.695
27329SOL    HW183994   0.603  -2.429  -5.280
27329SOL    HW283995   0.619  -2.488   5.622
27330SOL     OW83996  10.517  11.304   7.160
27330SOL    HW183997  10.502 -32.760   7.161
27330SOL    HW283998  10.519 -21.840   7.253
27331SOL     OW83999  11.691  10.286   6.966
27331SOL    HW184000  11.636  10.363  -4.088
27331SOL    HW284001 -10.302  10.323  -4.052
27332SOL     OW84002   8.692   3.062   8.001
27332SOL    HW184003   8.709  14.079   8.092
27332SOL    HW284004   8.597 -19.015   7.993
27333SOL     OW84005   5.072   6.165  10.859
27333SOL    HW184006   4.989   6.117  -0.182
27333SOL    HW284007   5.134  28.183  -0.140
27334SOL     OW84008   4.049   6.104   1.190
27334SOL    HW184009  15.011   6.048  -9.861
27334SOL    HW284010  -7.011  17.199   1.265
27335SOL     OW84011   2.804   2.644   4.036
27335SOL    HW184012   2.720  13.637  26.111
27335SOL    HW284013  -8.170  13.617   4.019
27336SOL     OW84014  10.182   0.070   7.821
27336SOL    HW184015  21.191   0.085   7.911
27336SOL    HW284016  10.205   0.158   7.789
27337SOL     OW84017   7.759   1.402   0.998
27337SOL    HW184018   7.725  -9.609  -9.957
27337SOL    HW284019   7.854   1.415   1.004
27338SOL     OW84020   7.234   8.805   1.278
27338SOL    HW184021   7.183  19.921   1.253
27338SOL    HW284022 -25.860   8.821   1.369
27339SOL     OW84023   1.316   4.637   3.294
27339SOL    HW184024   1.297   4.547   3.320
27339SOL    HW284025   1.337   4.682   3.376
27340SOL     OW84026   4.512   3.083  10.594
27340SOL    HW184027   4.556   3.103  10.511
27340SOL    HW284028   4.583   3.083  10.659
27341SOL     OW84029   8.299   4.765   6.384
27341SOL    HW184030   8.325  26.763 -26.691
27341SOL    HW284031   8.341 -17.245   6.436
27342SOL     OW84032  10.796   1.196   1.364
27342SOL    HW184033  10.810  12.290   1.286
27342SOL    HW284034  10.785   1.259   1.435
27343SOL     OW84035  11.362   6.161   9.403
27343SOL    HW184036   0.284 -15.866   9.474
27343SOL    HW284037 -10.636   6.208  31.459
27344SOL     OW84038   1.472   5.148  10.417
27344SOL    HW184039  12.576   5.210  10.451
27344SOL    HW284040  12.493   5.179  21.368
27345SOL     OW84041  10.366   7.084   9.104
27345SOL    HW184042  -0.710  18.036   9.090
27345SOL    HW284043  10.296   7.134   9.145
27346SOL     OW84044   7.778   9.686   7.756
27346SOL    HW184045  18.867  20.647   7.780
27346SOL    HW284046   7.738  -1.325   7.838
27347SOL     OW84047   5.781   9.831   0.632
27347SOL    HW184048   5.726   9.831  33.672
27347SOL    HW284049  -5.229 -12.339  11.680
27348SOL     OW84050   6.619   3.920   7.784
27348SOL    HW184051   6.676   3.846  -3.236
27348SOL    HW284052   6.594 -18.171  -3.347
27349SOL     OW84053   8.299   0.276   7.166
27349SOL    HW184054  -2.819   0.323   7.191
27349SOL    HW284055   8.370   0.339  -3.861
27350SOL     OW84056   2.959   2.885   7.010
27350SOL    HW184057   2.984   2.797   7.039
27350SOL    HW284058   2.863   2.886   7.018
27351SOL     OW84059   8.674  10.449   7.059
27351SOL    HW184060 -13.385  10.542   7.051
27351SOL    HW284061   8.616  10.444   7.136
27352SOL     OW84062   1.252   2.487   1.274
27352SOL    HW184063   1.246 -19.529  23.425
27352SOL    HW284064  23.385 -19.663   1.310
27353SOL     OW84065   6.707   8.599   5.001
27353SOL    HW184066   6.778   8.648   5.042
27353SOL    HW284067   6.696   8.522  -5.983
27354SOL     OW84068   6.837   1.369  11.653
27354SOL    HW184069   6.895  12.346 -10.468
27354SOL    HW284070   6.808   1.325  11.733
27355SOL     OW84071   5.540  10.139   5.648
27355SOL    HW184072   5.615  10.131   5.706
27355SOL    HW284073   5.464  10.122   5.704
27356SOL     OW84074   9.719   8.625   7.550
27356SOL    HW184075   9.635 -13.495 -36.628
27356SOL    HW284076   9.751   8.578   7.628
27357SOL     OW84077   3.345  11.962   2.021
27357SOL    HW184078   3.310 -32.120  24.054
27357SOL    HW284079  -7.612 -32.165   2.060
27358SOL     OW84080   1.227  11.263   7.670
27358SOL    HW184081   1.252   0.304   7.626
27358SOL    HW284082   1.310  11.214   7.679
27359SOL     OW84083   0.441   3.338   5.325
27359SOL    HW184084   0.356   3.294   5.329
27359SOL    HW284085   0.449   3.365   5.233
27360SOL     OW84086   1.134  10.295   3.885
27360SOL    HW184087   1.083  10.376   3.894
27360SOL    HW284088   1.108  -0.797 -18.118
27361SOL     OW84089   2.349   4.693   2.227
27361SOL    HW184090  24.504   4.644   2.260
27361SOL    HW284091   2.371   4.709 -19.944
27362SOL     OW84092   6.173   5.193   1.101
27362SOL    HW184093  -4.777   5.227  -9.938
27362SOL    HW284094   6.117  -5.770   1.111
27363SOL     OW84095   4.221   7.222   5.852
27363SOL    HW184096 -17.944 -25.854  -5.178
27363SOL    HW284097   4.271   7.251   5.928
27364SOL     OW84098   3.781   7.997  10.191
27364SOL    HW184099   3.851   7.953  10.239
27364SOL    HW284100   3.725   8.034  10.259
27365SOL     OW84101   8.215   9.933  10.570
27365SOL    HW184102   8.244   9.952  10.481
27365SOL    HW284103   8.283  -1.162  -0.433
27366SOL     OW84104   7.734   9.321  10.007
27366SOL    HW184105 -14.279   9.302   9.940
27366SOL    HW284106   7.664   9.365   9.959
27367SOL     OW84107   3.279   5.269   1.827
27367SOL    HW184108  -7.830   5.280  12.801
27367SOL    HW284109  -7.747   5.357  12.901
27368SOL     OW84110   8.951   9.337  10.676
27368SOL    HW184111   9.029   9.385  10.702
27368SOL    HW284112  19.921   9.371 -22.386
27369SOL     OW84113   5.319   7.130   9.522
27369SOL    HW184114   5.239   7.111   9.572
27369SOL    HW284115  16.346  -3.820   9.490
27370SOL     OW84116   3.160   5.269   9.117
27370SOL    HW184117   3.112   5.344   9.153
27370SOL    HW284118   3.100  16.234   9.129
27371SOL     OW84119   0.259   4.596   8.304
27371SOL    HW184120   0.349  26.698  19.321
27371SOL    HW284121  22.327   4.506   8.272
27372SOL     OW84122   4.933   3.908   1.542
27372SOL    HW184123   4.990  -7.064   1.505
27372SOL    HW284124  15.912  14.926  12.510
27373SOL     OW84125   3.444   8.919   3.668
27373SOL    HW184126  -7.557  19.871   3.661
27373SOL    HW284127   3.350  19.944   3.656
27374SOL     OW84128   3.424  10.878   3.238
27374SOL    HW184129   3.387  10.815   3.299
27374SOL    HW284130   3.518  10.877   3.257
27375SOL     OW84131  10.765   3.847  10.631
27375SOL    HW184132  10.844  -7.167  -0.361
27375SOL    HW284133  10.725  -7.261 -11.395
27376SOL     OW84134   9.605   1.855  10.296
27376SOL    HW184135  20.658  12.934  -0.830
27376SOL    HW284136   9.650   1.915  -0.683
27377SOL     OW84137   7.399   2.474   4.195
27377SOL    HW184138 -25.795  35.644   4.166
27377SOL    HW284139  18.457   2.506   4.283
27378SOL     OW84140   8.832   3.080  11.437
27378SOL    HW184141  -2.218 -19.057  11.362
27378SOL    HW284142   8.807   3.027 -10.567
27379SOL     OW84143   6.047   8.115   2.473
27379SOL    HW184144   5.982   8.163   2.422
27379SOL    HW284145   6.024  30.212   2.564
27380SOL     OW84146   2.247   7.242   7.610
27380SOL    HW184147   2.168   7.188  -3.431
27380SOL    HW284148  13.338  18.250   7.536
27381SOL     OW84149  10.107   7.913   9.663
27381SOL    HW184150  -0.862   7.972   9.635
27381SOL    HW284151  10.044   7.970   9.708
27382SOL     OW84152   3.393   1.307   5.782
27382SOL    HW184153   3.420   1.215   5.778
27382SOL    HW284154   3.474  23.435   5.767
27383SOL     OW84155  10.817   9.211   7.350
27383SOL    HW184156  -0.165   9.165  18.451
27383SOL    HW284157  10.867   9.288   7.324
27384SOL     OW84158   6.568   4.327   4.123
27384SOL    HW184159   6.643   4.278  15.197
27384SOL    HW284160   6.595  26.435   4.036
27385SOL     OW84161   5.212  -0.704   0.214
27385SOL    HW184162   5.166  -0.634   0.262
27385SOL    HW284163  16.200  21.297   0.231
27386SOL     OW84164   3.583   8.634   5.419
27386SOL    HW184165   3.653  19.715   5.469
27386SOL    HW284166  25.639   8.699   5.352
27387SOL     OW84167   7.056  10.564  10.824
27387SOL    HW184168   7.005  -0.464  10.904
27387SOL    HW284169   7.015  10.490  -0.260
27388SOL     OW84170   5.156   5.426  10.056
27388SOL    HW184171  -5.801   5.467 -11.997
27388SOL    HW284172   5.136   5.364  10.126
27389SOL     OW84173   2.478  10.925   2.332
27389SOL    HW184174   2.435  -0.055   2.392
27389SOL    HW284175   2.496  10.978   2.254
27390SOL     OW84176   9.832   8.086   4.805
27390SOL    HW184177   9.823   8.146  -6.161
27390SOL    HW284178   9.921   8.100  15.812
27391SOL     OW84179  10.622   6.638   8.551
27391SOL    HW184180  10.644   6.601   8.636
27391SOL    HW284181  10.584 -15.514   8.502
27392SOL     OW84182   6.568   4.198   9.566
27392SOL    HW184183  83.844   4.144   9.487
27392SOL    HW284184   6.519   4.146   9.630
27393SOL     OW84185   7.542   3.267   8.760
27393SOL    HW184186   7.459   3.236   8.725
27393SOL    HW284187   7.599   3.190  -2.280
27394SOL     OW84188   0.720   9.015   5.352
27394SOL    HW184189   0.669  -1.950  -5.656
27394SOL    HW284190 -10.265  31.069   5.426
27395SOL     OW84191   0.636  10.964   9.332
27395SOL    HW184192 -10.324  10.985   9.284
27395SOL    HW284193   0.580  10.922   9.267
27396SOL     OW84194   3.658   8.046  10.425
27396SOL    HW184195   3.676   8.049  10.519
27396SOL    HW284196   3.591   7.978 -11.663
27397SOL     OW84197   2.389   9.888   0.004
27397SOL    HW184198   2.482   9.882   0.028
27397SOL    HW284199   2.366   9.799  -0.024
27398SOL     OW84200   7.767   4.846   7.140
27398SOL    HW184201   7.814   4.804 -15.011
27398SOL    HW284202  -3.238  -6.104 -14.937
27399SOL     OW84203   3.946   9.081   7.462
27399SOL    HW184204   4.024   9.058   7.514
27399SOL    HW284205  37.010   9.130   7.523
27400SOL     OW84206   2.460   6.530   6.239
27400SOL    HW184207   2.491  17.615   6.161
27400SOL    HW284208   2.422   6.449   6.206
27401SOL     OW84209   4.473   9.760   5.992
27401SOL    HW184210  15.567   9.827  28.112
27401SOL    HW284211  -6.508   9.685  28.059
27402SOL     OW84212  10.989   2.238  10.502
27402SOL    HW184213  11.073   2.282  10.494
27402SOL    HW284214  11.010   2.145  10.489
27403SOL     OW84215   4.266   3.826   7.059
27403SOL    HW184216  -6.721  36.881   7.107
27403SOL    HW284217  15.352   3.909   7.070
27404SOL     OW84218   1.053   4.922   1.616
27404SOL    HW184219   1.064   4.899   1.524
27404SOL    HW284220   1.041   4.838   1.660
27405SOL     OW84221   5.423  -1.658   0.495
27405SOL    HW184222   5.424  31.390   0.431
27405SOL    HW284223   5.364  -1.592   0.456
27406SOL     OW84224   5.345   5.288   4.040
27406SOL    HW184225  16.449  16.263   4.071
27406SOL    HW284226   5.264  49.396   4.031
27407SOL     OW84227   8.738   0.462   0.876
27407SOL    HW184228   8.768   0.541   0.921
27407SOL    HW284229   8.643   0.462 -10.150
27408SOL     OW84230   9.035   2.974   8.167
27408SOL    HW184231  31.148  14.054  19.286
27408SOL    HW284232   8.999   3.046   8.115
27409SOL     OW84233   4.753   9.908   4.552
27409SOL    HW184234 -28.281   9.949  15.571
27409SOL    HW284235   4.699  -1.116  15.514
27410SOL     OW84236   4.353   7.033   9.067
27410SOL    HW184237   4.269   7.073   9.090
27410SOL    HW284238   4.379   6.983   9.144
27411SOL     OW84239   8.896   7.191   3.711
27411SOL    HW184240  19.908   7.106   3.744
27411SOL    HW284241   8.924   7.174   3.621
27412SOL     OW84242   3.982   7.059   6.477
27412SOL    HW184243  -6.964  -3.997  -4.558
27412SOL    HW284244   3.955   7.073   6.568
27413SOL     OW84245   2.439   3.844   9.236
27413SOL    HW184246   2.408   3.758   9.263
27413SOL    HW284247  13.431   3.906  20.331
27414SOL     OW84248   1.008   4.972   6.017
27414SOL    HW184249 -10.066  16.088   5.971
27414SOL    HW284250   1.027   4.909  -5.093
27415SOL     OW84251   4.090   9.296   8.641
27415SOL    HW184252   4.137   9.324  -2.477
27415SOL    HW284253 -18.076   9.336   8.633
27416SOL     OW84254   8.963   7.680   6.719
27416SOL    HW184255  30.953  18.734   6.688
27416SOL    HW284256  20.058  -3.316 -15.424
27417SOL     OW84257  10.152   9.174   4.201
27417SOL    HW184258  21.229  -1.826   4.280
27417SOL    HW284259 -11.946   9.249  -6.896
27418SOL     OW84260   8.898   4.079   8.315
27418SOL    HW184261   8.985   4.041   8.303
27418SOL    HW284262   8.838   4.011   8.282
27419SOL     OW84263   8.158  10.082   9.480
27419SOL    HW184264  30.173  -0.971  -1.630
27419SOL    HW284265  19.252  10.154   9.448
27420SOL     OW84266   9.770   9.608   3.970
27420SOL    HW184267   9.710   9.682 -29.141
27420SOL    HW284268   9.832   9.620   4.042
27421SOL     OW84269   1.572   2.704   6.840
27421SOL    HW184270  12.609  24.795 -37.413
27421SOL    HW284271   1.622   2.623  -4.186
27422SOL     OW84272   4.416   0.644   3.837
27422SOL    HW184273   4.404 -10.477  14.926
27422SOL    HW284274   4.402   0.713  14.941
27423SOL     OW84275   8.263   7.761   7.703
27423SOL    HW184276   8.264   7.717   7.788
27423SOL    HW284277  19.239   7.831 -14.366
27424SOL     OW84278   2.278   4.286   9.458
27424SOL    HW184279 -19.808   4.327   9.372
27424SOL    HW284280   2.197   4.310   9.503
27425SOL     OW84281   1.831   6.622   4.270
27425SOL    HW184282  -9.301  -4.392 -17.808
27425SOL    HW284283  23.957   6.699   4.301
27426SOL     OW84284   0.381   6.674   4.780
27426SOL    HW184285   0.458  17.681  15.773
27426SOL    HW284286   0.328   6.718   4.714
27427SOL     OW84287   9.291   5.940   7.611
27427SOL    HW184288   9.248  -5.018   7.583
27427SOL    HW284289   9.359  16.964 -14.533
27428SOL     OW84290   6.321   1.801   9.746
27428SOL    HW184291   6.318   1.786  -1.388
27428SOL    HW284292   6.253   1.867   9.762
27429SOL     OW84293   2.873   9.575   8.754
27429SOL    HW184294   2.921   9.508   8.803
27429SOL    HW284295   2.782   9.561 -13.302
27430SOL     OW84296   7.664   2.449   8.762
27430SOL    HW184297  18.629  24.569   8.807
27430SOL    HW284298   7.663   2.358   8.794
27431SOL     OW84299   6.581   2.089   1.823
27431SOL    HW184300   6.648   2.074  12.796
27431SOL    HW284301   6.546   2.002   1.840
27432SOL     OW84302   5.024   1.817   1.875
27432SOL    HW184303   4.993   1.906   1.888
27432SOL    HW284304  -5.921   1.823  -9.149
27433SOL     OW84305  -0.053  11.588   8.952
27433SOL    HW184306  10.903 -21.518   8.997
27433SOL    HW284307   0.001  11.662   8.982
27434SOL     OW84308   7.654   8.729   3.163
27434SOL    HW184309   7.676  19.836   3.227
27434SOL    HW284310   7.602   8.666  -7.827
27435SOL     OW84311   5.670   8.708   7.432
27435SOL    HW184312   5.718   8.645  18.525
27435SOL    HW284313   5.681  19.716   7.342
27436SOL     OW84314  -0.470   0.131   4.006
27436SOL    HW184315  10.628   0.067   4.047
27436SOL    HW284316  -0.416   0.176  14.981
27437SOL     OW84317   7.094   5.500  10.199
27437SOL    HW184318   7.029   5.466  10.139
27437SOL    HW284319 -15.017   5.475  21.325
27438SOL     OW84320   7.987   7.573   8.831
27438SOL    HW184321   7.999  18.707   8.835
27438SOL    HW284322   7.896  18.598  -2.184
27439SOL     OW84323   7.646   0.364   9.714
27439SOL    HW184324   7.576   0.305   9.743
27439SOL    HW284325   7.636   0.367  -1.421
27440SOL     OW84326   6.126  12.703   5.671
27440SOL    HW184327   6.203 -20.462  16.743
27440SOL    HW284328  -4.987  12.647   5.698
27441SOL     OW84329   7.415   2.408   5.910
27441SOL    HW184330  40.574   2.490  -5.157
27441SOL    HW284331  29.400   2.427  -5.126
27442SOL     OW84332   5.925  10.709   9.314
27442SOL    HW184333   5.890  10.784   9.362
27442SOL    HW284334  -5.024  10.702  31.424
27443SOL     OW84335   4.169   3.624   4.616
27443SOL    HW184336   4.256  -7.420  15.695
27443SOL    HW284337   4.176  -7.469   4.536
27444SOL     OW84338   5.959   1.712   2.034
27444SOL    HW184339   5.935   1.800   2.003
27444SOL    HW284340   6.045  -9.344   1.995
27445SOL     OW84341   9.225   2.967   1.199
27445SOL    HW184342   9.167  58.098   1.162
27445SOL    HW284343   9.298  13.957  12.276
27446SOL     OW84344   1.670   0.854   6.405
27446SOL    HW184345  -9.405   0.803   6.478
27446SOL    HW284346   1.603  33.967  28.416
27447SOL     OW84347  13.311   7.748  11.801
27447SOL    HW184348  -8.793  -3.383 -32.341
27447SOL    HW284349  -8.779   7.791 -10.193
27448SOL     OW84350   4.706  10.208   3.986
27448SOL    HW184351   4.753  10.193   4.068
27448SOL    HW284352   4.767  10.180   3.917
27449SOL     OW84353   3.851   7.214   6.303
27449SOL    HW184354 -18.170   7.152   6.348
27449SOL    HW284355  -7.270  18.252   6.354
27450SOL     OW84356   7.512   2.950   2.720
27450SOL    HW184357 -14.520  -8.109   2.802
27450SOL    HW284358   7.484   3.041   2.729
27451SOL     OW84359   1.281   9.681   2.545
27451SOL    HW184360   1.355   9.622   2.534
27451SOL    HW284361   1.227   9.667 -19.611
27452SOL     OW84362   2.916   5.254   7.913
27452SOL    HW184363   2.870  16.290   7.829
27452SOL    HW284364   2.988  16.231   7.904
27453SOL     OW84365   4.420   0.068  -0.087
27453SOL    HW184366   4.478   0.077  33.107
27453SOL    HW284367   4.478   0.037  -0.157
27454SOL     OW84368   9.909  10.206   2.987
27454SOL    HW184369   9.950  10.276  -8.105
27454SOL    HW284370   9.902  10.243   3.075
27455SOL     OW84371   8.333   8.142   1.655
27455SOL    HW184372   8.422   8.171   1.673
27455SOL    HW284373   8.327  30.221   1.559
27456SOL     OW84374   0.246   0.703   5.476
27456SOL    HW184375   0.325   0.752   5.457
27456SOL    HW284376   0.211   0.678  -5.649
27457SOL     OW84377  10.836  10.934   2.526
27457SOL    HW184378  10.858 -33.198   2.616
27457SOL    HW284379  10.907  10.970  13.513
27458SOL     OW84380   1.202   5.263   1.860
27458SOL    HW184381   1.280  27.395   1.844
27458SOL    HW284382   1.211  16.227   1.802
27459SOL     OW84383   4.203   9.534   9.438
27459SOL    HW184384   4.167  20.651   9.396
27459SOL    HW284385  15.293   9.567   9.513
27460SOL     OW84386   4.484   3.853   7.587
27460SOL    HW184387   4.504   3.827  -3.362
27460SOL    HW284388   4.551  14.958 -14.513
27461SOL     OW84389   6.568   1.375   6.696
27461SOL    HW184390   6.576   1.281   6.683
27461SOL    HW284391   6.545   1.409 -26.510
27462SOL     OW84392  10.082   3.060   9.290
27462SOL    HW184393  10.113  14.012  20.355
27462SOL    HW284394  10.064   3.053   9.196
27463SOL     OW84395   5.256   4.153   9.454
27463SOL    HW184396  16.344   4.232   9.432
27463SOL    HW284397   5.235   4.162   9.547
27464SOL     OW84398   5.813   1.207   7.754
27464SOL    HW184399   5.819   1.187   7.661
27464SOL    HW284400   5.899  -9.797   7.776
27465SOL     OW84401   6.525   2.420   5.639
27465SOL    HW184402   6.571   2.353  38.808
27465SOL    HW284403   6.453 -19.706  16.636
27466SOL     OW84404   0.160   2.429  10.005
27466SOL    HW184405   0.161  -8.555   9.927
27466SOL    HW284406  22.298   2.357  21.024
27467SOL     OW84407   9.341   7.810   2.883
27467SOL    HW184408   9.324   7.886  25.017
27467SOL    HW284409   9.307   7.735   2.933
27468SOL     OW84410  10.007   7.119  10.683
27468SOL    HW184411   9.987   7.213  10.684
27468SOL    HW284412  10.102   7.115  10.673
27469SOL     OW84413   9.275   7.647   7.067
27469SOL    HW184414   9.237   7.732  18.086
27469SOL    HW284415  31.440   7.668  18.144
27470SOL     OW84416   3.705   2.428   5.510
27470SOL    HW184417   3.648   2.479   5.567
27470SOL    HW284418  -7.389   2.353   5.482
27471SOL     OW84419   6.115  10.518   5.618
27471SOL    HW184420   6.188  10.457   5.621
27471SOL    HW284421   6.140  -0.457  38.670
27472SOL     OW84422   3.073  11.231   6.257
27472SOL    HW184423   3.116   0.236   6.184
27472SOL    HW284424   3.058  11.299 -15.757
27473SOL     OW84425  10.018   2.368   7.568
27473SOL    HW184426  10.105   2.340 -14.484
27473SOL    HW284427  10.033   2.446  -3.525
27474SOL     OW84428   7.389   8.484   0.438
27474SOL    HW184429   7.463  -2.501   0.465
27474SOL    HW284430   7.312  -2.508   0.467
27475SOL     OW84431   9.121   4.113  10.202
27475SOL    HW184432   9.211  15.136  10.176
27475SOL    HW284433 -12.965   4.076 -11.789
27476SOL     OW84434   2.261  10.387   8.044
27476SOL    HW184435   2.342  10.337   8.058
27476SOL    HW284436  13.320  10.473 -13.998
27477SOL     OW84437   3.731   8.443   2.528
27477SOL    HW184438  -7.372  19.551   2.508
27477SOL    HW284439 -18.300   8.431   2.446
27478SOL     OW84440   3.338   0.170   8.525
27478SOL    HW184441 -29.752   0.176   8.616
27478SOL    HW284442 -18.661  11.219   8.473
27479SOL     OW84443   0.756  11.973   9.096
27479SOL    HW184444  11.809 -21.148   9.191
27479SOL    HW284445  11.804   0.842   9.069
27480SOL     OW84446   0.372   4.778   6.982
27480SOL    HW184447   0.390   4.848   6.918
27480SOL    HW284448   0.453   4.771   7.033
27481SOL     OW84449   7.808   6.366   6.708
27481SOL    HW184450   7.772  17.363  17.826
27481SOL    HW284451 -14.204   6.306   6.676
27482SOL     OW84452  10.368  10.596   6.719
27482SOL    HW184453  -0.614  10.542  -4.266
27482SOL    HW284454  -0.739  10.628   6.779
27483SOL     OW84455   5.901   7.730   5.291
27483SOL    HW184456  16.975   7.790   5.357
27483SOL    HW284457   5.888   7.785   5.213
27484SOL     OW84458   7.238   9.693   3.515
27484SOL    HW184459   7.222   9.753   3.441
27484SOL    HW284460  -3.823   9.607   3.480
27485SOL     OW84461  -0.316   4.679   4.573
27485SOL    HW184462  -0.260  -6.433   4.601
27485SOL    HW284463  32.863  -6.301   4.527
27486SOL     OW84464   5.415   1.771   5.341
27486SOL    HW184465   5.494   1.730  27.386
27486SOL    HW284466  16.486   1.832  16.448
27487SOL     OW84467   2.325   5.197   6.477
27487SOL    HW184468  13.274  16.214   6.497
27487SOL    HW284469   2.327   5.293   6.480
27488SOL     OW84470   7.267   1.520   8.602
27488SOL    HW184471   7.172  -9.510   8.599
27488SOL    HW284472  -3.756   1.477  19.726
27489SOL     OW84473  11.675   2.151   4.276
27489SOL    HW184474   0.715   2.200   4.259
27489SOL    HW284475 -21.491   2.203   4.341
27490SOL     OW84476   0.468   3.735   6.670
27490SOL    HW184477  11.466   3.701   6.750
27490SOL    HW284478   0.396   3.746   6.608
27491SOL     OW84479   1.498   7.681  -1.157
27491SOL    HW184480  12.464   7.639  -1.113
27491SOL    HW284481  -9.466   7.663  20.979
27492SOL     OW84482   7.615   2.421   4.846
27492SOL    HW184483   7.582   2.487   4.785
27492SOL    HW284484   7.703   2.451  -6.171
27493SOL     OW84485   1.458   1.752   1.583
27493SOL    HW184486   1.416   1.793   1.659
27493SOL    HW284487   1.550   1.744   1.608
27494SOL     OW84488   6.325   1.369  10.002
27494SOL    HW184489  -4.643  -9.725  10.035
27494SOL    HW284490   6.268  12.422  21.116
27495SOL     OW84491   6.407   6.672   5.114
27495SOL    HW184492   6.362   6.752   5.140
27495SOL    HW284493   6.426   6.627   5.197
27496SOL     OW84494   5.261   2.632   3.244
27496SOL    HW184495   5.288  -8.440  -7.710
27496SOL    HW284496   5.331   2.691   3.217
27497SOL     OW84497   9.759  10.284   7.978
27497SOL    HW184498   9.703  10.334   8.037
27497SOL    HW284499  -1.198  21.312   8.026
27498SOL     OW84500  10.692   3.760   1.976
27498SOL    HW184501  10.636   3.802   1.911
27498SOL    HW284502  10.767   3.728   1.926
27499SOL     OW84503   8.740   3.218   9.958
27499SOL    HW184504 -13.368   3.304   9.988
27499SOL    HW284505   8.708 -29.907   9.868
27500SOL     OW84506   9.253   1.652  10.453
27500SOL    HW184507  -1.717   1.708  10.488
27500SOL    HW284508   9.279   1.637  -0.677
27501SOL     OW84509   8.451   2.553   6.039
27501SOL    HW184510 -13.580   2.567  17.161
27501SOL    HW284511   8.366   2.593   6.054
27502SOL     OW84512   4.265  10.019   6.538
27502SOL    HW184513   4.247   9.930   6.506
27502SOL    HW284514  -6.853  10.069   6.514
27503SOL     OW84515   7.242   7.963   2.352
27503SOL    HW184516  51.362   8.013  13.320
27503SOL    HW284517  -3.756   7.888   2.309
27504SOL     OW84518   9.467   3.896  10.742
27504SOL    HW184519   9.552   3.908  10.785
27504SOL    HW284520   9.487   3.844  10.664
27505SOL     OW84521   6.423   2.010   6.621
27505SOL    HW184522 -15.736  24.115  17.615
27505SOL    HW284523   6.398   2.006   6.713
27506SOL     OW84524   1.325   7.518   9.447
27506SOL    HW184525   1.339  29.540   9.372
27506SOL    HW284526   1.285   7.597   9.411
27507SOL     OW84527   6.757   9.007   2.298
27507SOL    HW184528   6.746  -2.086   2.219
27507SOL    HW284529   6.756 -35.061   2.267
27508SOL     OW84530   1.389   5.438   0.690
27508SOL    HW184531  -9.673  -5.554   0.770
27508SOL    HW284532  -9.647   5.506   0.622
27509SOL     OW84533   3.956  12.008   0.933
27509SOL    HW184534 -18.112 -10.027  11.889
27509SOL    HW284535   4.043   0.968 -10.067
27510SOL     OW84536   8.491   0.535   0.975
27510SOL    HW184537   8.463   0.600   1.040
27510SOL    HW284538   8.416   0.476   0.966
27511SOL     OW84539   6.408   4.495   3.867
27511SOL    HW184540   6.415   4.587   3.844
27511SOL    HW284541   6.445   4.448  47.950
27512SOL     OW84542   5.675   7.126   7.951
27512SOL    HW184543   5.599   7.123   7.893
27512SOL    HW284544   5.638   7.140  41.157
27513SOL     OW84545   8.770  -2.990   2.679
27513SOL    HW184546  19.745   8.076   2.745
27513SOL    HW284547   8.790  41.249  13.671
27514SOL     OW84548   8.160   8.746   9.290
27514SOL    HW184549  19.222  19.756   9.202
27514SOL    HW284550  19.227   8.675  31.427
27515SOL     OW84551   4.750   9.817   5.065
27515SOL    HW184552  -6.272   9.908   5.038
27515SOL    HW284553 -17.284   9.808   5.149
27516SOL     OW84554   6.078   9.442   9.273
27516SOL    HW184555   6.022  20.510   9.345
27516SOL    HW284556   6.065  -1.530   9.206
27517SOL     OW84557  11.647   9.552   3.365
27517SOL    HW184558  11.709   9.598  36.540
27517SOL    HW284559 -21.477  20.645  58.483
27518SOL     OW84560   2.089   0.063   4.439
27518SOL    HW184561 -20.022   0.149   4.465
27518SOL    HW284562  -9.011   0.034  26.449
27519SOL     OW84563   6.332  10.405   9.472
27519SOL    HW184564  -4.755 -11.705   9.549
27519SOL    HW284565   6.322  10.335  31.487
27520SOL     OW84566   7.220   6.177   8.139
27520SOL    HW184567   7.240   6.251   8.081
27520SOL    HW284568   7.188  28.188   8.081
27521SOL     OW84569  10.017   5.322   3.223
27521SOL    HW184570  10.046   5.412  14.246
27521SOL    HW284571  10.078   5.267  14.214
27522SOL     OW84572   8.195   8.853   4.940
27522SOL    HW184573   8.099  30.930 -50.259
27522SOL    HW284574   8.219   8.874  -6.189
27523SOL     OW84575   2.189   8.503   4.044
27523SOL    HW184576  35.344   8.471   3.962
27523SOL    HW284577  13.261   8.593  15.091
27524SOL     OW84578   8.271   0.853  10.880
27524SOL    HW184579  19.395  11.853  10.898
27524SOL    HW284580  19.287  11.938 -11.118
27525SOL     OW84581   9.328   4.002   0.716
27525SOL    HW184582   9.411   4.009   0.763
27525SOL    HW284583   9.353   3.980  11.666
27526SOL     OW84584  11.601   3.591   0.716
27526SOL    HW184585   0.561  -7.396   0.796
27526SOL    HW284586   0.540   3.653   0.646
27527SOL     OW84587   9.880   9.888   3.275
27527SOL    HW184588   9.867 -34.180   3.305
27527SOL    HW284589  20.848   9.839   3.314
27528SOL     OW84590   7.153   2.121   1.535
27528SOL    HW184591  -3.826  13.123   1.599
27528SOL    HW284592  -3.837   2.124   1.453
27529SOL     OW84593   7.177   7.571   2.255
27529SOL    HW184594   7.215   7.658   2.266
27529SOL    HW284595   7.179   7.556  -8.879
27530SOL     OW84596   3.223   2.914   1.025
27530SOL    HW184597   3.161   2.841   1.018
27530SOL    HW284598   3.308   2.875  23.085
27531SOL     OW84599   0.977   7.698  10.863
27531SOL    HW184600   1.015   7.778  10.827
27531SOL    HW284601 -10.093   7.649  10.786
27532SOL     OW84602   0.623   3.387   5.767
27532SOL    HW184603   0.602   3.459  16.746
27532SOL    HW284604   0.592   3.418   5.852
27533SOL     OW84605   7.871   1.009   2.923
27533SOL    HW184606   7.901   0.927   2.884
27533SOL    HW284607   7.786   1.024   2.882
27534SOL     OW84608   4.414  10.255  10.034
27534SOL    HW184609   4.473  10.252   9.958
27534SOL    HW284610   4.329  10.278   9.997
27535SOL     OW84611   8.851   4.868   4.767
27535SOL    HW184612   8.908   4.793   4.745
27535SOL    HW284613   8.826   4.853   4.858
27536SOL     OW84614   8.421   2.246   8.783
27536SOL    HW184615   8.431   2.245   8.688
27536SOL    HW284616   8.505   2.278   8.816
27537SOL     OW84617   4.629   6.939   0.173
27537SOL    HW184618   4.581   6.883   0.112
27537SOL    HW284619   4.589  -4.119   0.258
27538SOL     OW84620   6.066   3.432   7.399
27538SOL    HW184621   6.036  25.529  -3.551
27538SOL    HW284622   5.986  14.476   7.346
27539SOL     OW84623  10.496   9.129   4.371
27539SOL    HW184624  10.571   9.111   4.315
27539SOL    HW284625 -22.614   9.068  -6.596
27540SOL     OW84626   1.716   0.272  10.406
27540SOL    HW184627  45.859  11.294  10.499
27540SOL    HW284628   1.807   0.302  21.442
27541SOL     OW84629   7.682   4.092   9.787
27541SOL    HW184630   7.641   4.155   9.728
27541SOL    HW284631  -3.431 -18.025  20.876
27542SOL     OW84632   7.112   0.551   1.896
27542SOL    HW184633  18.079  11.532   1.916
27542SOL    HW284634   7.162   0.504   1.829
27543SOL     OW84635   0.386   4.801   2.576
27543SOL    HW184636   0.384  -6.257  13.521
27543SOL    HW284637  22.536   4.748   2.610
27544SOL     OW84638   3.936   1.198   1.724
27544SOL    HW184639  -7.167   1.247 -20.408
27544SOL    HW284640   3.908  23.291   1.814
27545SOL     OW84641   4.875   9.711   3.972
27545SOL    HW184642  15.982  20.799  -7.019
27545SOL    HW284643  37.921   9.772  26.044
27546SOL     OW84644   3.447   9.089   1.572
27546SOL    HW184645   3.434   9.044   1.655
27546SOL    HW284646   3.473   9.178   1.597
27547SOL     OW84647   9.902   8.022   1.327
27547SOL    HW184648   9.930   7.938   1.365
27547SOL    HW284649  -1.209   8.050  23.463
27548SOL     OW84650  12.094   2.799   0.764
27548SOL    HW184651   1.101   2.715  22.839
27548SOL    HW284652   1.092  24.922   0.840
27549SOL     OW84653   2.902   3.997   7.524
27549SOL    HW184654   2.873  14.946  -3.505
27549SOL    HW284655  13.890   4.029   7.449
27550SOL     OW84656   4.520   1.133   1.800
27550SOL    HW184657   4.468  12.179   1.881
27550SOL    HW284658   4.544   1.040   1.795
27551SOL     OW84659   6.290   2.280   8.177
27551SOL    HW184660  28.375 -30.743   8.180
27551SOL    HW284661  28.311   2.262  -2.936
27552SOL     OW84662   9.369   5.428   1.048
27552SOL    HW184663   9.346 -27.768   1.101
27552SOL    HW284664   9.303 -16.586   1.071
27553SOL     OW84665   5.583   3.140   8.897
27553SOL    HW184666 -16.437   3.069   8.920
27553SOL    HW284667   5.621   3.180   8.819
27554SOL     OW84668   2.030  10.024   3.864
27554SOL    HW184669   1.945  10.057   3.894
27554SOL    HW284670   2.088  -1.002  14.979
27555SOL     OW84671   2.069   5.477   9.645
27555SOL    HW184672   2.162   5.499   9.636
27555SOL    HW284673  13.108   5.386   9.672
27556SOL     OW84674   8.025   2.184   3.751
27556SOL    HW184675  19.013   2.173   3.671
27556SOL    HW284676   8.026  24.177   3.792
27557SOL     OW84677   7.520   6.468   9.213
27557SOL    HW184678  -3.533 -15.590  31.384
27557SOL    HW284679  18.655 -15.616   9.204
27558SOL     OW84680  10.160   5.913   8.734
27558SOL    HW184681  10.149   5.925  30.719
27558SOL    HW284682  10.244   5.953   8.754
27559SOL     OW84683   6.776   8.751   4.059
27559SOL    HW184684   6.703 -24.358   3.999
27559SOL    HW284685   6.780   8.834   4.106
27560SOL     OW84686   1.685   1.123   7.435
27560SOL    HW184687   1.749   1.113   7.365
27560SOL    HW284688   1.607   1.158   7.392
27561SOL     OW84689   4.545   8.848   4.674
27561SOL    HW184690 -17.557  30.847   4.627
27561SOL    HW284691  -6.403   8.865   4.651
27562SOL     OW84692   7.429   9.853   6.240
27562SOL    HW184693   7.435   9.854   6.336
27562SOL    HW284694  -3.524   9.823  -4.829
27563SOL     OW84695  10.419   8.148   3.265
27563SOL    HW184696  -0.713 -13.922   3.242
27563SOL    HW284697 -22.700   8.119   3.356
27564SOL     OW84698  10.553  10.829   9.651
27564SOL    HW184699  10.579 -11.187  20.624
27564SOL    HW284700  10.508  -0.280 -12.477
27565SOL     OW84701   7.929   4.505   3.023
27565SOL    HW184702   7.918   4.431   2.964
27565SOL    HW284703   7.966   4.467   3.103
27566SOL     OW84704   6.667   4.884   1.640
27566SOL    HW184705   6.617   4.920  12.753
27566SOL    HW284706   6.750   4.932  12.681
27567SOL     OW84707   8.789   4.223   2.973
27567SOL    HW184708   8.874  -6.803  13.971
27567SOL    HW284709  30.836   4.312   2.991
27568SOL     OW84710   7.696   4.623   7.933
27568SOL    HW184711 -14.359  26.777   7.879
27568SOL    HW284712   7.603   4.635   7.952
27569SOL     OW84713   8.416   4.207  10.512
27569SOL    HW184714  19.390  15.268  10.578
27569SOL    HW284715   8.491   4.176  10.563
27570SOL     OW84716   7.813   1.651   4.323
27570SOL    HW184717   7.802 -20.345   4.277
27570SOL    HW284718  -3.165   1.602   4.269
27571SOL     OW84719   4.005   9.687   6.877
27571SOL    HW184720   3.954  20.738   6.797
27571SOL    HW284721   3.983   9.763  17.970
27572SOL     OW84722   8.039  -2.422  10.941
27572SOL    HW184723   7.996   8.544  10.986
27572SOL    HW284724   7.986  30.773  -0.075
27573SOL     OW84725   4.828   8.803   6.769
27573SOL    HW184726   4.773  19.881   6.837
27573SOL    HW284727  15.851   8.709   6.775
27574SOL     OW84728  -1.275   2.940  -0.096
27574SOL    HW184729  31.897   2.868  -0.129
27574SOL    HW284730  20.866   3.013  10.952
27575SOL     OW84731   5.681   6.026   8.608
27575SOL    HW184732   5.724  -4.935   8.643
27575SOL    HW284733   5.744   5.989   8.547
27576SOL     OW84734   9.893   2.128  10.242
27576SOL    HW184735 -12.109   2.072  10.244
27576SOL    HW284736   9.834  -8.950  10.307
27577SOL     OW84737   1.679   1.799   4.860
27577SOL    HW184738   1.643   1.729   4.807
27577SOL    HW284739   1.741   1.756   4.918
27578SOL     OW84740   0.541   7.841   4.523
27578SOL    HW184741  11.650  -3.187   4.588
27578SOL    HW284742   0.578 -36.377   4.459
27579SOL     OW84743  10.448   1.746   4.759
27579SOL    HW184744  10.440   1.737   4.854
27579SOL    HW284745  10.384  12.853  -6.303
27580SOL     OW84746   0.947  10.624   2.739
27580SOL    HW184747  12.042  10.645 -30.455
27580SOL    HW284748  12.048  10.593  -8.234
27581SOL     OW84749   2.287   4.471  -1.334
27581SOL    HW184750  13.384   4.399   9.682
27581SOL    HW284751  13.239   4.433  42.828
27582SOL     OW84752   9.097   1.117   9.098
27582SOL    HW184753 -12.900  23.219  20.182
27582SOL    HW284754 -23.996   1.053   9.031
27583SOL     OW84755   0.706   9.154   9.042
27583SOL    HW184756   0.732   9.186   9.129
27583SOL    HW284757 -10.331   9.232  -2.053
27584SOL     OW84758   9.798   0.492   0.170
27584SOL    HW184759   9.805   0.547  11.131
27584SOL    HW284760   9.725   0.530   0.219
27585SOL     OW84761   8.310   7.070   7.017
27585SOL    HW184762   8.354  -3.922   7.088
27585SOL    HW284763   8.332   6.979   7.032
27586SOL     OW84764   6.899  -0.134   9.415
27586SOL    HW184765   6.911  -0.058  -1.567
27586SOL    HW284766   6.988  21.912   9.401
27587SOL     OW84767   3.153   8.473   3.601
27587SOL    HW184768  -7.966   8.513   3.564
27587SOL    HW284769   3.148   8.492   3.695
27588SOL     OW84770   0.463   8.401  -2.850
27588SOL    HW184771   0.520   8.399  41.386
27588SOL    HW284772   0.456   8.309   8.164
27589SOL     OW84773   2.046   2.923   1.350
27589SOL    HW184774  -8.906   2.933  34.506
27589SOL    HW284775  24.085 -19.226   1.402
27590SOL     OW84776   0.464  10.177   8.212
27590SOL    HW184777   0.553 -11.931   8.192
27590SOL    HW284778   0.433 -22.904   8.129
27591SOL     OW84779  -0.135   1.743  12.685
27591SOL    HW184780 -11.107   1.678 -31.491
27591SOL    HW284781  32.916   1.725  12.620
27592SOL     OW84782   2.794   1.030   7.581
27592SOL    HW184783   2.746  12.080   7.499
27592SOL    HW284784  13.925   1.046   7.557
27593SOL     OW84785   5.696   2.440   3.268
27593SOL    HW184786   5.685  -8.511  -7.808
27593SOL    HW284787 -27.334 -19.641   3.302
27594SOL     OW84788   1.579   7.844   5.280
27594SOL    HW184789   1.514   7.913   5.296
27594SOL    HW284790 -20.456  -3.170   5.200
27595SOL     OW84791   3.001   1.681   3.075
27595SOL    HW184792   2.993   1.665   3.169
27595SOL    HW284793  -8.071 -20.478   3.034
27596SOL     OW84794   0.305   6.152   2.034
27596SOL    HW184795   0.356 -16.008  24.107
27596SOL    HW284796   0.234  -4.899 -20.109
27597SOL     OW84797   0.734   3.740   3.793
27597SOL    HW184798   0.720  36.773   3.753
27597SOL    HW284799   0.655  25.835   3.845
27598SOL     OW84800   5.317   5.598   6.693
27598SOL    HW184801   5.405  16.621  28.738
27598SOL    HW284802   5.285   5.672   6.641
27599SOL     OW84803   8.425   4.054   2.632
27599SOL    HW184804   8.501  -6.963  13.725
27599SOL    HW284805   8.355   4.039   2.695
27600SOL     OW84806   2.484  -0.586   5.294
27600SOL    HW184807   2.432  10.381  -5.711
27600SOL    HW284808 -19.571  -0.534  -5.669
27601SOL     OW84809   5.141   6.559   3.591
27601SOL    HW184810  16.137   6.639  14.661
27601SOL    HW284811   5.090   6.488   3.631
27602SOL     OW84812  10.636   8.728   1.768
27602SOL    HW184813 -11.429   8.804   1.713
27602SOL    HW284814 -11.537   8.728   1.786
27603SOL     OW84815   1.959   5.823   1.146
27603SOL    HW184816   1.932   5.914   1.136
27603SOL    HW284817 -31.241   5.773   1.137
27604SOL     OW84818  10.509   4.941   7.853
27604SOL    HW184819  -0.592  15.979   7.780
27604SOL    HW284820  10.590  27.055   7.815
27605SOL     OW84821   5.950   1.549  10.477
27605SOL    HW184822  16.924   1.604  -0.519
27605SOL    HW284823  -5.140   1.486  10.426
27606SOL     OW84824   6.175  10.637   7.518
27606SOL    HW184825   6.231  10.647   7.441
27606SOL    HW284826   6.118  10.714   7.516
27607SOL     OW84827   9.090   3.079   6.029
27607SOL    HW184828   9.058  25.100   5.960
27607SOL    HW284829   9.106   3.162   5.985
27608SOL     OW84830   3.229  10.456   8.509
27608SOL    HW184831   3.258  10.544  30.564
27608SOL    HW284832   3.242  10.404   8.430
27609SOL     OW84833  10.118   2.337   4.388
27609SOL    HW184834  21.119   2.312   4.305
27609SOL    HW284835  10.067   2.414 -28.703
27610SOL     OW84836   4.191   4.812  10.243
27610SOL    HW184837  15.246   4.790  -0.889
27610SOL    HW284838  -6.784   4.880  21.302
27611SOL     OW84839   8.319   8.222  11.331
27611SOL    HW184840  -2.787   8.259   0.350
27611SOL    HW284841  19.384  -2.900   0.333
27612SOL     OW84842   4.267   3.318   5.321
27612SOL    HW184843   4.266   3.242  16.302
27612SOL    HW284844   4.352  -7.725  16.403
27613SOL     OW84845   7.227   0.633   8.796
27613SOL    HW184846   7.238   0.551   8.844
27613SOL    HW284847   7.139   0.628   8.760
27614SOL     OW84848   9.474   4.657   1.226
27614SOL    HW184849   9.439  15.608   1.236
27614SOL    HW284850   9.569  26.724   1.222
27615SOL     OW84851   1.894   2.921   0.111
27615SOL    HW184852  12.908   2.991   0.051
27615SOL    HW284853  23.912   2.850   0.092
27616SOL     OW84854   6.966  12.755  11.310
27616SOL    HW184855   7.013  -9.396   0.229
27616SOL    HW284856   7.035  -9.268   0.307
27617SOL     OW84857   7.399   6.334  10.760
27617SOL    HW184858   7.366   6.299  -0.363
27617SOL    HW284859 -25.739   6.264  -0.216
27618SOL     OW84860   0.373  -0.088   6.323
27618SOL    HW184861  33.483   0.001   6.288
27618SOL    HW284862   0.437  10.959  17.433
27619SOL     OW84863   6.889   2.398   9.881
27619SOL    HW184864  28.874   2.410   9.891
27619SOL    HW284865   6.911   2.328   9.942
27620SOL     OW84866   8.744   4.120   6.229
27620SOL    HW184867   8.742   4.034   6.188
27620SOL    HW284868   8.673  15.158  28.372
27621SOL     OW84869   9.147   5.368   9.512
27621SOL    HW184870   9.198   5.444   9.541
27621SOL    HW284871   9.084   5.403   9.449
27622SOL     OW84872   5.404  10.706  10.405
27622SOL    HW184873   5.387  10.626  10.456
27622SOL    HW284874   5.319 -11.349  10.368
27623SOL     OW84875   9.532   9.442  10.788
27623SOL    HW184876   9.586   9.482  10.857
27623SOL    HW284877   9.455   9.409  10.834
27624SOL     OW84878   6.713  -1.483   4.951
27624SOL    HW184879   6.690  31.544   4.965
27624SOL    HW284880   6.629  -1.437   4.953
27625SOL     OW84881   9.120   5.703   9.670
27625SOL    HW184882 -13.010   5.782   9.690
27625SOL    HW284883   9.111   5.692   9.576
27626SOL     OW84884   5.076   4.566   4.427
27626SOL    HW184885   4.990   4.585   4.465
27626SOL    HW284886  16.137  15.517   4.458
27627SOL     OW84887   7.763   7.055   1.981
27627SOL    HW184888   7.701   7.120  -9.090
27627SOL    HW284889  -3.282   7.060   2.076
27628SOL     OW84890   1.560   8.037   3.073
27628SOL    HW184891   1.644   8.082  14.117
27628SOL    HW284892   1.508   8.090  14.052
27629SOL     OW84893   9.179   2.560   0.283
27629SOL    HW184894   9.168  24.613  11.414
27629SOL    HW284895  20.158   2.633   0.272
27630SOL     OW84896   1.989   1.482   4.769
27630SOL    HW184897   1.944  -9.594   4.693
27630SOL    HW284898  24.079   1.575   4.749
27631SOL     OW84899   8.525   8.016   4.721
27631SOL    HW184900  19.503  -2.986   4.658
27631SOL    HW284901  -2.435   8.069  15.751
27632SOL     OW84902   4.094   2.427  11.443
27632SOL    HW184903   4.150   2.425   0.481
27632SOL    HW284904   4.155   2.437  11.370
27633SOL     OW84905   2.779   6.172   9.919
27633SOL    HW184906  24.943   6.204   9.888
27633SOL    HW284907  -8.313  17.291   9.932
27634SOL     OW84908  -0.408   5.253   3.074
27634SOL    HW184909  -0.494   5.288  -7.940
27634SOL    HW284910  10.689  -5.766   3.148
27635SOL     OW84911   5.178   4.552  -3.695
27635SOL    HW184912  16.133   4.572  40.423
27635SOL    HW284913 -27.891  15.674  29.416
27636SOL     OW84914   6.451   6.778   0.070
27636SOL    HW184915  17.478   6.854   0.012
27636SOL    HW284916   6.519  17.845  22.210
27637SOL     OW84917   2.626   6.213   2.285
27637SOL    HW184918   2.644   6.225   2.378
27637SOL    HW284919   2.531   6.204  -8.760
27638SOL     OW84920   0.325   4.270  11.323
27638SOL    HW184921   0.330   4.267  11.419
27638SOL    HW284922  11.421   4.343   0.259
27639SOL     OW84923   3.309   5.850   6.338
27639SOL    HW184924   3.283   5.942   6.327
27639SOL    HW284925  14.337   5.833  17.471
27640SOL     OW84926   7.070   8.990   2.849
27640SOL    HW184927   7.070   9.073   2.801
27640SOL    HW284928  29.214   9.002   2.919
27641SOL     OW84929   4.496   8.181   4.064
27641SOL    HW184930 -28.599   8.271  48.247
27641SOL    HW284931   4.411   8.189   4.021
27642SOL     OW84932   3.110   3.648   1.682
27642SOL    HW184933  14.217   3.666  -9.423
27642SOL    HW284934   3.095   3.733  12.765
27643SOL     OW84935   4.228   4.334   5.363
27643SOL    HW184936  15.193   4.383  -5.710
27643SOL    HW284937  15.294   4.278  -5.749
27644SOL     OW84938   6.337   0.052   0.788
27644SOL    HW184939   6.388  11.011  11.816
27644SOL    HW284940   6.362   0.083  11.914
27645SOL     OW84941   4.305   7.849   2.244
27645SOL    HW184942 -17.708  -3.143   2.192
27645SOL    HW284943  15.396   7.799   2.307
27646SOL     OW84944   4.212   8.713   8.315
27646SOL    HW184945   4.212  19.848   8.325
27646SOL    HW284946   4.304   8.689   8.318
27647SOL     OW84947   8.338   5.921   9.922
27647SOL    HW184948 -13.655   5.881   9.934
27647SOL    HW284949   8.350   6.012  20.988
27648SOL     OW84950   0.677   4.829  10.639
27648SOL    HW184951   0.624   4.851  10.563
27648SOL    HW284952   0.627  15.901  -0.326
27649SOL     OW84953   3.351   0.125   1.743
27649SOL    HW184954   3.415   0.156   1.680
27649SOL    HW284955   3.364   0.031   1.748
27650SOL     OW84956   0.331   7.024   6.124
27650SOL    HW184957   0.273   7.006   6.050
27650SOL    HW284958   0.273   7.025  -4.839
27651SOL     OW84959   4.954   0.126   4.082
27651SOL    HW184960  26.985   0.045  -6.975
27651SOL    HW284961  15.946  11.207   4.154
27652SOL     OW84962  10.906  10.374   8.382
27652SOL    HW184963 -11.180  10.320   8.461
27652SOL    HW284964  10.996  10.360   8.352
27653SOL     OW84965   9.519  11.903   5.269
27653SOL    HW184966   9.568 -10.159   5.189
27653SOL    HW284967   9.430 -10.194   5.240
27654SOL     OW84968   9.357   3.085   9.003
27654SOL    HW184969   9.315   3.000  -2.051
27654SOL    HW284970   9.442   3.077   8.959
27655SOL     OW84971   5.638   2.349  10.272
27655SOL    HW184972  -5.447  13.400  10.355
27655SOL    HW284973   5.627  13.471  -0.814
27656SOL     OW84974   1.902   8.316   7.037
27656SOL    HW184975   1.973  19.346  51.133
27656SOL    HW284976   1.831   8.357   6.987
27657SOL     OW84977   5.479   2.801   3.348
27657SOL    HW184978   5.522   2.735   3.402
27657SOL    HW284979   5.397  13.859  36.512
27658SOL     OW84980   2.277   4.063   8.096
27658SOL    HW184981  -8.831  -6.941   8.153
27658SOL    HW284982   2.293   3.975   8.131
27659SOL     OW84983   3.677   8.058   5.780
27659SOL    HW184984 -18.479   8.052   5.836
27659SOL    HW284985  -7.393  30.183   5.701
27660SOL     OW84986   8.770   9.784   7.456
27660SOL    HW184987   8.855   9.822  18.473
27660SOL    HW284988   8.707   9.854  18.478
27661SOL     OW84989   9.765   3.417   4.690
27661SOL    HW184990   9.822   3.346 -17.421
27661SOL    HW284991   9.825   3.476   4.736
27662SOL     OW84992   6.963   1.311   8.875
27662SOL    HW184993   6.925   1.372   8.938
27662SOL    HW284994  -4.000   1.275   8.918
27663SOL     OW84995   7.910   3.681   8.999
27663SOL    HW184996  29.956  14.631  64.204
27663SOL    HW284997   7.838   3.736 -13.050
27664SOL     OW84998   5.112   4.910   7.558
27664SOL    HW184999   5.028  -6.146   7.515
27664SOL    HW285000   5.176   4.905 -14.591
27665SOL     OW85001   8.446   7.422   1.673
27665SOL    HW185002   8.368   7.389   1.628
27665SOL    HW285003   8.412   7.489   1.733
27666SOL     OW85004   4.972   5.113   0.749
27666SOL    HW185005  16.013  16.153  22.923
27666SOL    HW285006   5.064   5.112   0.723
27667SOL     OW85007   2.161   2.975   8.290
27667SOL    HW185008  13.252   3.055   8.277
27667SOL    HW285009   2.077   3.006   8.326
27668SOL     OW85010   6.368   7.681  -0.048
27668SOL    HW185011  -4.698   7.725  11.072
27668SOL    HW285012   6.424   7.609  -0.018
27669SOL     OW85013   3.250   4.036   3.912
27669SOL    HW185014  -7.694  15.073   3.903
27669SOL    HW285015  14.258   3.966  25.934
27670SOL     OW85016   2.116   3.545   1.625
27670SOL    HW185017   2.210   3.560  12.676
27670SOL    HW285018   2.101   3.562   1.532
27671SOL     OW85019   6.338   6.303   0.748
27671SOL    HW185020  17.288  28.358   0.725
27671SOL    HW285021 -26.732  -4.819  11.786
27672SOL     OW85022   6.010   5.892   4.920
27672SOL    HW185023   5.999   5.838  15.881
27672SOL    HW285024   6.012  -5.211  -6.047
27673SOL     OW85025   0.075   2.056   4.806
27673SOL    HW185026   0.111   2.145  15.838
27673SOL    HW285027   0.013   2.049  37.852
27674SOL     OW85028   7.166   6.612   5.568
27674SOL    HW185029  -3.923  -4.474   5.500
27674SOL    HW285030  29.190   6.688   5.590
27675SOL     OW85031   7.443   6.849   9.327
27675SOL    HW185032   7.443   6.938   9.362
27675SOL    HW285033   7.436   6.860   9.232
27676SOL     OW85034   1.374   3.631   3.263
27676SOL    HW185035   1.345  14.730   3.333
27676SOL    HW285036   1.423  14.602   3.309
27677SOL     OW85037   1.069   7.097   5.093
27677SOL    HW185038 -10.034 -14.954   5.159
27677SOL    HW285039   1.142   7.158   5.103
27678SOL     OW85040   5.827   3.425   7.263
27678SOL    HW185041   5.798   3.512   7.290
27678SOL    HW285042   5.747   3.371   7.267
27679SOL     OW85043   2.390   8.044   3.909
27679SOL    HW185044  13.479   8.114   3.866
27679SOL    HW285045  24.378   8.064   3.890
27680SOL     OW85046   0.109   8.182   8.346
27680SOL    HW185047  11.057   8.180   8.371
27680SOL    HW285048   0.109  19.257   8.257
27681SOL     OW85049   1.988   7.564   0.788
27681SOL    HW185050   1.911  -3.515   0.748
27681SOL    HW285051 -20.124 -14.435  22.908
27682SOL     OW85052   8.492   2.602   0.701
27682SOL    HW185053   8.520   2.560   0.782
27682SOL    HW285054   8.504   2.695   0.717
27683SOL     OW85055   6.974   4.932   0.390
27683SOL    HW185056   7.052   4.881  44.524
27683SOL    HW285057 -15.178   4.873   0.374
27684SOL     OW85058   6.976   8.230   4.245
27684SOL    HW185059   7.027   8.285   4.186
27684SOL    HW285060  17.968  19.331  -6.739
27685SOL     OW85061   2.958   1.705   0.845
27685SOL    HW185062   2.950   1.728  23.016
27685SOL    HW285063   3.027  12.678   0.843
27686SOL     OW85064   7.489   3.574   0.968
27686SOL    HW185065   7.508   3.668   0.965
27686SOL    HW285066   7.399  14.606   0.936
27687SOL     OW85067   4.759   7.564   8.866
27687SOL    HW185068   4.704   7.642   8.865
27687SOL    HW285069   4.818   7.575   8.791
27688SOL     OW85070   3.100   3.182  10.328
27688SOL    HW185071   3.064   3.160  10.242
27688SOL    HW285072  25.245 -29.870  10.309
27689SOL     OW85073   8.709   3.593   6.737
27689SOL    HW185074  -2.365   3.680   6.717
27689SOL    HW285075  19.684   3.533   6.701
27690SOL     OW85076   0.946   5.952   4.905
27690SOL    HW185077   0.952   5.858   4.886
27690SOL    HW285078   0.978   5.961   4.995
27691SOL     OW85079   4.055   9.439   5.120
27691SOL    HW185080   4.042   9.369 -28.063
27691SOL    HW285081   4.137   9.417   5.164
27692SOL     OW85082   3.160   5.643   2.357
27692SOL    HW185083  -7.844   5.554   2.359
27692SOL    HW285084   3.084 -16.439  13.455
27693SOL     OW85085   8.717   5.758   8.072
27693SOL    HW185086   8.720   5.664   8.054
27693SOL    HW285087   8.782   5.796  19.053
27694SOL     OW85088   2.775   5.456   1.636
27694SOL    HW185089   2.825   5.517   1.690
27694SOL    HW285090   2.731   5.512  12.611
27695SOL     OW85091   7.034  10.616   4.710
27695SOL    HW185092  18.094  10.691   4.766
27695SOL    HW285093  18.097  10.645   4.622
27696SOL     OW85094   6.368   5.764   1.114
27696SOL    HW185095  -4.664   5.703   1.041
27696SOL    HW285096   6.442  27.903   1.104
27697SOL     OW85097   0.967  11.215  -0.224
27697SOL    HW185098   1.058 -21.879  10.797
27697SOL    HW285099   0.962  11.212  -0.129
27698SOL     OW85100   0.590   4.097   8.693
27698SOL    HW185101   0.616   4.144   8.614
27698SOL    HW285102   0.495   4.107   8.697
27699SOL     OW85103  -0.296   5.245   6.423
27699SOL    HW185104  -0.259   5.311  17.404
27699SOL    HW285105  10.770   5.273  17.550
27700SOL     OW85106   7.413   8.836   2.735
27700SOL    HW185107   7.395   8.749   2.701
27700SOL    HW285108   7.395   8.830  -8.210
27701SOL     OW85109   7.867   6.998   7.081
27701SOL    HW185110   7.848  18.076  -4.044
27701SOL    HW285111 -25.159   6.973   7.076
27702SOL     OW85112   1.743  10.758   8.523
27702SOL    HW185113   1.814 -11.361   8.473
27702SOL    HW285114   1.786  10.808   8.592
27703SOL     OW85115   8.268  10.566  10.173
27703SOL    HW185116   8.278  -0.395  10.118
27703SOL    HW285117   8.353  10.556  10.216
27704SOL     OW85118   5.045   7.369   9.692
27704SOL    HW185119   5.116  -3.636   9.745
27704SOL    HW285120   5.082   7.361  20.643
27705SOL     OW85121   4.581  -0.050  -0.354
27705SOL    HW185122  15.544  -0.011  -0.397
27705SOL    HW285123   4.558  10.898  21.737
27706SOL     OW85124   2.201   3.121   8.558
27706SOL    HW185125   2.169   3.121  -2.392
27706SOL    HW285126   2.142   3.180   8.511
27707SOL     OW85127   0.844   1.114   7.567
27707SOL    HW185128   0.876   1.085  18.692
27707SOL    HW285129   0.754   1.142  18.622
27708SOL     OW85130   9.309   6.035  10.707
27708SOL    HW185131  20.338  28.087  10.798
27708SOL    HW285132  -1.689  -5.080  10.665
27709SOL     OW85133   8.586   7.288   7.184
27709SOL    HW185134   8.637   7.268   7.106
27709SOL    HW285135   8.647   7.334   7.242
27710SOL     OW85136   6.957  10.332  10.729
27710SOL    HW185137  17.996  -0.740  10.819
27710SOL    HW285138 -15.036  21.348  10.695
27711SOL     OW85139   0.106   3.864   3.548
27711SOL    HW185140  11.125   3.827   3.462
27711SOL    HW285141   0.035   3.925   3.566
27712SOL     OW85142   2.240   8.888   6.799
27712SOL    HW185143  -8.728   8.826   6.817
27712SOL    HW285144   2.162   8.845  -4.206
27713SOL     OW85145   9.364   4.765   2.534
27713SOL    HW185146   9.357   4.674  -8.532
27713SOL    HW285147   9.274   4.792   2.555
27714SOL     OW85148   6.350   7.438   4.731
27714SOL    HW185149   6.388   7.431   4.819
27714SOL    HW285150  -4.712   7.348   4.708
27715SOL     OW85151   4.521   5.818  10.945
27715SOL    HW185152   4.453   5.825  11.011
27715SOL    HW285153   4.478   5.844 -11.216
27716SOL     OW85154   6.957   6.105   7.705
27716SOL    HW185155   6.997   6.166   7.644
27716SOL    HW285156   6.889   6.062 -25.465
27717SOL     OW85157  11.017   6.361  -0.236
27717SOL    HW185158  10.939  39.525  21.812
27717SOL    HW285159  11.065  28.506  -0.185
27718SOL     OW85160   5.436   8.608   4.811
27718SOL    HW185161   5.428   8.555   4.732
27718SOL    HW285162   5.376   8.681   4.798
27719SOL     OW85163   9.292   3.116   0.362
27719SOL    HW185164   9.233  14.189   0.295
27719SOL    HW285165  20.288  14.174  11.485
27720SOL     OW85166   5.961   0.551   7.991
27720SOL    HW185167 -16.143   0.590   7.907
27720SOL    HW285168   5.927  22.540   7.986
27721SOL     OW85169   2.795   9.514   8.129
27721SOL    HW185170  -8.218   9.454   8.199
27721SOL    HW285171   2.754   9.588   8.175
27722SOL     OW85172   3.330   1.353   6.257
27722SOL    HW185173   3.317   1.259   6.243
27722SOL    HW285174   3.359   1.359   6.348
27723SOL     OW85175   8.478   6.047   3.902
27723SOL    HW185176   8.556   6.007   3.940
27723SOL    HW285177 -35.724   5.975  14.896
27724SOL     OW85178   7.886   8.066   6.807
27724SOL    HW185179   7.858 -13.926  17.818
27724SOL    HW285180   7.963   8.047   6.754
27725SOL     OW85181   2.597  10.814   7.788
27725SOL    HW185182   2.611  10.720   7.778
27725SOL    HW285183  -8.531  10.821  18.864
27726SOL     OW85184   6.184   3.168  11.434
27726SOL    HW185185   6.227  14.212 -10.730
27726SOL    HW285186   6.091  14.219  11.415
27727SOL     OW85187   5.275  10.758   8.816
27727SOL    HW185188   5.258 -11.339   8.723
27727SOL    HW285189   5.352 -22.413   8.836
27728SOL     OW85190   7.257   5.472   4.388
27728SOL    HW185191   7.262   5.558   4.428
27728SOL    HW285192  -3.719   5.419  -6.603
27729SOL     OW85193   6.970  -0.842   9.593
27729SOL    HW185194  18.009  10.189   9.688
27729SOL    HW285195   6.915  21.314   9.575
27730SOL     OW85196   3.000   1.638   3.364
27730SOL    HW185197  14.076   1.709  -7.622
27730SOL    HW285198  13.979  12.633   3.423
27731SOL     OW85199   8.343   8.192   4.884
27731SOL    HW185200   8.374   8.163   4.799
27731SOL    HW285201   8.390   8.274   4.901
27732SOL     OW85202   1.017   4.529   7.533
27732SOL    HW185203   0.960  -6.470   7.599
27732SOL    HW285204   1.077   4.599  18.546
27733SOL     OW85205   0.132   4.784   8.643
27733SOL    HW185206   0.136   4.878   8.628
27733SOL    HW285207  11.142   4.775   8.734
27734SOL     OW85208   3.519  10.832   4.288
27734SOL    HW185209   3.472 -22.357   4.332
27734SOL    HW285210   3.466 -33.248   4.304
27735SOL     OW85211   6.300   7.894   4.979
27735SOL    HW185212   6.266   7.845  15.944
27735SOL    HW285213   6.249  19.015   4.978
27736SOL     OW85214   0.523   7.577   6.158
27736SOL    HW185215   0.617   7.561   6.147
27736SOL    HW285216   0.488   7.493   6.188
27737SOL     OW85217  -1.568   8.120   6.704
27737SOL    HW185218   9.464   8.052   6.771
27737SOL    HW285219  20.542  -2.842   6.752
27738SOL     OW85220   4.128   5.084   9.384
27738SOL    HW185221 -17.862  38.212   9.419
27738SOL    HW285222 -17.945  -5.919   9.295
27739SOL     OW85223   1.147   2.825   5.647
27739SOL    HW185224   1.173   2.874   5.569
27739SOL    HW285225   1.072  13.914  16.722
27740SOL     OW85226   0.946   6.311   9.357
27740SOL    HW185227   0.881  17.403   9.310
27740SOL    HW285228  11.998  17.398 -23.679
27741SOL     OW85229   0.994   5.610   9.123
27741SOL    HW185230  12.119  27.670   9.162
27741SOL    HW285231   0.977   5.538  42.182
27742SOL     OW85232   1.734   0.110   6.497
27742SOL    HW185233   1.680   0.034  -4.565
27742SOL    HW285234   1.673   0.184   6.493
27743SOL     OW85235   8.467   8.004   6.638
27743SOL    HW185236 -35.764   8.006   6.577
27743SOL    HW285237  -2.552  19.135  28.734
27744SOL     OW85238   7.648   8.202   9.295
27744SOL    HW185239   7.616   8.207   9.385
27744SOL    HW285240  29.650   8.219   9.241
27745SOL     OW85241   8.191   8.692   1.616
27745SOL    HW185242   8.100 -13.415   1.613
27745SOL    HW285243   8.202   8.747   1.539
27746SOL     OW85244   5.948   8.270   9.051
27746SOL    HW185245   5.990   8.246   9.134
27746SOL    HW285246   5.923   8.187  -2.028
27747SOL     OW85247  10.737   4.508   3.017
27747SOL    HW185248  10.715   4.587   2.968
27747SOL    HW285249  -0.218  26.607  36.177
27748SOL     OW85250   9.289  10.313   5.624
27748SOL    HW185251   9.244  -0.781   5.688
27748SOL    HW285252   9.296  10.399 -16.414
27749SOL     OW85253   7.918   5.901   5.059
27749SOL    HW185254  41.066   5.965   4.994
27749SOL    HW285255   7.832   5.872   5.027
27750SOL     OW85256   7.538   7.586   8.966
27750SOL    HW185257  29.599  -3.431   9.058
27750SOL    HW285258   7.577   7.665  19.969
27751SOL     OW85259  -1.454   6.036   0.016
27751SOL    HW185260  31.755   6.009  11.040
27751SOL    HW285261  -1.505   5.955   0.011
27752SOL     OW85262  10.792   8.805   4.324
27752SOL    HW185263  10.809  -2.203   4.413
27752SOL    HW285264  10.874   8.764 -28.822
27753SOL     OW85265   2.214   6.814   8.053
27753SOL    HW185266   2.215   6.799   8.148
27753SOL    HW285267  -8.834   6.727   8.015
27754SOL     OW85268   6.917   2.687   7.743
27754SOL    HW185269  -4.103  13.785  18.856
27754SOL    HW285270   6.906  -8.439  -3.257
27755SOL     OW85271   1.808   5.497   8.388
27755SOL    HW185272   1.884   5.513   8.332
27755SOL    HW285273  12.816   5.584   8.411
27756SOL     OW85274   1.502  10.058   0.789
27756SOL    HW185275   1.503  10.139  11.777
27756SOL    HW285276   1.592  10.025   0.784
27757SOL     OW85277   2.869   3.968   0.628
27757SOL    HW185278   2.793   3.932   0.582
27757SOL    HW285279   2.941   3.956   0.566
27758SOL     OW85280  11.681   2.359   0.934
27758SOL    HW185281 -10.432   2.269   0.928
27758SOL    HW285282  11.751   2.363   0.869
27759SOL     OW85283   4.670   1.364   1.429
27759SOL    HW185284   4.619   1.444   1.446
27759SOL    HW285285   4.608   1.293   1.443
27760SOL     OW85286   6.810   3.365   2.801
27760SOL    HW185287   6.822  25.490 -30.401
27760SOL    HW285288   6.775   3.431  24.940
27761SOL     OW85289   2.692   0.055   7.052
27761SOL    HW185290 -19.385  11.069   7.145
27761SOL    HW285291  -8.259  11.078   7.021
27762SOL     OW85292   5.605  11.832   3.096
27762SOL    HW185293   5.548   0.730   3.051
27762SOL    HW285294  16.720   0.802   3.038
27763SOL     OW85295   2.409   1.210   4.067
27763SOL    HW185296   2.461   1.135  -6.945
27763SOL    HW285297   2.419   1.275   4.137
27764SOL     OW85298   5.022   8.947   4.810
27764SOL    HW185299   5.059  30.959   4.868
27764SOL    HW285300   5.098   8.984   4.765
27765SOL     OW85301  10.986   3.554   3.536
27765SOL    HW185302  10.927   3.569   3.462
27765SOL    HW285303  10.992   3.458   3.542
27766SOL     OW85304   8.657   7.215   7.842
27766SOL    HW185305   8.622   7.126   7.840
27766SOL    HW285306   8.726  18.255   7.777
27767SOL     OW85307   7.238   6.226   7.738
27767SOL    HW185308   7.163   6.198   7.792
27767SOL    HW285309   7.214   6.201  -3.390
27768SOL     OW85310   0.055   5.716   4.475
27768SOL    HW185311   0.001   5.648   4.435
27768SOL    HW285312   0.058   5.786  15.450
27769SOL     OW85313  10.611   7.866   8.331
27769SOL    HW185314  10.561   7.836   8.255
27769SOL    HW285315  10.562   7.834   8.406
27770SOL     OW85316   8.848   2.150   1.986
27770SOL    HW185317   8.935   2.163   2.023
27770SOL    HW285318   8.801  24.178  13.091
27771SOL     OW85319   6.547   7.619   3.060
27771SOL    HW185320   6.578   7.675  14.171
27771SOL    HW285321  -4.588   7.624   3.065
27772SOL     OW85322   2.564   2.706   7.585
27772SOL    HW185323  24.691  35.900  -3.489
27772SOL    HW285324  24.708   2.636  -3.450
27773SOL     OW85325   5.408   8.026   1.189
27773SOL    HW185326  38.598   7.964   1.171
27773SOL    HW285327   5.343   7.974   1.236
27774SOL     OW85328   6.781   9.751   3.534
27774SOL    HW185329   6.817   9.733   3.621
27774SOL    HW285330  17.893   9.792   3.487
27775SOL     OW85331   6.198   4.798  10.106
27775SOL    HW185332   6.269   4.829  10.162
27775SOL    HW285333   6.133   4.764  10.167
27776SOL     OW85334  -0.830   7.496   9.337
27776SOL    HW185335  21.326   7.457  31.458
27776SOL    HW285336  -0.838   7.448   9.254
27777SOL     OW85337  10.115   4.946   8.671
27777SOL    HW185338  21.070   4.963  -2.411
27777SOL    HW285339  10.092  15.936  19.789
27778SOL     OW85340   7.834   5.443   2.840
27778SOL    HW185341  -3.281   5.434  13.938
27778SOL    HW285342   7.843   5.537  46.985
27779SOL     OW85343   0.357   6.910   3.420
27779SOL    HW185344   0.438   6.936   3.465
27779SOL    HW285345  11.376   6.824   3.458
27780SOL     OW85346   7.928   8.580   1.648
27780SOL    HW185347  29.981   8.630  12.765
27780SOL    HW285348   7.855   8.592   1.587
27781SOL     OW85349   1.860   6.152   8.504
27781SOL    HW185350   1.833  17.282  19.555
27781SOL    HW285351   1.952   6.150   8.529
27782SOL     OW85352   0.296   6.901   1.288
27782SOL    HW185353   0.360   6.856  -9.808
27782SOL    HW285354  22.362   6.986   1.246
27783SOL     OW85355   1.848   6.262   0.356
27783SOL    HW185356  12.820   6.276  11.462
27783SOL    HW285357   1.803   6.214   0.287
27784SOL     OW85358   6.964   3.962   2.078
27784SOL    HW185359   7.032   3.929   2.019
27784SOL    HW285360   6.902   3.889   2.086
27785SOL     OW85361   9.826   2.178   0.925
27785SOL    HW185362   9.755   2.174   0.989
27785SOL    HW285363   9.870   2.094   0.932
27786SOL     OW85364  10.873  10.107   1.651
27786SOL    HW185365  10.922  10.049   1.709
27786SOL    HW285366  10.844  10.178  -9.332
27787SOL     OW85367   4.139   6.717   0.083
27787SOL    HW185368  15.241   6.651   0.112
27787SOL    HW285369   4.191  17.816   0.029
27788SOL     OW85370   5.508   5.836   2.686
27788SOL    HW185371   5.516   5.888  24.686
27788SOL    HW285372 -16.666  27.902  13.736
27789SOL     OW85373  11.671   0.998   6.526
27789SOL    HW185374  11.631   1.081   6.551
27789SOL    HW285375 -10.323   1.022   6.489
27790SOL     OW85376   6.883   7.585   7.875
27790SOL    HW185377  17.997  29.682  -3.106
27790SOL    HW285378 -15.178   7.498 -36.319
27791SOL     OW85379  10.187   6.071   4.893
27791SOL    HW185380  -0.845   5.995   4.950
27791SOL    HW285381  10.228   6.143  -6.098
27792SOL     OW85382   6.058   0.910  10.479
27792SOL    HW185383   6.142   0.864  10.478
27792SOL    HW285384   6.053   0.948  10.567
27793SOL     OW85385  12.406   7.632   5.288
27793SOL    HW185386  12.489   7.676  -5.769
27793SOL    HW285387 -42.771   7.539  -5.760
27794SOL     OW85388   6.104   9.251   7.245
27794SOL    HW185389  -4.992   9.303  -3.852
27794SOL    HW285390   6.177   9.309   7.267
27795SOL     OW85391  10.628   7.937   9.736
27795SOL    HW185392 -11.445   7.992   9.814
27795SOL    HW285393  10.716 -25.220  -1.313
27796SOL     OW85394   5.065   6.779   6.006
27796SOL    HW185395   4.990  17.802  16.989
27796SOL    HW285396   5.133  28.892   5.948
27797SOL     OW85397   7.552   2.575   7.787
27797SOL    HW185398   7.511   2.549  -3.170
27797SOL    HW285399   7.546 -19.582 -14.347
27798SOL     OW85400   8.061   4.464   7.347
27798SOL    HW185401   7.966   4.461  -3.684
27798SOL    HW285402   8.082   4.558   7.345
27799SOL     OW85403   6.775   6.327   0.334
27799SOL    HW185404   6.798 -15.705   0.414
27799SOL    HW285405  -4.183   6.286   0.307
27800SOL     OW85406   3.210   9.912   9.394
27800SOL    HW185407   3.147   9.842   9.413
27800SOL    HW285408   3.164  21.010   9.334
27801SOL     OW85409   2.656  11.188   6.667
27801SOL    HW185410  -8.416 -10.851   6.586
27801SOL    HW285411  -8.405  11.252  -4.304
27802SOL     OW85412   1.318   1.009   6.033
27802SOL    HW185413  34.472   1.039  -5.091
27802SOL    HW285414  -9.757   1.088   6.073
27803SOL     OW85415  12.007   7.063   9.487
27803SOL    HW185416  12.085  18.141   9.448
27803SOL    HW285417 -21.137 -26.125  -1.613
27804SOL     OW85418   8.701   6.326   2.711
27804SOL    HW185419  -2.344   6.232   2.730
27804SOL    HW285420   8.642   6.339   2.638
27805SOL     OW85421   8.921   7.810   7.395
27805SOL    HW185422   8.979   7.762   7.336
27805SOL    HW285423   8.959   7.799   7.482
27806SOL     OW85424   6.340   3.885   7.357
27806SOL    HW185425  -4.772  -7.212   7.383
27806SOL    HW285426  -4.693  -7.165  18.302
27807SOL     OW85427   9.989   8.367   3.953
27807SOL    HW185428  10.029   8.416   4.025
27807SOL    HW285429   9.963   8.435  -7.149
27808SOL     OW85430   1.134   0.350   2.253
27808SOL    HW185431   1.063  33.421   2.211
27808SOL    HW285432   1.134  22.398  13.383
27809SOL     OW85433   3.076  10.399   1.988
27809SOL    HW185434   3.069 -22.677   1.903
27809SOL    HW285435 -19.051 -11.762   1.978
27810SOL     OW85436   9.894  10.944   6.245
27810SOL    HW185437   9.975  10.892   6.248
27810SOL    HW285438  -1.211  -0.155   6.207
27811SOL     OW85439   6.863  10.537   3.901
27811SOL    HW185440   6.789  10.578   3.946
27811SOL    HW285441   6.924  10.515  15.011
27812SOL     OW85442   4.654   4.368   6.350
27812SOL    HW185443  15.695   4.329   6.438
27812SOL    HW285444  15.699   4.462  -4.674
27813SOL     OW85445   9.184   2.163  -0.236
27813SOL    HW185446   9.199   2.257  21.838
27813SOL    HW285447   9.159   2.147  -0.145
27814SOL     OW85448   8.536   0.137   6.981
27814SOL    HW185449   8.454  22.168 -15.090
27814SOL    HW285450   8.562 -21.924  -3.968
27815SOL     OW85451   3.764   8.527   5.012
27815SOL    HW185452   3.835   8.468  -6.055
27815SOL    HW285453   3.801   8.615   5.001
27816SOL     OW85454   2.180   4.939  10.705
27816SOL    HW185455  -8.886   4.924  10.614
27816SOL    HW285456   2.115   5.001  -0.302
27817SOL     OW85457   3.952   3.058   0.269
27817SOL    HW185458  -7.014  -7.984   0.331
27817SOL    HW285459   3.950  -7.891   0.237
27818SOL     OW85460   9.263   3.392   8.199
27818SOL    HW185461   9.239   3.331 -13.950
27818SOL    HW285462   9.303 -40.822   8.266
27819SOL     OW85463   6.248   4.948  10.472
27819SOL    HW185464   6.213 -17.153  10.558
27819SOL    HW285465  17.370   4.899  10.466
27820SOL     OW85466   8.556   4.100   6.405
27820SOL    HW185467   8.513   4.035   6.350
27820SOL    HW285468   8.493  -6.922   6.475
27821SOL     OW85469   7.424   7.658   7.996
27821SOL    HW185470   7.463 -14.442   8.081
27821SOL    HW285471 -25.632 -14.455   7.932
27822SOL     OW85472  10.059   0.483   9.515
27822SOL    HW185473  10.055   0.393   9.547
27822SOL    HW285474  10.043  33.656   9.592
27823SOL     OW85475   1.936   8.806   1.826
27823SOL    HW185476   1.888   8.727   1.849
27823SOL    HW285477  13.038   8.779  12.798
27824SOL     OW85478   1.356   9.748   7.047
27824SOL    HW185479   1.336   9.730   7.138
27824SOL    HW285480   1.300   9.688   6.997
27825SOL     OW85481   1.823   6.993   4.233
27825SOL    HW185482   1.841   7.004  26.219
27825SOL    HW285483   1.728   7.007   4.241
27826SOL     OW85484  10.242   9.874   1.366
27826SOL    HW185485  10.163   9.852   1.415
27826SOL    HW285486  -0.829   9.929  23.373
27827SOL     OW85487   4.035   6.246   4.798
27827SOL    HW185488   4.058   6.166   4.751
27827SOL    HW285489   4.111   6.304   4.786
27828SOL     OW85490   5.131  10.649   2.012
27828SOL    HW185491   5.070  10.678  12.984
27828SOL    HW285492  16.119  10.647   2.092
27829SOL     OW85493  10.055   2.049   8.253
27829SOL    HW185494   9.997  24.187 -13.779
27829SOL    HW285495  10.119   2.107   8.211
27830SOL     OW85496   0.816   1.406   0.918
27830SOL    HW185497   0.764   1.357 -10.057
27830SOL    HW285498  33.934  -9.689   0.840
27831SOL     OW85499   4.785   7.984   5.620
27831SOL    HW185500   4.694   7.960  16.671
27831SOL    HW285501  -6.258   8.070   5.577
27832SOL     OW85502   2.469   8.742   7.737
27832SOL    HW185503   2.565   8.742 -25.388
27832SOL    HW285504  -8.589  -2.254  -3.220
27833SOL     OW85505   2.595   1.952   2.923
27833SOL    HW185506   2.522 -31.108   2.901
27833SOL    HW285507  -8.422   1.975  14.052
27834SOL     OW85508   6.795   4.634   5.733
27834SOL    HW185509   6.791   4.571   5.661
27834SOL    HW285510   6.862   4.600   5.792
27835SOL     OW85511   9.379   7.065   5.954
27835SOL    HW185512   9.463 -15.060   5.954
27835SOL    HW285513   9.398   7.150  17.034
27836SOL     OW85514   1.675   2.976  10.037
27836SOL    HW185515   1.616   2.943  21.009
27836SOL    HW285516   1.724  -8.141  10.066
27837SOL     OW85517  10.841   9.759   7.489
27837SOL    HW185518  10.775   9.776  29.634
27837SOL    HW285519 -11.164  31.893 -25.606
27838SOL     OW85520   0.028   7.807   1.620
27838SOL    HW185521   0.107 -14.293  34.688
27838SOL    HW285522   0.052   7.885  67.907
27839SOL     OW85523   1.457   1.086   6.531
27839SOL    HW185524   1.530  -9.998  17.527
27839SOL    HW285525   1.381   1.033  17.549
27840SOL     OW85526   5.148   5.289   9.805
27840SOL    HW185527 -16.909   5.312   9.895
27840SOL    HW285528   5.054   5.308   9.797
27841SOL     OW85529   8.058   3.925   7.630
27841SOL    HW185530   8.141  26.032  18.709
27841SOL    HW285531   8.080  37.024   7.539
27842SOL     OW85532   4.665   8.235   1.739
27842SOL    HW185533   4.579  19.254   1.703
27842SOL    HW285534  -6.386   8.320   1.781
27843SOL     OW85535   4.304   9.158   9.575
27843SOL    HW185536  15.312  20.218   9.487
27843SOL    HW285537   4.225   9.153   9.628
27844SOL     OW85538   8.514   5.508   4.618
27844SOL    HW185539   8.472   5.425   4.595
27844SOL    HW285540   8.457 -16.504   4.581
27845SOL     OW85541   5.669   0.022   1.410
27845SOL    HW185542   5.665   0.006   1.315
27845SOL    HW285543   5.651  11.155   1.420
27846SOL     OW85544   1.822  10.953   4.414
27846SOL    HW185545 -20.233 -11.088   4.499
27846SOL    HW285546   1.753  11.011   4.381
27847SOL     OW85547   4.036   7.001   6.071
27847SOL    HW185548  26.022   6.981 -27.041
27847SOL    HW285549  -6.970   6.938   6.008
27848SOL     OW85550   5.771   3.228   6.900
27848SOL    HW185551  -5.187 -18.888 -26.185
27848SOL    HW285552   5.727  -7.777 -15.101
27849SOL     OW85553   3.286   4.543   3.267
27849SOL    HW185554   3.374   4.540  14.269
27849SOL    HW285555 -18.785   4.599  -7.695
27850SOL     OW85556   7.332   8.959   9.809
27850SOL    HW185557  -3.763  19.999  -1.309
27850SOL    HW285558   7.391   8.884   9.796
27851SOL     OW85559   0.401   4.651  10.393
27851SOL    HW185560   0.422   4.604  10.473
27851SOL    HW285561   0.442   4.737  21.443
27852SOL     OW85562   7.526   0.036   8.389
27852SOL    HW185563   7.620   0.031  19.412
27852SOL    HW285564  -3.545  -0.054 -24.741
27853SOL     OW85565  10.200   1.368   3.843
27853SOL    HW185566  10.130  12.346 -18.215
27853SOL    HW285567  21.207  12.493   3.872
27854SOL     OW85568   7.003   4.169   4.760
27854SOL    HW185569   6.971   4.123   4.683
27854SOL    HW285570  -4.104   4.155  15.866
27855SOL     OW85571   8.874   9.508   4.682
27855SOL    HW185572  19.850   9.478   4.617
27855SOL    HW285573   8.823   9.517 -17.317
27856SOL     OW85574   9.099   6.416  10.957
27856SOL    HW185575 -34.982   6.435  10.903
27856SOL    HW285576  -2.012   6.407 -22.224
27857SOL     OW85577   7.516   0.014  10.409
27857SOL    HW185578  -3.579  -0.064  10.406
27857SOL    HW285579  18.504  22.161  10.366
27858SOL     OW85580   1.419   7.716   6.412
27858SOL    HW185581  -9.631  -3.358   6.500
27858SOL    HW285582   1.482   7.657   6.370
27859SOL     OW85583   6.294  10.070   8.718
27859SOL    HW185584   6.308   9.981   8.752
27859SOL    HW285585   6.202  10.088  -2.304
27860SOL     OW85586  10.580   4.845   1.099
27860SOL    HW185587  10.491   4.860   1.069
27860SOL    HW285588  10.634  -6.179   1.022
27861SOL     OW85589   4.493   8.043  10.064
27861SOL    HW185590   4.519   8.111  -0.914
27861SOL    HW285591   4.398   8.049  10.060
27862SOL     OW85592  10.811   6.245  10.030
27862SOL    HW185593  10.748   6.316  10.035
27862SOL    HW285594  10.809   6.205  21.157
27863SOL     OW85595   8.689   3.620   9.353
27863SOL    HW185596 -24.515   3.590   9.321
27863SOL    HW285597  -2.371   3.670  -1.607
27864SOL     OW85598   2.031   4.795   2.702
27864SOL    HW185599 -20.072  15.839  24.874
27864SOL    HW285600   2.079   4.877   2.686
27865SOL     OW85601   4.740  11.680   4.852
27865SOL    HW185602  15.815 -10.487 -17.221
27865SOL    HW285603  15.795  11.705   4.761
27866SOL     OW85604  10.777   2.580   7.545
27866SOL    HW185605  21.769   2.651  -3.538
27866SOL    HW285606  -0.180  24.652   7.498
27867SOL     OW85607   9.631   3.235   4.314
27867SOL    HW185608 -12.486   3.179  15.286
27867SOL    HW285609 -23.407   3.191  15.379
27868SOL     OW85610  12.880  -0.872   0.412
27868SOL    HW185611  -9.140  10.196   0.343
27868SOL    HW285612  -9.145  32.193  22.549
27869SOL     OW85613   6.758  -1.308   2.529
27869SOL    HW185614   6.697  20.701  13.547
27869SOL    HW285615   6.813  20.780  -8.589
27870SOL     OW85616   7.509   9.402   8.281
27870SOL    HW185617  -3.447   9.442   8.259
27870SOL    HW285618  18.517   9.450   8.357
27871SOL     OW85619   0.277   2.980   5.163
27871SOL    HW185620   0.219  36.031   5.199
27871SOL    HW285621   0.265   3.055  16.261
27872SOL     OW85622   4.545   1.114   4.026
27872SOL    HW185623   4.582  23.190   3.938
27872SOL    HW285624   4.531   1.023  -6.990
27873SOL     OW85625  -0.128   4.419   4.401
27873SOL    HW185626  -0.147 -28.711  15.533
27873SOL    HW285627  10.853  15.398  -6.684
27874SOL     OW85628   8.556   7.697   8.441
27874SOL    HW185629  19.618   7.650   8.522
27874SOL    HW285630   8.572   7.633   8.372
27875SOL     OW85631   2.057   7.307   8.445
27875SOL    HW185632   2.077   7.322   8.353
27875SOL    HW285633   1.964   7.328   8.453
27876SOL     OW85634   5.321   8.096   4.751
27876SOL    HW185635   5.308 -14.004   4.658
27876SOL    HW285636   5.370   8.178   4.751
27877SOL     OW85637   2.538   4.281   9.386
27877SOL    HW185638   2.444  -6.768   9.403
27877SOL    HW285639   2.580  -6.780   9.469
27878SOL     OW85640   4.735   9.078   7.816
27878SOL    HW185641  -6.277   8.989  -3.202
27878SOL    HW285642   4.816   9.125   7.797
27879SOL     OW85643   3.936   3.003   4.515
27879SOL    HW185644   3.880   3.061   4.464
27879SOL    HW285645   3.887 -19.159  15.558
27880SOL     OW85646   4.034   1.584  -1.017
27880SOL    HW185647   4.095   1.630   9.965
27880SOL    HW285648   3.965   1.551   9.965
27881SOL     OW85649   3.291   4.029   3.556
27881SOL    HW185650   3.353  15.071  14.523
27881SOL    HW285651   3.274  26.200  25.655
27882SOL     OW85652   7.005  10.021   4.838
27882SOL    HW185653  18.010   9.932   4.828
27882SOL    HW285654  17.984  10.064   4.898
27883SOL     OW85655   6.788  10.050  10.920
27883SOL    HW185656  28.943  10.108  10.918
27883SOL    HW285657  -4.255  -1.023 -11.070
27884SOL     OW85658   7.309   3.078   3.700
27884SOL    HW185659  -3.745   3.170   3.722
27884SOL    HW285660  -3.689   3.041   3.778
27885SOL     OW85661   1.800   2.720   6.169
27885SOL    HW185662  12.850   2.679  17.123
27885SOL    HW285663  12.786  -8.381  28.298
27886SOL     OW85664   8.986   5.619   3.055
27886SOL    HW185665  -2.104   5.569   3.118
27886SOL    HW285666   9.010   5.699   3.101
27887SOL     OW85667   8.019   6.270   7.699
27887SOL    HW185668   8.107   6.245   7.671
27887SOL    HW285669 -14.082   6.208   7.768
27888SOL     OW85670   5.134   1.466   8.472
27888SOL    HW185671   5.083   1.519  -2.629
27888SOL    HW285672   5.198  -9.619  19.456
27889SOL     OW85673   3.763   1.814   5.617
27889SOL    HW185674   3.802   1.889   5.571
27889SOL    HW285675  14.720   1.849   5.653
27890SOL     OW85676   9.828   6.914   6.740
27890SOL    HW185677   9.850 -15.075   6.718
27890SOL    HW285678   9.755   6.921   6.801
27891SOL     OW85679   0.492   6.877   0.112
27891SOL    HW185680   0.525   6.825   0.185
27891SOL    HW285681   0.548   6.954   0.110
27892SOL     OW85682   3.858   6.176  -0.898
27892SOL    HW185683   3.917   6.103  21.163
27892SOL    HW285684   3.775   6.134  10.164
27893SOL     OW85685   9.149  12.107   5.167
27893SOL    HW185686   9.186  12.189   5.133
27893SOL    HW285687   9.123  -9.952  -5.783
27894SOL     OW85688   6.850   2.201   4.246
27894SOL    HW185689   6.847   2.226  15.378
27894SOL    HW285690  -4.111   2.147   4.238
27895SOL     OW85691   1.762   7.085   8.573
27895SOL    HW185692  34.959   7.045   8.535
27895SOL    HW285693   1.796   7.149  -2.404
27896SOL     OW85694   2.155   9.696   7.159
27896SOL    HW185695  13.168   9.739   7.241
27896SOL    HW285696   2.073   9.688   7.109
27897SOL     OW85697   5.187  10.881   1.678
27897SOL    HW185698   5.279  -0.172   1.700
27897SOL    HW285699   5.183  21.909   1.583
27898SOL     OW85700   6.951   8.874   3.642
27898SOL    HW185701   7.032   8.903   3.599
27898SOL    HW285702   6.975  -2.249   3.682
27899SOL     OW85703   5.234  10.846  10.777
27899SOL    HW185704   5.139  -0.191 -22.329
27899SOL    HW285705   5.255  10.930 -22.383
27900SOL     OW85706   7.717   6.477   3.948
27900SOL    HW185707   7.680   6.397  -7.129
27900SOL    HW285708   7.783   6.447 -18.069
27901SOL     OW85709   0.201   9.031   2.695
27901SOL    HW185710   0.125  20.061   2.752
27901SOL    HW285711  44.431   9.055  -8.286
27902SOL     OW85712  -0.036  10.331   4.001
27902SOL    HW185713  21.980  21.442 -18.069
27902SOL    HW285714  -0.090  10.252 -18.081
27903SOL     OW85715   4.164   1.369   5.388
27903SOL    HW185716   4.110   1.447  27.483
27903SOL    HW285717   4.219  12.433  16.353
27904SOL     OW85718   9.169  -0.615  10.645
27904SOL    HW185719   9.248  -0.636  10.594
27904SOL    HW285720 -12.877  10.453  10.730
27905SOL     OW85721   4.718  10.532   5.824
27905SOL    HW185722  -6.259  -0.577  -5.232
27905SOL    HW285723   4.669  10.504  16.941
27906SOL     OW85724   0.764   7.084   4.211
27906SOL    HW185725   0.759  18.141   4.305
27906SOL    HW285726   0.678  40.164  26.270
27907SOL     OW85727   8.401   8.271   3.970
27907SOL    HW185728   8.321 -24.796  -7.058
27907SOL    HW285729   8.386  -2.847 -18.055
27908SOL     OW85730  11.534   2.180   3.525
27908SOL    HW185731 -32.602   2.162 -18.463
27908SOL    HW285732  22.498   2.124   3.508
27909SOL     OW85733   6.770   8.307  10.975
27909SOL    HW185734   6.854  19.373 -11.141
27909SOL    HW285735 -26.388   8.252  10.907
27910SOL     OW85736   9.265   5.078   2.873
27910SOL    HW185737   9.334 -16.955  13.865
27910SOL    HW285738   9.262   5.121   2.958
27911SOL     OW85739   4.751   1.613   0.802
27911SOL    HW185740   4.798  12.594   0.860
27911SOL    HW285741   4.806   1.691   0.796
27912SOL     OW85742   6.492   9.842   4.128
27912SOL    HW185743  -4.576   9.864   4.217
27912SOL    HW285744  -4.511   9.924   4.094
27913SOL     OW85745   1.309   6.021   4.415
27913SOL    HW185746   1.281 -15.989   4.475
27913SOL    HW285747  -9.768  39.165  15.370
27914SOL     OW85748  10.353   5.043  10.810
27914SOL    HW185749  10.385  27.159  10.728
27914SOL    HW285750  10.258   5.034  10.796
27915SOL     OW85751   7.933   9.952   1.031
27915SOL    HW185752  41.005  21.003   0.948
27915SOL    HW285753  18.911   9.986  12.137
27916SOL     OW85754   5.960   7.473   5.325
27916SOL    HW185755   5.953   7.561   5.288
27916SOL    HW285756   5.899   7.473   5.399
27917SOL     OW85757   6.262   5.884   9.978
27917SOL    HW185758   6.205   5.926  10.043
27917SOL    HW285759   6.219   5.901   9.894
27918SOL     OW85760   8.195   2.551   3.508
27918SOL    HW185761   8.140  35.721   3.448
27918SOL    HW285762   8.191  24.541   3.474
27919SOL     OW85763   2.057   4.977  10.948
27919SOL    HW185764   2.132  -6.071  11.007
27919SOL    HW285765   1.981   4.974  11.006
27920SOL     OW85766   6.188   1.275   2.139
27920SOL    HW185767   6.131  -9.700   2.179
27920SOL    HW285768  -4.781   1.263   2.203
27921SOL     OW85769  10.084   1.265   7.443
27921SOL    HW185770  10.087   1.169   7.435
27921SOL    HW285771  10.175   1.292   7.447
27922SOL     OW85772   5.565   0.500   4.010
27922SOL    HW185773 -16.436   0.509   3.955
27922SOL    HW285774  -5.441   0.467   4.093
27923SOL     OW85775   8.342  -0.361   7.992
27923SOL    HW185776   8.356  10.645   7.904
27923SOL    HW285777   8.427  -0.371   8.036
27924SOL     OW85778   1.068  12.167   3.808
27924SOL    HW185779  -9.937  -9.972  14.781
27924SOL    HW285780   1.120  12.148   3.886
27925SOL     OW85781  10.606   3.762   3.073
27925SOL    HW185782  10.564   3.830   3.126
27925SOL    HW285783  10.698   3.789   3.068
27926SOL     OW85784   5.724   1.120  10.682
27926SOL    HW185785   5.744   1.031 -22.409
27926SOL    HW285786   5.804   1.170  -0.338
27927SOL     OW85787   9.106   4.440   3.814
27927SOL    HW185788   9.123   4.368  25.954
27927SOL    HW285789   9.043  37.614   3.860
27928SOL     OW85790   5.714   4.075   4.283
27928SOL    HW185791   5.700   4.168  -6.738
27928SOL    HW285792  -5.411  -7.005  15.334
27929SOL     OW85793   6.618   1.157   2.462
27929SOL    HW185794  28.696   1.133   2.555
27929SOL    HW285795   6.704  23.205  13.471
27930SOL     OW85796   5.301   3.843   0.322
27930SOL    HW185797   5.361  -7.213   0.395
27930SOL    HW285798  16.396   3.840   0.244
27931SOL     OW85799   9.289   7.223   8.780
27931SOL    HW185800   9.277   7.271  19.902
27931SOL    HW285801 -23.919   7.206   8.749
27932SOL     OW85802   1.226  10.230  10.455
27932SOL    HW185803  23.395  10.264  10.452
27932SOL    HW285804   1.196  10.250  10.544
27933SOL     OW85805   7.900   8.175   5.507
27933SOL    HW185806  40.954   8.147   5.572
27933SOL    HW285807  18.997   8.099 -16.583
27934SOL     OW85808  10.033  -1.666   0.877
27934SOL    HW185809  10.125  42.497   0.849
27934SOL    HW285810  10.002  31.543  22.951
27935SOL     OW85811   9.586   7.991  -0.361
27935SOL    HW185812 -23.489  30.041  21.638
27935SOL    HW285813  -1.417   8.077  -0.342
27936SOL     OW85814   5.334   2.062   4.102
27936SOL    HW185815   5.358  24.230   4.125
27936SOL    HW285816   5.238   2.063  -6.940
27937SOL     OW85817   7.536  10.386   0.723
27937SOL    HW185818   7.603  10.423   0.666
27937SOL    HW285819   7.499  10.462   0.768
27938SOL     OW85820   5.456   4.378   9.396
27938SOL    HW185821   5.454  15.494   9.339
27938SOL    HW285822   5.480  26.491  -1.558
27939SOL     OW85823   2.320   9.447   6.305
27939SOL    HW185824   2.335   9.359   6.340
27939SOL    HW285825   2.401   9.495   6.324
27940SOL     OW85826   2.260  10.629   2.225
27940SOL    HW185827  24.273  10.611   2.292
27940SOL    HW285828   2.268  10.725   2.225
27941SOL     OW85829   7.590   3.096   7.253
27941SOL    HW185830   7.630   3.130   7.332
27941SOL    HW285831   7.630   3.010 -25.879
27942SOL     OW85832   1.504   7.442   3.601
27942SOL    HW185833   1.408   7.442  25.682
27942SOL    HW285834   1.528   7.533   3.621
27943SOL     OW85835   7.302   4.471   7.666
27943SOL    HW185836 -14.811   4.560   7.655
27943SOL    HW285837   7.322  -6.576   7.759
27944SOL     OW85838  11.846   9.201   0.581
27944SOL    HW185839  11.847   9.280   0.528
27944SOL    HW285840 -10.146  20.202   0.568
27945SOL     OW85841   1.880   4.105  11.008
27945SOL    HW185842   1.966 -17.998  10.973
27945SOL    HW285843   1.889   4.098  11.103
27946SOL     OW85844   8.847   4.416   0.767
27946SOL    HW185845  30.963  -6.576   0.693
27946SOL    HW285846   8.888   4.330 -10.276
27947SOL     OW85847   5.146   7.759  12.132
27947SOL    HW185848  -5.979   7.803   1.104
27947SOL    HW285849   5.149   7.694   1.163
27948SOL     OW85850   1.692   7.877   9.660
27948SOL    HW185851   1.637  -3.085   9.664
27948SOL    HW285852   1.640   7.812   9.614
27949SOL     OW85853   1.860  -0.286   9.362
27949SOL    HW185854   1.869  10.712   9.448
27949SOL    HW285855   1.801  -0.344   9.314
27950SOL     OW85856   8.077   9.463   6.869
27950SOL    HW185857   8.086   9.390   6.807
27950SOL    HW285858   8.063   9.422   6.954
27951SOL     OW85859   0.064   8.569   8.674
27951SOL    HW185860  22.083  -2.492  52.904
27951SOL    HW285861 -10.891   8.582 -13.362
27952SOL     OW85862  11.008   5.281   8.113
27952SOL    HW185863  10.932   5.272   8.056
27952SOL    HW285864 -22.146  60.508   8.197
27953SOL     OW85865   8.786   7.422   8.367
27953SOL    HW185866   8.730   7.348   8.389
27953SOL    HW285867   8.874   7.383   8.359
27954SOL     OW85868   9.023   6.128   8.526
27954SOL    HW185869   9.103   6.079  -2.496
27954SOL    HW285870   9.006   6.176  19.647
27955SOL     OW85871   0.016   7.048   3.108
27955SOL    HW185872   0.093   7.049   3.165
27955SOL    HW285873  22.046  18.166   3.133
27956SOL     OW85874   6.575  10.254   1.751
27956SOL    HW185875  -4.460  10.311   1.827
27956SOL    HW285876   6.520  21.220 -20.300
27957SOL     OW85877  10.689  11.460   8.951
27957SOL    HW185878  10.653   0.494   8.900
27957SOL    HW285879  10.621  11.440   9.015
27958SOL     OW85880   3.832   3.663   3.213
27958SOL    HW185881   3.860  14.675  -7.914
27958SOL    HW285882  25.906   3.759   3.207
27959SOL     OW85883   8.275   3.766   2.439
27959SOL    HW185884  19.386   3.755   2.502
27959SOL    HW285885  30.283   3.806   2.490
27960SOL     OW85886   7.605  11.326  10.781
27960SOL    HW185887   7.571  11.416  10.781
27960SOL    HW285888   7.591 -10.784  -0.169
27961SOL     OW85889   0.744   1.658  10.503
27961SOL    HW185890  11.753   1.576  -0.499
27961SOL    HW285891   0.665   1.703 -11.605
27962SOL     OW85892   1.169   6.960   6.703
27962SOL    HW185893   1.115  17.970 -15.450
27962SOL    HW285894   1.128   7.042  -4.309
27963SOL     OW85895   2.713   3.133  10.137
27963SOL    HW185896   2.742   3.224  10.135
27963SOL    HW285897   2.746   3.095  -0.984
27964SOL     OW85898  10.103   1.357   8.533
27964SOL    HW185899  10.062   1.273   8.514
27964SOL    HW285900  10.196   1.343   8.512
27965SOL     OW85901   9.619   5.010   6.554
27965SOL    HW185902  20.602   4.934   6.567
27965SOL    HW285903   9.622   5.022   6.460
27966SOL     OW85904   7.110  11.263  10.268
27966SOL    HW185905  40.191   0.308  -0.748
27966SOL    HW285906   7.067  11.238  10.187
27967SOL     OW85907   9.197   8.712   3.432
27967SOL    HW185908   9.131   8.763   3.478
27967SOL    HW285909   9.193   8.625  -7.568
27968SOL     OW85910   6.296   1.105   1.951
27968SOL    HW185911   6.251   1.155  13.059
27968SOL    HW285912   6.265   1.015   1.963
27969SOL     OW85913   4.693   5.658  11.083
27969SOL    HW185914   4.704   5.716   0.119
27969SOL    HW285915   4.632   5.705  11.026
27970SOL     OW85916   4.217   2.268   2.157
27970SOL    HW185917  -6.767  13.383  13.177
27970SOL    HW285918 -17.802   2.194   2.160
27971SOL     OW85919   8.670   8.076   6.008
27971SOL    HW185920   8.590   8.125   6.023
27971SOL    HW285921   8.738   8.143  -5.040
27972SOL     OW85922   9.491  11.142  10.277
27972SOL    HW185923   9.502 -22.067  10.307
27972SOL    HW285924   9.516  11.196  10.353
27973SOL     OW85925   5.058   6.857   0.952
27973SOL    HW185926   5.003   6.926   0.914
27973SOL    HW285927   5.028   6.849   1.043
27974SOL     OW85928  10.098   7.764   4.927
27974SOL    HW185929  21.195   7.692   4.899
27974SOL    HW285930  10.058   7.795   4.846
27975SOL     OW85931   3.966   2.344   8.370
27975SOL    HW185932  37.138   2.278  -2.714
27975SOL    HW285933   3.993   2.427 -13.747
27976SOL     OW85934   3.354   7.236   2.926
27976SOL    HW185935  14.437   7.212  -8.032
27976SOL    HW285936   3.375   7.328  -8.126
27977SOL     OW85937   5.331   1.016   9.354
27977SOL    HW185938  -5.671 -10.107   9.325
27977SOL    HW285939  -5.633   1.074   9.366
27978SOL     OW85940   8.112   7.693   6.431
27978SOL    HW185941   8.066   7.620  28.468
27978SOL    HW285942  19.220   7.651  28.562
27979SOL     OW85943   9.132   2.169   0.359
27979SOL    HW185944  -1.955   2.113   0.420
27979SOL    HW285945   9.093   2.256   0.371
27980SOL     OW85946   7.790   4.428   7.339
27980SOL    HW185947   7.766   4.375  -3.777
27980SOL    HW285948   7.729   4.501 -14.742
27981SOL     OW85949   3.096   7.051   7.093
27981SOL    HW185950  14.104   6.993   7.024
27981SOL    HW285951   3.073   7.139  -3.977
27982SOL     OW85952   5.667   2.676   5.467
27982SOL    HW185953  16.664  24.686   5.518
27982SOL    HW285954  16.760   2.629  -5.636
27983SOL     OW85955   1.204   4.368   4.149
27983SOL    HW185956   1.120   4.414   4.141
27983SOL    HW285957  23.348   4.438   4.154
27984SOL     OW85958  10.979  10.936   2.064
27984SOL    HW185959  10.915  10.881  -8.930
27984SOL    HW285960  10.989  11.013   2.120
27985SOL     OW85961   4.878   7.149   8.692
27985SOL    HW185962 -17.234   7.215   8.753
27985SOL    HW285963  -6.240   7.119   8.646
27986SOL     OW85964   0.660   0.244   8.802
27986SOL    HW185965  22.822   0.217   8.841
27986SOL    HW285966   0.593   0.208  30.939
27987SOL     OW85967   6.784  12.536   9.543
27987SOL    HW185968  17.816   1.419  20.528
27987SOL    HW285969 -26.369 -20.610   9.628
27988SOL     OW85970  11.401   2.383  11.198
27988SOL    HW185971  11.438   2.441 -10.948
27988SOL    HW285972 -10.663  -8.745 -10.915
27989SOL     OW85973   0.007   3.581  -0.001
27989SOL    HW185974   0.041   3.669  22.067
27989SOL    HW285975  11.033   3.548  -0.090
27990SOL     OW85976   5.135   1.964   8.546
27990SOL    HW185977   5.224   1.999   8.554
27990SOL    HW285978  16.118  13.081   8.549
27991SOL     OW85979   3.826   2.346   9.560
27991SOL    HW185980  14.840   2.435  -1.502
27991SOL    HW285981  14.786   2.294   9.547
27992SOL     OW85982   1.477   9.561   4.804
27992SOL    HW185983   1.562   9.569   4.847
27992SOL    HW285984   1.432  -1.397   4.824
27993SOL     OW85985   4.168   2.294  10.847
27993SOL    HW185986   4.143   2.293  10.754
27993SOL    HW285987   4.143   2.381 -11.202
27994SOL     OW85988   5.867   6.118   4.961
27994SOL    HW185989   5.876   6.117   4.866
27994SOL    HW285990   5.910   6.037  27.069
27995SOL     OW85991   5.621   4.262   8.113
27995SOL    HW185992  16.644   4.317 -13.890
27995SOL    HW285993   5.535   4.251   8.072
27996SOL     OW85994   2.648   9.143   9.736
27996SOL    HW185995  -8.317   9.083   9.739
27996SOL    HW285996 -19.428   9.189   9.820
27997SOL     OW85997   3.314   4.147   7.398
27997SOL    HW185998   3.242   4.141 -14.618
27997SOL    HW285999   3.280   4.205  -3.710
27998SOL     OW86000   0.495   4.909   7.588
27998SOL    HW186001 -10.512   4.882   7.674
27998SOL    HW286002  33.666 -28.260   7.526
27999SOL     OW86003   7.869   3.220  10.294
27999SOL    HW186004  -3.231   3.146  10.294
27999SOL    HW286005   7.920   3.209  10.374
28000SOL     OW86006   0.785   3.750   3.441
28000SOL    HW186007   0.862  -7.294   3.499
28000SOL    HW286008 -10.219 -18.298  14.397
28001SOL     OW86009   7.331   5.885   0.703
28001SOL    HW186010   7.426   5.889   0.698
28001SOL    HW286011   7.306  16.862   0.634
28002SOL     OW86012   1.867   3.501   1.417
28002SOL    HW186013   1.829  -7.502   1.497
28002SOL    HW286014   1.870   3.574   1.356
28003SOL     OW86015   0.028   3.024   8.670
28003SOL    HW186016  22.196  25.073   8.691
28003SOL    HW286017  11.078  47.230   8.588
28004SOL     OW86018  10.116   2.304   2.515
28004SOL    HW186019  21.227   2.257   2.473
28004SOL    HW286020  10.131   2.290   2.609
28005SOL     OW86021   9.151   5.279  10.370
28005SOL    HW186022   9.218   5.297  -0.736
28005SOL    HW286023   9.106   5.201  10.338
28006SOL     OW86024   2.734   6.273   8.777
28006SOL    HW186025  13.827   6.197   8.801
28006SOL    HW286026   2.704  -4.786   8.688
28007SOL     OW86027   2.245  11.024  12.357
28007SOL    HW186028  13.350  10.999  -9.657
28007SOL    HW286029  -8.872 -11.107   1.339
28008SOL     OW86030   7.992  10.273   6.413
28008SOL    HW186031   8.067  21.304   6.473
28008SOL    HW286032   7.917  10.282   6.471
28009SOL     OW86033   1.452   7.660  11.391
28009SOL    HW186034  12.527  -3.438  11.325
28009SOL    HW286035  23.604   7.719   0.372
28010SOL     OW86036   0.321   0.851   6.437
28010SOL    HW186037   0.358   0.841   6.525
28010SOL    HW286038   0.394   0.835 -15.701
28011SOL     OW86039   8.272   7.119   6.390
28011SOL    HW186040   8.322  -3.852 -15.645
28011SOL    HW286041   8.331   7.044  17.427
28012SOL     OW86042  10.786   0.576   2.585
28012SOL    HW186043  10.770   0.669   2.598
28012SOL    HW286044  10.793   0.540  13.712
28013SOL     OW86045   6.622   0.768   5.667
28013SOL    HW186046   6.689   0.770   5.735
28013SOL    HW286047  17.614   0.850   5.678
28014SOL     OW86048   2.283   6.908   4.453
28014SOL    HW186049 -19.890   6.891   4.442
28014SOL    HW286050   2.287  29.077   4.486
28015SOL     OW86051  11.379   9.347   1.206
28015SOL    HW186052 -10.728   9.330   1.296
28015SOL    HW286053  11.447  -1.758   1.189
28016SOL     OW86054   2.236   7.095   8.804
28016SOL    HW186055   2.230  18.136  30.788
28016SOL    HW286056   2.147  29.188   8.835
28017SOL     OW86057  11.328  10.108  -2.621
28017SOL    HW186058   0.353  10.114  41.467
28017SOL    HW286059   0.339  10.128   8.498
28018SOL     OW86060   6.488   1.382   0.859
28018SOL    HW186061  17.572   1.322   0.919
28018SOL    HW286062   6.400   1.346   0.850
28019SOL     OW86063   2.906  10.794   5.494
28019SOL    HW186064   2.884  10.706   5.462
28019SOL    HW286065  -8.143  10.787   5.589
28020SOL     OW86066   3.564   3.478   2.947
28020SOL    HW186067   3.564   3.540  14.059
28020SOL    HW286068   3.577   3.532 -19.210
28021SOL     OW86069  10.056   7.771   3.789
28021SOL    HW186070  10.068   7.711   3.863
28021SOL    HW286071   9.962   7.777  -7.263
28022SOL     OW86072   8.785   4.888   5.965
28022SOL    HW186073   8.728   4.962   5.985
28022SOL    HW286074  19.911  15.966   5.953
28023SOL     OW86075   5.902   7.479   1.658
28023SOL    HW186076 -16.209   7.389  12.690
28023SOL    HW286077  16.872  -3.514  12.743
28024SOL     OW86078  10.923   4.962   3.005
28024SOL    HW186079  10.990  16.017   3.072
28024SOL    HW286080 -11.111   4.912   2.937
28025SOL     OW86081   3.477   7.711   3.911
28025SOL    HW186082   3.538   7.690 -18.239
28025SOL    HW286083   3.391 -14.369   3.870
28026SOL     OW86084   4.941   8.733   0.667
28026SOL    HW186085   4.969  19.824 -10.297
28026SOL    HW286086  15.910  19.718   0.700
28027SOL     OW86087   8.359   2.689   5.533
28027SOL    HW186088   8.415   2.620   5.569
28027SOL    HW286089   8.385   2.768  16.619
28028SOL     OW86090   0.325   5.820   1.771
28028SOL    HW186091  11.315  16.818  -9.197
28028SOL    HW286092   0.258  61.055  -9.326
28029SOL     OW86093   7.619   8.391   7.821
28029SOL    HW186094   7.712   8.396   7.846
28029SOL    HW286095  29.652   8.425   7.898
28030SOL     OW86096   9.989   3.847   6.010
28030SOL    HW186097  10.006   3.783   5.940
28030SOL    HW286098   9.895   3.864   6.004
28031SOL     OW86099   8.934   1.635   9.166
28031SOL    HW186100   8.893   1.655   9.083
28031SOL    HW286101  19.909   1.659   9.232
28032SOL     OW86102   8.198  10.291   2.459
28032SOL    HW186103   8.198  10.196   2.472
28032SOL    HW286104   8.275  10.322  24.586
28033SOL     OW86105   4.615   7.300  10.003
28033SOL    HW186106  -6.476  18.407   9.958
28033SOL    HW286107   4.695   7.291   9.952
28034SOL     OW86108   9.066   1.292   1.245
28034SOL    HW186109  -1.949  -9.730   1.336
28034SOL    HW286110   9.041   1.378   1.211
28035SOL     OW86111   8.833   6.790  12.058
28035SOL    HW186112   8.769   6.815  12.125
28035SOL    HW286113   8.780  17.790 -10.091
28036SOL     OW86114  10.092  -0.411  11.534
28036SOL    HW186115  10.117  10.615  11.626
28036SOL    HW286116  10.087  -0.315   0.486
28037SOL     OW86117   7.976  -1.473   3.421
28037SOL    HW186118   8.070  -1.460   3.412
28037SOL    HW286119   7.965  42.590   3.424
28038SOL     OW86120   8.063   4.695   2.888
28038SOL    HW186121   8.024   4.767   2.938
28038SOL    HW286122   8.022 -17.463   2.924
28039SOL     OW86123   0.565   1.285   6.565
28039SOL    HW186124   0.624   1.361   6.571
28039SOL    HW286125   0.550   1.273  28.551
28040SOL     OW86126   3.715   1.803   4.734
28040SOL    HW186127   3.753  -9.161   4.690
28040SOL    HW286128  14.661   1.823   4.738
28041SOL     OW86129   6.509   2.976   9.599
28041SOL    HW186130  17.478   3.015   9.548
28041SOL    HW286131  17.504  13.954  -1.382
28042SOL     OW86132   4.331   8.697   7.160
28042SOL    HW186133   4.292   8.717   7.075
28042SOL    HW286134  -6.775  -2.396   7.205
28043SOL     OW86135  10.744   8.843   6.200
28043SOL    HW186136 -22.325  -2.238   6.130
28043SOL    HW286137  -0.336   8.771  -4.792
28044SOL     OW86138   3.490  11.549   7.517
28044SOL    HW186139   3.397   0.521 -14.580
28044SOL    HW286140   3.534  11.614   7.461
28045SOL     OW86141   0.629   9.400  -0.626
28045SOL    HW186142   0.717   9.438  -0.636
28045SOL    HW286143   0.638   9.337  21.525
28046SOL     OW86144   9.290   9.054   7.666
28046SOL    HW186145   9.370   9.086   7.624
28046SOL    HW286146   9.254   9.131  40.828
28047SOL     OW86147   8.420   5.162   2.706
28047SOL    HW186148   8.371   5.238  -8.305
28047SOL    HW286149   8.509   5.194  13.733
28048SOL     OW86150   2.800   4.954   3.975
28048SOL    HW186151  13.821   4.900   4.052
28048SOL    HW286152  -8.190   5.028   4.009
28049SOL     OW86153   6.248   9.076   8.067
28049SOL    HW186154   6.175  -1.965   8.129
28049SOL    HW286155   6.326 -13.011   8.120
28050SOL     OW86156   8.907   2.679   6.911
28050SOL    HW186157   8.866  13.804   6.899
28050SOL    HW286158   8.834   2.618   6.921
28051SOL     OW86159   9.826   7.729   0.655
28051SOL    HW186160  -1.291   7.785   0.654
28051SOL    HW286161   9.881   7.767  11.764
28052SOL     OW86162   0.622  10.961   2.521
28052SOL    HW186163   0.528  10.978   2.513
28052SOL    HW286164   0.658  11.039   2.562
28053SOL     OW86165   6.573   6.521   2.924
28053SOL    HW186166  28.643   6.432   2.889
28053SOL    HW286167   6.514 -15.556   2.999
28054SOL     OW86168   1.208   9.997   6.668
28054SOL    HW186169   1.287  10.034   6.627
28054SOL    HW286170  12.250   9.904  -4.395
28055SOL     OW86171   7.554   6.659   1.439
28055SOL    HW186172   7.571   6.745  -9.641
28055SOL    HW286173   7.629  17.683  -9.544
28056SOL     OW86174   2.392   5.961   7.430
28056SOL    HW186175   2.393   5.866   7.438
28056SOL    HW286176  13.429   5.992   7.521
28057SOL     OW86177   8.551   3.923   5.058
28057SOL    HW186178  -2.455   3.945   4.971
28057SOL    HW286179 -13.562   3.834 -17.031
28058SOL     OW86180  11.381   8.967   8.718
28058SOL    HW186181 -10.767  -2.009  30.814
28058SOL    HW286182   0.388   8.959  19.840
28059SOL     OW86183  10.316   8.859   8.905
28059SOL    HW186184  10.330   8.830  20.035
28059SOL    HW286185  10.404   8.872   8.870
28060SOL     OW86186   6.351  -1.005   9.677
28060SOL    HW186187  28.421  -1.083   9.622
28060SOL    HW286188  17.472  21.114   9.649
28061SOL     OW86189   5.461   6.277   6.299
28061SOL    HW186190  16.580  -4.802   6.264
28061SOL    HW286191  16.488   6.356  17.286
28062SOL     OW86192   6.858  -0.371   6.132
28062SOL    HW186193   6.884  10.594  17.118
28062SOL    HW286194  28.857  -0.338   6.091
28063SOL     OW86195   3.483   7.308  10.326
28063SOL    HW186196 -40.656   7.250  10.400
28063SOL    HW286197   3.551   7.376  -0.709
28064SOL     OW86198   9.262   5.626  10.397
28064SOL    HW186199  -1.807   5.641  -0.553
28064SOL    HW286200   9.354  16.640 -11.673
28065SOL     OW86201   7.287   4.421   9.244
28065SOL    HW186202  -3.796   4.504   9.263
28065SOL    HW286203   7.216   4.361   9.221
28066SOL     OW86204   1.274   2.275   6.508
28066SOL    HW186205   1.362  13.352   6.515
28066SOL    HW286206   1.288   2.181   6.496
28067SOL     OW86207   4.850   8.550   2.312
28067SOL    HW186208   4.845   8.562   2.217
28067SOL    HW286209 -17.183   8.628   2.343
28068SOL     OW86210   2.295  11.450   7.195
28068SOL    HW186211   2.301   0.391   7.102
28068SOL    HW286212   2.235 -10.695   7.230
28069SOL     OW86213   4.299   1.531  10.512
28069SOL    HW186214   4.326   1.543  10.603
28069SOL    HW286215   4.276  23.518  10.506
28070SOL     OW86216   2.949   2.880   7.819
28070SOL    HW186217   2.980  13.935   7.908
28070SOL    HW286218   3.022   2.837   7.775
28071SOL     OW86219   9.243   4.915  11.407
28071SOL    HW186220   9.157   4.949 -10.695
28071SOL    HW286221   9.250   4.928  11.502
28072SOL     OW86222   5.688   5.378  10.342
28072SOL    HW186223  16.813   5.390  10.383
28072SOL    HW286224  -5.405   5.340 -11.668
28073SOL     OW86225   2.670  10.862  10.062
28073SOL    HW186226  13.629 -11.215  10.114
28073SOL    HW286227   2.715 -11.136  10.084
28074SOL     OW86228   2.689   8.945  11.376
28074SOL    HW186229   2.755  19.922  11.348
28074SOL    HW286230   2.684   9.009   0.265
28075SOL     OW86231   3.835   5.039  -0.466
28075SOL    HW186232   3.885   5.018  -0.545
28075SOL    HW286233   3.898   5.083  21.670
28076SOL     OW86234  10.713   2.883  10.072
28076SOL    HW186235  10.784   2.872  -0.904
28076SOL    HW286236  10.756  13.915  -1.053
28077SOL     OW86237   2.956  10.151   1.277
28077SOL    HW186238   3.034 -11.876  23.376
28077SOL    HW286239  -8.157  10.210   1.297
28078SOL     OW86240   7.014   7.715   3.111
28078SOL    HW186241  51.149   7.674   3.028
28078SOL    HW286242  -3.934   7.739   3.101
28079SOL     OW86243   4.465   6.420  -0.147
28079SOL    HW186244 -28.624   6.486  -0.210
28079SOL    HW286245   4.536   6.356  10.895
28080SOL     OW86246   5.175   6.063   0.416
28080SOL    HW186247   5.243   6.126   0.439
28080SOL    HW286248   5.215   5.978   0.432
28081SOL     OW86249  11.036   9.505   2.126
28081SOL    HW186250 -21.995   9.542   2.113
28081SOL    HW286251  11.046  20.451   2.111
28082SOL     OW86252   5.947   6.343   5.170
28082SOL    HW186253   5.941   6.266  -5.927
28082SOL    HW286254   5.982   6.412  -5.926
28083SOL     OW86255   5.930   3.122   5.352
28083SOL    HW186256  50.031   3.087  16.324
28083SOL    HW286257   5.972   3.044  16.429
28084SOL     OW86258   8.638   0.602   4.258
28084SOL    HW186259   8.664  11.562   4.305
28084SOL    HW286260 -13.535 -10.448  15.283
28085SOL     OW86261   0.708   5.600  10.546
28085SOL    HW186262  22.833   5.674  10.585
28085SOL    HW286263 -10.424   5.617  10.565
28086SOL     OW86264   6.684  10.043   5.818
28086SOL    HW186265   6.616  -0.940   5.853
28086SOL    HW286266  17.702   9.956   5.853
28087SOL     OW86267   5.733  11.634   3.821
28087SOL    HW186268   5.828  11.626  25.909
28087SOL    HW286269   5.715 -10.354  14.882
28088SOL     OW86270   6.761   6.604   1.865
28088SOL    HW186271   6.675  17.618   1.899
28088SOL    HW286272   6.811  28.601  12.901
28089SOL     OW86273   8.109   2.588   5.452
28089SOL    HW186274   8.202   2.591  -5.568
28089SOL    HW286275  19.120   2.502   5.483
28090SOL     OW86276   4.468   2.034   8.887
28090SOL    HW186277 -17.525  24.074  -2.145
28090SOL    HW286278   4.407  13.002  -2.134
28091SOL     OW86279   7.177   0.508   3.975
28091SOL    HW186280   7.260  11.546  15.062
28091SOL    HW286281   7.161   0.417   3.951
28092SOL     OW86282   2.778   5.496   7.750
28092SOL    HW186283   2.766   5.444  29.749
28092SOL    HW286284  13.768   5.449   7.816
28093SOL     OW86285   7.946   6.904  11.343
28093SOL    HW186286   7.876   6.846   0.273
28093SOL    HW286287   7.975  -4.175  11.425
28094SOL     OW86288   0.768   1.335   9.128
28094SOL    HW186289   0.748   1.281   9.205
28094SOL    HW286290  11.824   1.271   9.058
28095SOL     OW86291   1.972   7.271   2.069
28095SOL    HW186292   1.921   7.208  35.240
28095SOL    HW286293   1.949   7.356   2.105
28096SOL     OW86294  -0.550   9.175   9.685
28096SOL    HW186295  -0.519   9.104   9.628
28096SOL    HW286296  32.560  -1.789   9.627
28097SOL     OW86297   8.571   3.510   2.642
28097SOL    HW186298 -13.415   3.515   2.619
28097SOL    HW286299  -2.508   3.586   2.600
28098SOL     OW86300   7.178  -0.768   6.453
28098SOL    HW186301  29.301  -0.825   6.391
28098SOL    HW286302   7.107  21.352   6.403
28099SOL     OW86303   4.218   9.902   8.953
28099SOL    HW186304  -6.761   9.828  -2.095
28099SOL    HW286305   4.185   9.917  19.904
28100SOL     OW86306   1.968   2.138   9.854
28100SOL    HW186307   1.981   2.222   9.811
28100SOL    HW286308   2.037   2.135   9.922
28101SOL     OW86309   1.394   8.179   2.873
28101SOL    HW186310   1.314  19.269  13.899
28101SOL    HW286311   1.465   8.239   2.850
28102SOL     OW86312  10.771   1.370   4.632
28102SOL    HW186313  10.856   1.325   4.625
28102SOL    HW286314  -0.254   1.456   4.593
28103SOL     OW86315   2.507   8.208   6.995
28103SOL    HW186316  24.560  -2.878 -26.203
28103SOL    HW286317  35.543 -13.836   7.029
28104SOL     OW86318   0.676   9.241   3.077
28104SOL    HW186319   0.707   9.290   3.153
28104SOL    HW286320   0.582  31.312  -7.950
28105SOL     OW86321  10.089   7.308   2.348
28105SOL    HW186322  10.113   7.268   2.431
28105SOL    HW286323  10.024   7.375  13.410
28106SOL     OW86324   8.326   7.709   4.193
28106SOL    HW186325   8.322   7.615  15.216
28106SOL    HW286326   8.293   7.719   4.283
28107SOL     OW86327   4.088  10.320   3.416
28107SOL    HW186328   4.054  10.401   3.378
28107SOL    HW286329   4.134  10.276  14.384
28108SOL     OW86330  10.939   9.788   8.706
28108SOL    HW186331  10.918  -1.342   8.729
28108SOL    HW286332  -0.048  -1.219  19.819
28109SOL     OW86333   0.171   5.101   5.507
28109SOL    HW186334   0.209 -17.039  16.483
28109SOL    HW286335   0.234 -16.977   5.579
28110SOL     OW86336   8.842   1.350   7.774
28110SOL    HW186337  -2.271   1.304  18.855
28110SOL    HW286338   8.912  -9.693  18.879
28111SOL     OW86339   3.934   9.996   1.466
28111SOL    HW186340   4.014  10.035   1.432
28111SOL    HW286341  14.967  -1.128   1.423
28112SOL     OW86342   9.449   8.996   8.700
28112SOL    HW186343   9.392 -24.065  -2.288
28112SOL    HW286344   9.538  -2.017   8.722
28113SOL     OW86345  10.592   0.539   4.688
28113SOL    HW186346  10.591   0.635  -6.349
28113SOL    HW286347  10.685  11.556  -6.340
28114SOL     OW86348   3.868   0.715   9.373
28114SOL    HW186349   3.943  11.695   9.380
28114SOL    HW286350   3.795   0.658  31.426
28115SOL     OW86351  10.919   7.017   0.440
28115SOL    HW186352  10.921  -4.024  11.576
28115SOL    HW286353 -11.196   6.931  33.536
28116SOL     OW86354   7.774   4.089   4.771
28116SOL    HW186355   7.824  15.104  -6.346
28116SOL    HW286356   7.835   4.078   4.844
28117SOL     OW86357   2.756   5.858   5.511
28117SOL    HW186358  -8.265   5.829   5.422
28117SOL    HW286359   2.663   5.839  -5.516
28118SOL     OW86360   7.600   1.005   8.171
28118SOL    HW186361   7.620  -9.979   8.095
28118SOL    HW286362   7.667   1.027   8.235
28119SOL     OW86363   2.579   7.258  -0.467
28119SOL    HW186364   2.643  -3.711  10.583
28119SOL    HW286365   2.592  18.266  -0.557
28120SOL     OW86366   1.493   1.844   9.444
28120SOL    HW186367   1.577  -9.158  20.458
28120SOL    HW286368   1.486   1.862  -1.502
28121SOL     OW86369   3.824   6.283   4.235
28121SOL    HW186370  25.935   6.262   4.323
28121SOL    HW286371  14.942   6.285 -17.898
28122SOL     OW86372   2.198   4.035   6.863
28122SOL    HW186373   2.106   4.031  -4.203
28122SOL    HW286374   2.238  15.132   6.798
28123SOL     OW86375   8.459   5.191   7.127
28123SOL    HW186376   8.544   5.157   7.153
28123SOL    HW286377   8.430   5.133  18.096
28124SOL     OW86378   6.574   2.529   8.819
28124SOL    HW186379   6.484   2.546   8.793
28124SOL    HW286380   6.583   2.572   8.904
28125SOL     OW86381   8.853   0.378  -0.004
28125SOL    HW186382   8.798   0.318  -0.053
28125SOL    HW286383   8.817   0.465  11.016
28126SOL     OW86384   4.029   4.181   1.844
28126SOL    HW186385   3.934   4.176   1.852
28126SOL    HW286386   4.061   4.180   1.934
28127SOL     OW86387  11.117   7.052   6.615
28127SOL    HW186388  11.113  -4.010  17.747
28127SOL    HW286389   0.010 -15.080   6.574
28128SOL     OW86390   5.912   3.799   4.482
28128SOL    HW186391  27.987  25.880   4.386
28128SOL    HW286392   5.970   3.871   4.505
28129SOL     OW86393   2.636   9.957   7.779
28129SOL    HW186394  -8.454   9.965   7.861
28129SOL    HW286395   2.574   9.982  -3.329
28130SOL     OW86396   2.447   3.520   7.848
28130SOL    HW186397   2.354   3.500   7.859
28130SOL    HW286398   2.470  -7.559   7.764
28131SOL     OW86399   7.584   9.061   8.376
28131SOL    HW186400   7.635   9.023   8.304
28131SOL    HW286401   7.644   9.061   8.450
28132SOL     OW86402   7.168   2.452   6.562
28132SOL    HW186403  18.173   2.539   6.582
28132SOL    HW286404   7.094   2.404   6.525
28133SOL     OW86405   3.425   1.068   8.969
28133SOL    HW186406   3.368  23.078   8.936
28133SOL    HW286407   3.409   1.069   9.063
28134SOL     OW86408   6.202   8.383   6.948
28134SOL    HW186409   6.237  30.479   7.036
28134SOL    HW286410   6.245   8.302   6.920
28135SOL     OW86411   8.482   8.388   4.630
28135SOL    HW186412 -13.651   8.444   4.685
28135SOL    HW286413 -13.600   8.428   4.544
28136SOL     OW86414   7.457   2.611   4.702
28136SOL    HW186415   7.415  -8.457   4.783
28136SOL    HW286416   7.456   2.706   4.707
28137SOL     OW86417  -0.432   8.698   3.316
28137SOL    HW186418  -0.407   8.709   3.225
28137SOL    HW286419  21.610   8.610   3.321
28138SOL     OW86420   9.828   8.960   4.632
28138SOL    HW186421   9.741  31.015   4.600
28138SOL    HW286422   9.860  20.065   4.570
28139SOL     OW86423   8.787   7.469   9.364
28139SOL    HW186424   8.860   7.429   9.317
28139SOL    HW286425  -2.256  -3.481  20.371
28140SOL     OW86426   9.239   1.804   6.469
28140SOL    HW186427   9.296  12.838   6.393
28140SOL    HW286428   9.297   1.797   6.545
28141SOL     OW86429   4.079   5.332  -0.722
28141SOL    HW186430   4.065   5.354  21.450
28141SOL    HW286431  15.032   5.308  21.325
28142SOL     OW86432   3.058   4.818  11.093
28142SOL    HW186433   3.104  -6.245 -21.945
28142SOL    HW286434  14.166   4.824  11.026
28143SOL     OW86435   1.383   9.120   2.430
28143SOL    HW186436   1.302   9.162   2.400
28143SOL    HW286437   1.452 -12.918 -19.700
28144SOL     OW86438   3.649  -1.125   5.042
28144SOL    HW186439   3.632   9.825   5.072
28144SOL    HW286440   3.562  20.990   5.026
28145SOL     OW86441   5.664   1.066   2.034
28145SOL    HW186442   5.699   1.150  -8.976
28145SOL    HW286443  27.737   1.075  -9.101
28146SOL     OW86444   8.127   4.251   5.464
28146SOL    HW186445   8.076  15.257  16.430
28146SOL    HW286446   8.085   4.214  16.581
28147SOL     OW86447   2.156   4.868   3.460
28147SOL    HW186448  24.215   4.779  47.649
28147SOL    HW286449  35.273   4.921   3.540
28148SOL     OW86450   3.585   0.235   8.051
28148SOL    HW186451  14.589  11.186   8.042
28148SOL    HW286452   3.508   0.291  -2.982
28149SOL     OW86453   9.752   8.287   1.435
28149SOL    HW186454   9.741 -24.753   1.488
28149SOL    HW286455   9.733   8.215   1.494
28150SOL     OW86456  -0.186   1.156  11.549
28150SOL    HW186457  10.765   1.186   0.527
28150SOL    HW286458  -0.137   1.234  11.525
28151SOL     OW86459  10.660   5.279   2.802
28151SOL    HW186460  10.646   5.286   2.896
28151SOL    HW286461  10.622   5.194   2.779
28152SOL     OW86462  10.424   4.500   7.850
28152SOL    HW186463  10.417   4.432  29.862
28152SOL    HW286464  10.338   4.501   7.892
28153SOL     OW86465   5.502   4.218   7.153
28153SOL    HW186466   5.492   4.173  -3.802
28153SOL    HW286467   5.589   4.193   7.123
28154SOL     OW86468   9.089   0.487   3.486
28154SOL    HW186469   9.149   0.563   3.484
28154SOL    HW286470   9.141   0.415  14.489
28155SOL     OW86471   1.541  13.611   3.243
28155SOL    HW186472   1.603 -30.615   3.270
28155SOL    HW286473   1.455  -8.504  14.302
28156SOL     OW86474   6.679   1.880   7.280
28156SOL    HW186475   6.614   1.811   7.293
28156SOL    HW286476  -4.381   1.916   7.193
28157SOL     OW86477   8.461  10.434   4.642
28157SOL    HW186478   8.556  10.427  15.674
28157SOL    HW286479   8.445  10.473   4.727
28158SOL     OW86480   7.844   5.737   2.111
28158SOL    HW186481   7.896  27.846   2.035
28158SOL    HW286482   7.891  16.698   2.142
28159SOL     OW86483   8.670   9.920   9.638
28159SOL    HW186484   8.604  20.986   9.701
28159SOL    HW286485   8.718   9.849   9.681
28160SOL     OW86486   0.065   5.011   5.127
28160SOL    HW186487  11.117   5.074   5.056
28160SOL    HW286488   0.147   5.016   5.177
28161SOL     OW86489   6.578  10.349   9.770
28161SOL    HW186490  17.527  10.333  20.837
28161SOL    HW286491   6.620  -0.652   9.848
28162SOL     OW86492  10.883   2.878   2.404
28162SOL    HW186493  10.939   2.930   2.463
28162SOL    HW286494  10.897   2.917   2.318
28163SOL     OW86495   2.200   3.888   1.253
28163SOL    HW186496   2.138  25.929   1.191
28163SOL    HW286497   2.287  59.065   1.217
28164SOL     OW86498   7.655   2.978   7.889
28164SOL    HW186499   7.599   3.055   7.895
28164SOL    HW286500   7.639   2.931   7.971
28165SOL     OW86501   2.413   7.102   1.632
28165SOL    HW186502  24.514   7.041   1.562
28165SOL    HW286503  35.614   7.148   1.650
28166SOL     OW86504   2.718   1.146   9.528
28166SOL    HW186505  13.683  -9.927   9.478
28166SOL    HW286506  13.770   1.235  -1.544
28167SOL     OW86507   8.928  10.641   7.179
28167SOL    HW186508  -2.147  10.569  29.310
28167SOL    HW286509   8.872  -0.393   7.102
28168SOL     OW86510   3.690   9.170   2.092
28168SOL    HW186511   3.670   9.223  -8.870
28168SOL    HW286512  -7.383   9.083   2.113
28169SOL     OW86513   9.072   1.623   1.478
28169SOL    HW186514   9.047   1.626  -9.469
28169SOL    HW286515   9.150   1.678  12.511
28170SOL     OW86516   2.794   0.432   9.179
28170SOL    HW186517  13.921   0.458   9.209
28170SOL    HW286518   2.796   0.444  31.163
28171SOL     OW86519   4.090  -0.211   3.275
28171SOL    HW186520   4.167  -0.158   3.295
28171SOL    HW286521  -6.948  10.821   3.179
28172SOL     OW86522   9.521   9.539  10.007
28172SOL    HW186523   9.616  -1.504  10.020
28172SOL    HW286524   9.510   9.589   9.926
28173SOL     OW86525  11.955   9.427   3.191
28173SOL    HW186526   1.005   9.451   3.215
28173SOL    HW286527   0.921   9.411  -7.943
28174SOL     OW86528   7.927   8.921   9.673
28174SOL    HW186529   7.967  19.947   9.588
28174SOL    HW286530   7.864   8.991  31.739
28175SOL     OW86531   3.861   2.444  11.573
28175SOL    HW186532   3.945   2.443 -10.552
28175SOL    HW286533   3.865   2.369 -21.487
28176SOL     OW86534   6.241   7.559   6.593
28176SOL    HW186535  -4.731  40.745  -4.443
28176SOL    HW286536   6.243  18.558   6.680
28177SOL     OW86537   2.495   9.092   8.875
28177SOL    HW186538 -30.709   9.051   8.887
28177SOL    HW286539  -8.509   9.099   8.964
28178SOL     OW86540  11.999   6.495   2.574
28178SOL    HW186541   0.906   6.417  -8.480
28178SOL    HW286542   1.037   6.482  -8.520
28179SOL     OW86543   8.183   8.897   0.856
28179SOL    HW186544   8.222   8.813   0.833
28179SOL    HW286545   8.136   8.924  22.856
28180SOL     OW86546   0.164   2.128  10.111
28180SOL    HW186547  11.153   2.147  21.071
28180SOL    HW286548  11.150   2.064  10.158
28181SOL     OW86549   5.615   0.232   5.389
28181SOL    HW186550   5.617   0.143   5.425
28181SOL    HW286551   5.523   0.256   5.390
28182SOL     OW86552   7.760   2.011   2.779
28182SOL    HW186553   7.852   2.030   2.758
28182SOL    HW286554   7.765   1.949   2.852
28183SOL     OW86555   5.279   4.292   0.731
28183SOL    HW186556  -5.726  -6.756   0.642
28183SOL    HW286557  -5.800 -28.739   0.733
28184SOL     OW86558   5.716   7.018   3.782
28184SOL    HW186559  16.667   7.053  25.865
28184SOL    HW286560   5.704  17.962   3.786
28185SOL     OW86561   0.859  11.207   2.347
28185SOL    HW186562   0.890  11.286   2.392
28185SOL    HW286563   0.808 -10.838 -19.806
28186SOL     OW86564   1.917   7.240   3.219
28186SOL    HW186565   1.981   7.299   3.179
28186SOL    HW286566   1.916   7.265   3.311
28187SOL     OW86567   1.897   4.408   8.302
28187SOL    HW186568   1.908   4.472   8.232
28187SOL    HW286569   1.809   4.425   8.337
28188SOL     OW86570   0.892   4.049   6.688
28188SOL    HW186571 -10.231  -7.032  17.747
28188SOL    HW286572   0.885  15.112   6.595
28189SOL     OW86573   8.783   5.640   4.209
28189SOL    HW186574   8.708   5.606   4.259
28189SOL    HW286575   8.819   5.563   4.164
28190SOL     OW86576  -1.455   5.019   2.936
28190SOL    HW186577  -1.481  16.133  -8.158
28190SOL    HW286578  31.693   5.058  25.097
28191SOL     OW86579  10.813   4.335   8.191
28191SOL    HW186580  10.856  59.564 -13.809
28191SOL    HW286581  -0.175  -6.668 -36.039
28192SOL     OW86582   6.701   2.626   9.057
28192SOL    HW186583  17.777  13.688   9.142
28192SOL    HW286584   6.632  13.730  -1.997
28193SOL     OW86585   6.091   4.943   1.783
28193SOL    HW186586  17.210   4.915   1.828
28193SOL    HW286587  -4.941   5.038   1.779
28194SOL     OW86588   9.372   8.417   6.455
28194SOL    HW186589   9.379  19.475  17.589
28194SOL    HW286590  20.479   8.351   6.439
28195SOL     OW86591   9.441   6.845   3.980
28195SOL    HW186592   9.357   6.802   3.996
28195SOL    HW286593   9.505   6.774   3.984
28196SOL     OW86594   1.827   9.199   6.206
28196SOL    HW186595   1.846   9.290   6.228
28196SOL    HW286596  -9.290   9.205   6.150
28197SOL     OW86597   0.319  10.240   5.139
28197SOL    HW186598   0.383  10.211   5.075
28197SOL    HW286599   0.238  10.251   5.089
28198SOL     OW86600   7.474   9.476   7.733
28198SOL    HW186601  18.459   9.460  29.889
28198SOL    HW286602   7.532   9.400   7.729
28199SOL     OW86603   8.591   2.576   4.644
28199SOL    HW186604   8.634   2.522   4.578
28199SOL    HW286605   8.556  -8.389   4.596
28200SOL     OW86606   9.300   3.252   3.222
28200SOL    HW186607   9.323 -29.848  14.170
28200SOL    HW286608   9.214   3.210   3.217
28201SOL     OW86609   7.942   7.521   4.440
28201SOL    HW186610  18.987  18.511  -6.682
28201SOL    HW286611  41.119   7.474  -6.540
28202SOL     OW86612   7.411   9.122  12.635
28202SOL    HW186613  -3.629   9.042  12.687
28202SOL    HW286614   7.477   9.177 -31.481
28203SOL     OW86615   0.954   1.988  10.763
28203SOL    HW186616  22.972   1.959  -0.343
28203SOL    HW286617   0.901   2.037  21.865
28204SOL     OW86618  12.787   2.550   1.513
28204SOL    HW186619 -20.410   2.602  23.607
28204SOL    HW286620   1.735   2.510   1.427
28205SOL     OW86621   8.906   0.712  10.711
28205SOL    HW186622   8.980   0.768  10.689
28205SOL    HW286623  -2.208   0.749  10.663
28206SOL     OW86624   2.905   4.366   2.444
28206SOL    HW186625  13.937   4.423  13.407
28206SOL    HW286626  25.011 -17.797   2.409
28207SOL     OW86627  -0.347  -1.240   9.550
28207SOL    HW186628  -0.438  42.892   9.541
28207SOL    HW286629  21.774   9.726   9.596
28208SOL     OW86630   6.388   5.132   2.572
28208SOL    HW186631   6.484   5.136   2.565
28208SOL    HW286632  -4.671  27.263   2.650
28209SOL     OW86633   9.927   2.215   4.198
28209SOL    HW186634  20.922   2.281  -6.894
28209SOL    HW286635   9.881   2.215  -6.758
28210SOL     OW86636   3.659   1.323   4.640
28210SOL    HW186637  14.652   1.403  15.656
28210SOL    HW286638   3.599   1.252 -28.502
28211SOL     OW86639   1.616   0.536   3.901
28211SOL    HW186640   1.562   0.458   3.892
28211SOL    HW286641   1.684  22.591 -18.116
28212SOL     OW86642   7.642   3.956   0.221
28212SOL    HW186643   7.611 -29.162   0.131
28212SOL    HW286644   7.601  15.073   0.261
28213SOL     OW86645   9.958   0.278   1.669
28213SOL    HW186646   9.891   0.264  -9.304
28213SOL    HW286647  10.041   0.273   1.718
28214SOL     OW86648   6.970   7.503   7.615
28214SOL    HW186649   6.946  18.476   7.550
28214SOL    HW286650  18.063   7.456   7.678
28215SOL     OW86651   7.441   3.992   6.578
28215SOL    HW186652   7.458   4.021   6.489
28215SOL    HW286653   7.369   3.930   6.570
28216SOL     OW86654   3.167   0.301   3.347
28216SOL    HW186655   3.242   0.245   3.367
28216SOL    HW286656   3.125   0.259   3.272
28217SOL     OW86657  10.979  10.861   8.527
28217SOL    HW186658  10.946  10.822   8.608
28217SOL    HW286659  -0.129  10.923   8.501
28218SOL     OW86660   3.957   2.699  10.579
28218SOL    HW186661  15.032  13.795 -22.471
28218SOL    HW286662 -29.247  13.778  10.559
28219SOL     OW86663   1.661   2.198   2.557
28219SOL    HW186664   1.629   2.111   2.533
28219SOL    HW286665  -9.415   2.256   2.491
28220SOL     OW86666   7.501   4.199   5.523
28220SOL    HW186667   7.586   4.237 -16.535
28220SOL    HW286668   7.505  -6.858   5.429
28221SOL     OW86669   1.026   5.704   7.951
28221SOL    HW186670   1.012  27.808  19.081
28221SOL    HW286671   1.044   5.786  41.024
28222SOL     OW86672   2.962   3.550   3.098
28222SOL    HW186673   3.016   3.483   3.139
28222SOL    HW286674  36.129 -29.487  14.151
28223SOL     OW86675   7.505   4.056   0.649
28223SOL    HW186676  -3.501   4.046 -10.301
28223SOL    HW286677  -3.469   4.012   0.594
28224SOL     OW86678   3.491   9.513   8.620
28224SOL    HW186679 -18.660  -1.513  -2.482
28224SOL    HW286680   3.538   9.437   8.586
28225SOL     OW86681  10.962  10.874   4.873
28225SOL    HW186682  -0.166  21.886   4.899
28225SOL    HW286683 -22.101  -0.240  -6.145
28226SOL     OW86684   8.000   5.715   3.635
28226SOL    HW186685   7.992   5.648  47.861
28226SOL    HW286686  -2.998   5.790   3.679
28227SOL     OW86687   2.623  11.477   5.514
28227SOL    HW186688  13.644 -10.511   5.537
28227SOL    HW286689   2.555  11.426   5.558
28228SOL     OW86690   6.144   9.000   3.344
28228SOL    HW186691  -4.976   8.958  25.393
28228SOL    HW286692   6.130   9.094   3.329
28229SOL     OW86693   3.315  -0.523   7.491
28229SOL    HW186694 -29.876  -0.540  18.591
28229SOL    HW286695  -7.714  10.612   7.493
28230SOL     OW86696   7.141   4.513   4.701
28230SOL    HW186697   7.053  -6.564   4.694
28230SOL    HW286698   7.128   4.607   4.691
28231SOL     OW86699  10.372   5.023   2.113
28231SOL    HW186700  10.344   5.043   2.023
28231SOL    HW286701  10.455  27.057  24.181
28232SOL     OW86702   7.872  -0.987   9.514
28232SOL    HW186703   7.820  32.142   9.594
28232SOL    HW286704  -3.116  21.172   9.508
28233SOL     OW86705   6.823   0.141  13.193
28233SOL    HW186706  -4.282   0.210  13.200
28233SOL    HW286707   6.812   0.090 -30.885
28234SOL     OW86708   9.663   1.945  -0.981
28234SOL    HW186709   9.610   1.873  21.065
28234SOL    HW286710   9.748  12.974  -1.023
28235SOL     OW86711   4.675   5.015   2.725
28235SOL    HW186712  -6.371   4.939  -8.257
28235SOL    HW286713 -17.323  -5.981  -8.289
28236SOL     OW86714   7.083   7.861   8.578
28236SOL    HW186715  18.033  41.006  -2.483
28236SOL    HW286716   7.138  18.952   8.518
28237SOL     OW86717  11.929   0.924   1.136
28237SOL    HW186718 -10.189   0.986   1.198
28237SOL    HW286719  11.855  22.948   1.109
28238SOL     OW86720   6.518   2.503   4.283
28238SOL    HW186721  17.624   2.494   4.215
28238SOL    HW286722  39.635   2.418   4.327
28239SOL     OW86723   7.914   6.623  10.307
28239SOL    HW186724   7.897   6.590 -11.684
28239SOL    HW286725  18.880   6.592  -0.785
28240SOL     OW86726   5.181   7.125   6.436
28240SOL    HW186727  27.244  -3.865   6.356
28240SOL    HW286728   5.198 -25.927   6.503
28241SOL     OW86729   6.778   3.318   7.949
28241SOL    HW186730   6.720   3.263 -14.181
28241SOL    HW286731  -4.313   3.396   7.969
28242SOL     OW86732   1.438  10.767   8.940
28242SOL    HW186733  12.467 -11.359   9.023
28242SOL    HW286734 -20.550  10.798   8.941
28243SOL     OW86735   2.887   6.494   2.048
28243SOL    HW186736   2.929  39.576   1.970
28243SOL    HW286737   2.899   6.427   2.116
28244SOL     OW86738   7.962   0.994  10.589
28244SOL    HW186739   8.046   1.039  10.601
28244SOL    HW286740  30.057  22.984  10.620
28245SOL     OW86741   2.737   6.084   5.863
28245SOL    HW186742   2.665  -4.902   5.897
28245SOL    HW286743 -30.321   6.147   5.825
28246SOL     OW86744  10.215   6.797   1.625
28246SOL    HW186745  10.157   6.768   1.554
28246SOL    HW286746 -11.909   6.769  34.824
28247SOL     OW86747   1.668   6.472   7.338
28247SOL    HW186748 -20.386  -4.654   7.370
28247SOL    HW286749   1.581   6.487  -3.664
28248SOL     OW86750   4.963   3.721   8.565
28248SOL    HW186751  -6.019   3.713 -13.439
28248SOL    HW286752   4.909   3.798  -2.457
28249SOL     OW86753   6.018   3.791   6.798
28249SOL    HW186754  28.037   3.821  17.906
28249SOL    HW286755  28.136   3.872  -4.276
28250SOL     OW86756   9.189   5.277   9.848
28250SOL    HW186757   9.247   5.263 -12.306
28250SOL    HW286758  31.211  -5.839 -12.229
28251SOL     OW86759   5.673   7.238   3.141
28251SOL    HW186760   5.650  -3.884   3.184
28251SOL    HW286761   5.654   7.224 -19.031
28252SOL     OW86762   9.120  11.663   2.270
28252SOL    HW186763 -13.020  22.725   2.340
28252SOL    HW286764   9.080 -21.531   2.227
28253SOL     OW86765  10.707  10.309   9.610
28253SOL    HW186766  10.801  10.293  -1.434
28253SOL    HW286767  10.699  10.390   9.660
28254SOL     OW86768   0.117   6.990   2.304
28254SOL    HW186769   0.202   6.980   2.262
28254SOL    HW286770   0.055   7.001   2.232
28255SOL     OW86771   7.108  11.111   7.497
28255SOL    HW186772   7.079   0.088  18.447
28255SOL    HW286773  -4.012  11.117   7.550
28256SOL     OW86774   9.409   3.757   6.542
28256SOL    HW186775 -12.630  14.820  -4.414
28256SOL    HW286776 -23.749  -7.202   6.510
28257SOL     OW86777   1.485   0.857   2.833
28257SOL    HW186778   1.459   0.831   2.921
28257SOL    HW286779   1.579 -10.166   2.840
28258SOL     OW86780   4.735   2.842   2.540
28258SOL    HW186781  -6.221   2.816  24.579
28258SOL    HW286782   4.676   2.855   2.466
28259SOL     OW86783   3.219   5.384   0.005
28259SOL    HW186784  25.306   5.293   0.035
28259SOL    HW286785 -18.915   5.379  10.966
28260SOL     OW86786   7.895  10.832   6.323
28260SOL    HW186787   7.912  10.771   6.394
28260SOL    HW286788  19.021  10.867   6.300
28261SOL     OW86789   8.032   0.103   7.232
28261SOL    HW186790   8.072   0.190   7.230
28261SOL    HW286791   7.975   0.101  18.195
28262SOL     OW86792  -0.515   5.593   9.185
28262SOL    HW186793  -0.568  -5.526   9.175
28262SOL    HW286794  10.513   5.640 -12.977
28263SOL     OW86795   4.512   7.412   7.007
28263SOL    HW186796  15.598   7.365   6.938
28263SOL    HW286797  15.538   7.500  -4.067
28264SOL     OW86798   7.119   6.728   5.064
28264SOL    HW186799   7.030   6.745 -16.983
28264SOL    HW286800  -3.894   6.647  16.147
28265SOL     OW86801   1.231   7.728   8.547
28265SOL    HW186802   1.170   7.757   8.480
28265SOL    HW286803  12.241   7.771 -13.452
28266SOL     OW86804   8.697   4.763   1.035
28266SOL    HW186805   8.675   4.670   1.035
28266SOL    HW286806  19.655   4.807   1.013
28267SOL     OW86807   2.006   6.783   2.946
28267SOL    HW186808   1.949   6.707   2.931
28267SOL    HW286809   1.948   6.851  25.057
28268SOL     OW86810   8.836   0.593   4.650
28268SOL    HW186811   8.773  22.743   4.640
28268SOL    HW286812   8.911   0.634   4.694
28269SOL     OW86813   2.435   4.302   8.146
28269SOL    HW186814   2.407   4.211 -13.943
28269SOL    HW286815   2.411  15.383   8.064
28270SOL     OW86816   3.496   7.934  -2.232
28270SOL    HW186817   3.580   7.972  30.911
28270SOL    HW286818   3.430  30.071   8.847
28271SOL     OW86819  -1.011   8.750   2.258
28271SOL    HW186820  -1.057   8.733   2.176
28271SOL    HW286821  21.122  -2.367   2.273
28272SOL     OW86822   9.803   6.596   2.750
28272SOL    HW186823  -1.143  -4.426  -8.305
28272SOL    HW286824   9.779   6.659  -8.221
28273SOL     OW86825   2.856   5.642   5.819
28273SOL    HW186826   2.857   5.590   5.739
28273SOL    HW286827 -30.199   5.712   5.804
28274SOL     OW86828  10.601   8.516   7.737
28274SOL    HW186829  10.682   8.472   7.763
28274SOL    HW286830  -0.497  30.524   7.711
28275SOL     OW86831   5.620   0.670   6.826
28275SOL    HW186832   5.563   0.661   6.750
28275SOL    HW286833  16.725   0.600   6.816
28276SOL     OW86834  12.356   9.122   1.191
28276SOL    HW186835 -20.788   9.091   1.104
28276SOL    HW286836  12.382   9.213   1.178
28277SOL     OW86837   2.407   5.582   5.012
28277SOL    HW186838   2.437  27.585   5.062
28277SOL    HW286839   2.313  16.624   5.027
28278SOL     OW86840  10.506   7.950   1.170
28278SOL    HW186841  10.422   7.991   1.149
28278SOL    HW286842  10.495  18.899   1.143
28279SOL     OW86843  10.354   8.925  10.584
28279SOL    HW186844  10.445   8.935 -11.522
28279SOL    HW286845  10.310 -24.229  10.506
28280SOL     OW86846   6.619   4.810   2.960
28280SOL    HW186847   6.677  15.899  -8.138
28280SOL    HW286848   6.608  -6.172  -8.003
28281SOL     OW86849  10.845   3.100  10.464
28281SOL    HW186850  10.867   3.040  10.393
28281SOL    HW286851  10.914   3.086  -0.510
28282SOL     OW86852   4.635   1.924   5.465
28282SOL    HW186853   4.605   1.963  -5.656
28282SOL    HW286854   4.585  12.883   5.473
28283SOL     OW86855  -2.192   1.652   7.227
28283SOL    HW186856  30.926  12.764   7.164
28283SOL    HW286857  19.798   1.648   7.260
28284SOL     OW86858   2.102   3.995   4.420
28284SOL    HW186859   2.100   3.970   4.327
28284SOL    HW286860   2.018  -7.000   4.434
28285SOL     OW86861   4.629   2.286   4.276
28285SOL    HW186862   4.598   2.225   4.343
28285SOL    HW286863  -6.329   2.322  15.352
28286SOL     OW86864   4.973  10.545   7.309
28286SOL    HW186865  -6.023 -11.460   7.266
28286SOL    HW286866   4.896  -0.456   7.351
28287SOL     OW86867   8.640   9.507   2.425
28287SOL    HW186868   8.665   9.474  -8.529
28287SOL    HW286869   8.562   9.561   2.441
28288SOL     OW86870   8.751   8.462   7.738
28288SOL    HW186871   8.841   8.440  18.754
28288SOL    HW286872   8.755   8.556  18.799
28289SOL     OW86873   8.375   0.735   2.266
28289SOL    HW186874   8.341  11.689  13.331
28289SOL    HW286875   8.464  11.777  46.458
28290SOL     OW86876   5.295   4.716  10.403
28290SOL    HW186877 -16.791 -39.357  10.361
28290SOL    HW286878 -16.763 -28.463  10.331
28291SOL     OW86879  -0.905   8.440   0.194
28291SOL    HW186880  -0.821   8.415   0.156
28291SOL    HW286881  21.110  30.504   0.125
28292SOL     OW86882  10.883  10.390   7.927
28292SOL    HW186883  10.950  10.322   7.935
28292SOL    HW286884  10.932  -0.570  -3.132
28293SOL     OW86885   6.288   6.679   3.497
28293SOL    HW186886  -4.784  28.747  14.447
28293SOL    HW286887  -4.670  17.669   3.499
28294SOL     OW86888   1.786   7.879   6.639
28294SOL    HW186889  -9.316   7.914  -4.337
28294SOL    HW286890   1.836   7.956  -4.429
28295SOL     OW86891   2.933   2.587   8.878
28295SOL    HW186892   2.859   2.649  19.912
28295SOL    HW286893   2.990   2.612   8.806
28296SOL     OW86894   7.993   0.274   8.408
28296SOL    HW186895   7.986   0.243  19.357
28296SOL    HW286896   7.903   0.290   8.436
28297SOL     OW86897   8.440   8.424  10.772
28297SOL    HW186898   8.383   8.500  -0.258
28297SOL    HW286899  19.442   8.374  -0.340
28298SOL     OW86900   6.939   4.857   8.236
28298SOL    HW186901   6.954   4.767   8.205
28298SOL    HW286902  18.035   4.911   8.181
28299SOL     OW86903   6.008   2.720   9.180
28299SOL    HW186904   6.077  13.822   9.155
28299SOL    HW286905   5.931  -8.265  20.236
28300SOL     OW86906   2.555   5.571   5.718
28300SOL    HW186907   2.609   5.626  16.814
28300SOL    HW286908 -19.539   5.625 -16.440
28301SOL     OW86909   4.327   5.335   1.458
28301SOL    HW186910   4.281  27.460  12.567
28301SOL    HW286911   4.259 -16.789   1.409
28302SOL     OW86912   3.423   2.050   4.284
28302SOL    HW186913   3.388   1.961   4.276
28302SOL    HW286914   3.377  -8.940   4.216
28303SOL     OW86915   2.125  -0.310   6.862
28303SOL    HW186916   2.202  10.703  17.952
28303SOL    HW286917  35.276  10.740  17.812
28304SOL     OW86918   7.256  10.926   9.559
28304SOL    HW186919   7.277  22.056 -12.542
28304SOL    HW286920   7.338 -11.189 -12.485
28305SOL     OW86921   0.233  10.504   2.828
28305SOL    HW186922   0.257  10.534  -8.124
28305SOL    HW286923   0.261  10.413   2.825
28306SOL     OW86924   4.473   8.356   8.860
28306SOL    HW186925  37.626   8.401  41.902
28306SOL    HW286926   4.550   8.317   8.902
28307SOL     OW86927   7.482   4.152  10.390
28307SOL    HW186928   7.548   4.099  10.434
28307SOL    HW286929   7.419  15.214  10.458
28308SOL     OW86930   9.120   9.109  12.594
28308SOL    HW186931  -1.828  -1.902  -9.483
28308SOL    HW286932   9.123 -13.063 -42.582
28309SOL     OW86933   2.906   4.720   9.165
28309SOL    HW186934   2.972  -6.371  31.198
28309SOL    HW286935   2.826   4.710  20.152
28310SOL     OW86936   8.342   7.054   8.373
28310SOL    HW186937   8.394   7.026   8.298
28310SOL    HW286938 -24.867   7.050   8.341
28311SOL     OW86939   2.379   6.302   4.949
28311SOL    HW186940   2.352   6.366   5.015
28311SOL    HW286941   2.428  39.472  -6.155
28312SOL     OW86942   9.961   0.361  -0.141
28312SOL    HW186943  -1.056   0.447  21.973
28312SOL    HW286944   9.909   0.320  10.968
28313SOL     OW86945   3.983   0.461   3.097
28313SOL    HW186946  48.175   0.463   3.007
28313SOL    HW286947   4.061  11.503 -18.927
28314SOL     OW86948   2.971   2.904  10.387
28314SOL    HW186949  14.033  14.035  10.368
28314SOL    HW286950   2.986   2.858  -0.734
28315SOL     OW86951   5.259   9.526   5.140
28315SOL    HW186952   5.269  -1.599   5.182
28315SOL    HW286953   5.165   9.539   5.132
28316SOL     OW86954   5.505   5.430  10.129
28316SOL    HW186955   5.449   5.484  10.185
28316SOL    HW286956   5.553   5.374  10.189
28317SOL     OW86957   5.180   1.046   9.868
28317SOL    HW186958  16.292   0.986  -1.190
28317SOL    HW286959   5.102 -10.043   9.845
28318SOL     OW86960   2.117   1.362   9.644
28318SOL    HW186961   2.173   1.287   9.628
28318SOL    HW286962   2.057   1.364   9.569
28319SOL     OW86963   3.668   3.616   5.270
28319SOL    HW186964   3.585   3.576  -5.746
28319SOL    HW286965   3.683   3.683  -5.703
28320SOL     OW86966   1.003   4.101   6.226
28320SOL    HW186967   0.925   4.046   6.226
28320SOL    HW286968   1.019  -6.919 -15.945
28321SOL     OW86969   6.657  12.029   4.050
28321SOL    HW186970   6.636 -21.017   3.991
28321SOL    HW286971  17.775  12.058   4.097
28322SOL     OW86972   5.942  12.876   6.905
28322SOL    HW186973   5.937 -20.171   6.842
28322SOL    HW286974   6.011  12.819   6.871
28323SOL     OW86975  10.139   2.817   9.360
28323SOL    HW186976  -0.825  -8.226  20.459
28323SOL    HW286977  10.161  13.794  -1.749
28324SOL     OW86978   4.322   2.037   2.737
28324SOL    HW186979   4.398   1.979  -8.302
28324SOL    HW286980   4.286   2.030  13.865
28325SOL     OW86981   0.015   3.385   0.215
28325SOL    HW186982  22.164  14.375   0.172
28325SOL    HW286983  33.127 -18.613  11.205
28326SOL     OW86984   9.860   5.180   5.937
28326SOL    HW186985  31.919   5.196   6.029
28326SOL    HW286986 -12.150   5.243   5.916
28327SOL     OW86987  10.416   7.948   4.241
28327SOL    HW186988  10.325  -3.063   4.228
28327SOL    HW286989  -0.590  -3.104  -6.888
28328SOL     OW86990   6.657   8.893   3.599
28328SOL    HW186991   6.648   8.897  14.734
28328SOL    HW286992   6.695   8.807   3.581
28329SOL     OW86993   1.166   8.774  -0.868
28329SOL    HW186994   1.074 -13.285  -0.886
28329SOL    HW286995  34.281   8.693  21.263
28330SOL     OW86996   0.055   8.571   9.358
28330SOL    HW186997   0.032   8.659   9.388
28330SOL    HW286998  11.170   8.546  -1.627
28331SOL     OW86999   9.413   1.869   2.692
28331SOL    HW187000   9.423   1.776 -19.369
28331SOL    HW287001   9.342   1.873  13.667
28332SOL     OW87002   5.105   1.981   9.374
28332SOL    HW187003  27.263  12.973   9.400
28332SOL    HW287004   5.120   2.006   9.283
28333SOL     OW87005   4.008   2.871   7.509
28333SOL    HW187006   4.023  -8.160   7.603
28333SOL    HW287007   4.074   2.928   7.469
28334SOL     OW87008   9.309   8.863   6.983
28334SOL    HW187009   9.338  19.982  51.185
28334SOL    HW287010   9.314   8.795 -15.029
28335SOL     OW87011   6.219  10.339   6.828
28335SOL    HW187012   6.202  10.344   6.734
28335SOL    HW287013  39.305  10.422  17.903
28336SOL     OW87014   4.723   3.536   8.964
28336SOL    HW187015   4.721   3.555   8.871
28336SOL    HW287016   4.721   3.622   9.007
28337SOL     OW87017   4.389   8.913   8.061
28337SOL    HW187018   4.328   8.872   8.000
28337SOL    HW287019   4.466 -13.222   8.059
28338SOL     OW87020   3.960   9.119   0.658
28338SOL    HW187021  -7.049   9.193   0.606
28338SOL    HW287022 -18.043 -13.019   0.662
28339SOL     OW87023   9.474   8.908   3.597
28339SOL    HW187024   9.399   8.943   3.645
28339SOL    HW287025   9.434   8.858   3.525
28340SOL     OW87026   6.737   6.575   9.440
28340SOL    HW187027   6.716  -4.512   9.521
28340SOL    HW287028   6.691  -4.381   9.449
28341SOL     OW87029   2.038   5.822   0.381
28341SOL    HW187030   2.133 -16.249   0.370
28341SOL    HW287031   2.028  16.809  22.539
28342SOL     OW87032   3.180   9.628   3.867
28342SOL    HW187033   3.245   9.696   3.885
28342SOL    HW287034   3.107  20.689  14.963
28343SOL     OW87035   2.560   5.495   2.390
28343SOL    HW187036   2.478  27.625 -19.687
28343SOL    HW287037   2.537   5.415  -8.696
28344SOL     OW87038   2.612  -0.402   8.118
28344SOL    HW187039   2.675  10.708   8.136
28344SOL    HW287040   2.666  -0.474 -13.995
28345SOL     OW87041   4.983   4.639   6.355
28345SOL    HW187042 -17.120   4.661   6.445
28345SOL    HW287043   5.056   4.577   6.364
28346SOL     OW87044   9.376   5.321  10.208
28346SOL    HW187045  -1.646   5.367  10.127
28346SOL    HW287046  20.463  -5.802  10.199
28347SOL     OW87047   7.811   5.306   4.219
28347SOL    HW187048   7.736   5.328   4.273
28347SOL    HW287049   7.862   5.245  26.351
28348SOL     OW87050   6.790   3.566  10.246
28348SOL    HW187051  -4.258   3.475  10.275
28348SOL    HW287052   6.860   3.601  10.300
28349SOL     OW87053   2.541   2.322   3.507
28349SOL    HW187054  13.634   2.315   3.587
28349SOL    HW287055   2.605   2.327  -7.603
28350SOL     OW87056   0.498   2.794   2.435
28350SOL    HW187057   0.500   2.727   2.503
28350SOL    HW287058   0.563  13.805   2.371
28351SOL     OW87059   6.727   9.285   7.370
28351SOL    HW187060   6.748   9.195  18.385
28351SOL    HW287061   6.811  -1.708  18.405
28352SOL     OW87062   1.631   7.778   4.700
28352SOL    HW187063   1.717   7.736  -6.342
28352SOL    HW287064  12.609   7.706   4.691
28353SOL     OW87065  10.104   5.543   6.646
28353SOL    HW187066  10.153   5.482   6.592
28353SOL    HW287067  10.172   5.594   6.691
28354SOL     OW87068  10.635   9.738   3.084
28354SOL    HW187069  10.632   9.763  -7.863
28354SOL    HW287070  10.645 -12.436   3.086
28355SOL     OW87071   2.681   4.562   6.556
28355SOL    HW187072 -19.475   4.576  28.581
28355SOL    HW287073   2.677   4.630  17.663
28356SOL     OW87074   3.786   0.235   8.381
28356SOL    HW187075   3.830   0.277   8.455
28356SOL    HW287076 -18.321   0.150   8.415
28357SOL     OW87077   2.571   9.465   9.235
28357SOL    HW187078   2.546   9.537   9.293
28357SOL    HW287079   2.666  31.542   9.239
28358SOL     OW87080   4.493   7.462   5.295
28358SOL    HW187081   4.522   7.472 -16.875
28358SOL    HW287082   4.575   7.459  16.385
28359SOL     OW87083   6.642   7.077  10.726
28359SOL    HW187084   6.550   7.103  10.734
28359SOL    HW287085   6.688   7.158  10.703
28360SOL     OW87086   2.055   9.307   9.052
28360SOL    HW187087   2.032  -1.795   8.984
28360SOL    HW287088   2.088   9.253   9.124
28361SOL     OW87089   3.849   8.120   4.759
28361SOL    HW187090   3.847   8.168   4.676
28361SOL    HW287091 -18.175   8.044   4.741
28362SOL     OW87092   2.144   5.212   0.547
28362SOL    HW187093   2.132   5.216   0.453
28362SOL    HW287094   2.155  -5.736  11.613
28363SOL     OW87095   8.389   9.744   6.166
28363SOL    HW187096  19.344  31.830   6.121
28363SOL    HW287097   8.454   9.756  -4.943
28364SOL     OW87098   2.014  10.190   2.389
28364SOL    HW187099   2.052  -0.840 -19.778
28364SOL    HW287100   2.074 -22.988  -8.605
28365SOL     OW87101   8.391   4.916   2.578
28365SOL    HW187102  30.467   4.996   2.630
28365SOL    HW287103 -13.693   4.947   2.487
28366SOL     OW87104   0.312   1.407   6.828
28366SOL    HW187105   0.407   1.418   6.829
28366SOL    HW287106  11.339   1.312   6.831
28367SOL     OW87107   0.824  10.318   2.802
28367SOL    HW187108 -10.171  10.273  -8.309
28367SOL    HW287109   0.795  10.401   2.764
28368SOL     OW87110  11.712   7.163   7.933
28368SOL    HW187111 -43.406   7.210   7.908
28368SOL    HW287112 -21.402   7.155   8.028
28369SOL     OW87113   1.877   0.624   3.194
28369SOL    HW187114   1.887 -10.405  36.218
28369SOL    HW287115   1.784   0.636  25.289
28370SOL     OW87116   5.599   2.378   8.114
28370SOL    HW187117  16.590   2.451   8.152
28370SOL    HW287118  16.590   2.357  -3.006
28371SOL     OW87119   2.358   2.269   5.710
28371SOL    HW187120   2.276   2.317   5.726
28371SOL    HW287121   2.329   2.182  -5.357
28372SOL     OW87122   1.649   8.581   3.206
28372SOL    HW187123  -9.391   8.666   3.250
28372SOL    HW287124   1.599   8.524   3.263
28373SOL     OW87125   3.024  13.229   0.700
28373SOL    HW187126   3.067 -31.005   0.660
28373SOL    HW287127  25.117  13.300 -10.402
28374SOL     OW87128   7.836   6.667   0.945
28374SOL    HW187129   7.773   6.613   0.993
28374SOL    HW287130   7.916   6.614 -10.096
28375SOL     OW87131   1.638   1.452   2.296
28375SOL    HW187132   1.686   1.453  -8.661
28375SOL    HW287133  -9.372   1.531  13.290
28376SOL     OW87134   1.994  10.082   4.289
28376SOL    HW187135  -9.070   9.991  26.349
28376SOL    HW287136  -9.065  10.129  15.247
28377SOL     OW87137   3.264   5.123  11.417
28377SOL    HW187138   3.200   5.074  11.468
28377SOL    HW287139  25.396  16.208   0.443
28378SOL     OW87140   6.103  12.324   8.934
28378SOL    HW187141  -4.863  -9.777 -24.243
28378SOL    HW287142   6.137   1.270   9.022
28379SOL     OW87143   9.690   3.899   7.405
28379SOL    HW187144   9.735  14.854   7.413
28379SOL    HW287145   9.601   3.883   7.435
28380SOL     OW87146   5.471   1.526  10.891
28380SOL    HW187147   5.448   1.608  10.935
28380SOL    HW287148   5.496   1.467  10.962
28381SOL     OW87149   8.096   9.290   0.628
28381SOL    HW187150  30.088  -1.754  22.668
28381SOL    HW287151  19.151 -12.877   0.663
28382SOL     OW87152  -1.098   4.615   2.903
28382SOL    HW187153  31.933  15.676   2.934
28382SOL    HW287154  20.979 -17.443   2.809
28383SOL     OW87155   6.028   3.610   8.727
28383SOL    HW187156  -5.001  14.603  -2.396
28383SOL    HW287157  -5.049   3.545 -13.293
28384SOL     OW87158   7.712   5.592   1.570
28384SOL    HW187159 -14.391  -5.469  -9.379
28384SOL    HW287160  -3.367   5.523   1.517
28385SOL     OW87161   4.578   6.594   9.166
28385SOL    HW187162   4.617   6.638 -12.837
28385SOL    HW287163   4.628   6.626   9.091
28386SOL     OW87164   1.950   7.920   7.067
28386SOL    HW187165   2.042 -25.188   7.044
28386SOL    HW287166   1.950 -14.220  29.220
28387SOL     OW87167  -0.300   6.496   6.884
28387SOL    HW187168  -0.260   6.545   6.813
28387SOL    HW287169  21.686  17.530   6.860
28388SOL     OW87170  12.106   4.683   2.395
28388SOL    HW187171  -9.985   4.654  13.525
28388SOL    HW287172  12.179   4.745   2.399
28389SOL     OW87173  10.913   5.517   1.219
28389SOL    HW187174  10.875   5.462   1.150
28389SOL    HW287175  10.867   5.600   1.212
28390SOL     OW87176   1.333   5.101   2.354
28390SOL    HW187177  23.328   5.065   2.326
28390SOL    HW287178  23.476   5.061  -8.745
28391SOL     OW87179   0.540   1.100   6.797
28391SOL    HW187180   0.448   1.086   6.818
28391SOL    HW287181   0.543   1.188   6.760
28392SOL     OW87182   4.666   2.543   7.832
28392SOL    HW187183 -17.422   2.448   7.825
28392SOL    HW287184   4.760   2.560   7.820
28393SOL     OW87185   8.174   5.307   6.017
28393SOL    HW187186  -2.951  27.426   6.004
28393SOL    HW287187  -2.837  16.376   6.103
28394SOL     OW87188   4.392   3.152   1.208
28394SOL    HW187189  15.419   3.080  34.388
28394SOL    HW287190   4.392   3.230   1.263
28395SOL     OW87191   7.360   2.831   4.084
28395SOL    HW187192   7.445   2.789  15.113
28395SOL    HW287193   7.297  13.799  26.164
28396SOL     OW87194   7.246   8.096   1.150
28396SOL    HW187195   7.230   8.004   1.130
28396SOL    HW287196   7.183   8.144   1.096
28397SOL     OW87197   5.475   7.516   3.296
28397SOL    HW187198 -38.666   7.450   3.363
28397SOL    HW287199  -5.601   7.591   3.344
28398SOL     OW87200   4.088   8.565   2.406
28398SOL    HW187201  15.086   8.640   2.450
28398SOL    HW287202   4.148   8.605   2.343
28399SOL     OW87203   5.048   5.693   9.663
28399SOL    HW187204   5.134  16.691   9.659
28399SOL    HW287205   5.063   5.782   9.632
28400SOL     OW87206   7.260   3.260   4.995
28400SOL    HW187207  -3.778   3.297   5.083
28400SOL    HW287208  18.369   3.195   4.995
28401SOL     OW87209   5.858  -0.170   8.619
28401SOL    HW187210   5.880  10.958   8.589
28401SOL    HW287211   5.786  -0.157   8.680
28402SOL     OW87212   3.369   1.987   9.183
28402SOL    HW187213   3.354   2.068  20.174
28402SOL    HW287214   3.328   1.919  31.209
28403SOL     OW87215  10.175  10.073  10.414
28403SOL    HW187216  10.179   9.979  10.394
28403SOL    HW287217  10.082  10.091  10.423
28404SOL     OW87218   1.306   5.217   8.950
28404SOL    HW187219   1.239  16.211   8.898
28404SOL    HW287220  12.417   5.233   8.888
28405SOL     OW87221   7.222   3.905   9.211
28405SOL    HW187222   7.268   3.988  31.308
28405SOL    HW287223   7.159   3.897   9.283
28406SOL     OW87224   6.511   4.798   8.569
28406SOL    HW187225 -15.592   4.741 -13.583
28406SOL    HW287226  28.679  26.849   8.594
28407SOL     OW87227   4.079   3.604  -0.443
28407SOL    HW187228   4.028   3.684  10.608
28407SOL    HW287229   4.095   3.599  10.502
28408SOL     OW87230   8.247   8.552   9.448
28408SOL    HW187231   8.312  41.701  20.550
28408SOL    HW287232  19.224 -13.578   9.500
28409SOL     OW87233   6.418   4.018   9.719
28409SOL    HW187234   6.502   3.975   9.706
28409SOL    HW287235   6.398   4.005  31.891
28410SOL     OW87236   5.853   8.894   9.268
28410SOL    HW187237  16.920   8.977   9.229
28410SOL    HW287238  16.952  -2.210   9.231
28411SOL     OW87239   2.570   1.542   8.529
28411SOL    HW187240   2.506   1.566   8.596
28411SOL    HW287241 -19.545   1.463   8.488
28412SOL     OW87242   4.522   5.608   4.367
28412SOL    HW187243   4.558   5.569  15.486
28412SOL    HW287244   4.567   5.692  15.398
28413SOL     OW87245   2.239   8.284   4.803
28413SOL    HW187246  24.406  -2.760 -61.395
28413SOL    HW287247   2.228 -13.703   4.780
28414SOL     OW87248   9.759  10.904   4.924
28414SOL    HW187249   9.799  10.903  15.876
28414SOL    HW287250   9.803  10.977   4.969
28415SOL     OW87251   9.739   2.925   2.142
28415SOL    HW187252   9.826   2.965   2.144
28415SOL    HW287253  20.737   2.955   2.223
28416SOL     OW87254   9.318   0.288   9.496
28416SOL    HW187255 -12.672   0.264  20.560
28416SOL    HW287256   9.262   0.230   9.548
28417SOL     OW87257   9.589   6.283   8.549
28417SOL    HW187258  -1.409   6.235  19.518
28417SOL    HW287259   9.512   6.324   8.509
28418SOL     OW87260   4.352   8.670   9.523
28418SOL    HW187261   4.371   8.763  20.572
28418SOL    HW287262   4.313  19.702   9.436
28419SOL     OW87263   5.055   6.227   6.922
28419SOL    HW187264   4.962   6.244  -4.104
28419SOL    HW287265   5.099   6.304  -4.081
28420SOL     OW87266   0.534   1.116   3.714
28420SOL    HW187267   0.458   1.174  14.748
28420SOL    HW287268   0.609  -9.864  14.757
28421SOL     OW87269   9.530  -0.029   9.425
28421SOL    HW187270   9.435  -0.036  31.508
28421SOL    HW287271   9.552  11.084   9.482
28422SOL     OW87272  12.560   9.557   9.050
28422SOL    HW187273  12.512   9.597   9.123
28422SOL    HW287274 -20.484  31.694   9.036
28423SOL     OW87275   0.897   7.449   5.120
28423SOL    HW187276   0.867   7.459  -6.010
28423SOL    HW287277   0.991  51.628   5.116
28424SOL     OW87278   9.554   7.065   6.491
28424SOL    HW187279   9.468   7.026  -4.561
28424SOL    HW287280   9.591  -4.021  -4.473
28425SOL     OW87281   6.283   8.185   1.225
28425SOL    HW187282   6.250   8.272   1.248
28425SOL    HW287283 -26.789   8.155  -9.737
28426SOL     OW87284   7.623   3.761   0.797
28426SOL    HW187285   7.570  25.901   0.848
28426SOL    HW287286   7.713   3.783   0.820
28427SOL     OW87287   4.802   2.670  10.110
28427SOL    HW187288   4.819   2.674  10.016
28427SOL    HW287289   4.729   2.731  10.124
28428SOL     OW87290   0.989   4.768   3.218
28428SOL    HW187291   1.019   4.767   3.309
28428SOL    HW287292   1.066   4.744  -7.873
28429SOL     OW87293   1.687   1.228   4.186
28429SOL    HW187294   1.664   1.273  -6.935
28429SOL    HW287295 -20.375   1.299  -6.792
28430SOL     OW87296   8.857   3.557   8.233
28430SOL    HW187297   8.911   3.480   8.248
28430SOL    HW287298   8.867  25.655  19.179
28431SOL     OW87299   4.277   0.498  11.403
28431SOL    HW187300   4.326   0.424   0.328
28431SOL    HW287301   4.341  33.686 -10.666
28432SOL     OW87302   9.640   8.276   1.149
28432SOL    HW187303   9.695   8.250   1.223
28432SOL    HW287304   9.652   8.206   1.084
28433SOL     OW87305   6.694   9.710   7.876
28433SOL    HW187306   6.707 -12.430   7.804
28433SOL    HW287307  28.837   9.780   7.860
28434SOL     OW87308   6.987   1.978   8.259
28434SOL    HW187309   6.951   1.892  19.278
28434SOL    HW287310  17.998   2.033   8.186
28435SOL     OW87311   6.147   8.799  10.027
28435SOL    HW187312   6.126   8.712  10.060
28435SOL    HW287313   6.242   8.803  21.068
28436SOL     OW87314   9.773   3.550  12.848
28436SOL    HW187315  31.936   3.583 -20.241
28436SOL    HW287316   9.775   3.456  12.869
28437SOL     OW87317   9.133  -0.033   3.983
28437SOL    HW187318  -1.884   0.022  37.177
28437SOL    HW287319   9.187  11.041   3.912
28438SOL     OW87320   9.482   2.940   6.543
28438SOL    HW187321   9.508   2.848  50.698
28438SOL    HW287322  -1.516  25.053   6.623
28439SOL     OW87323   0.440  10.867   7.544
28439SOL    HW187324   0.363  -0.137  -3.540
28439SOL    HW287325   0.448  10.919   7.624
28440SOL     OW87326   2.942  -0.069   9.766
28440SOL    HW187327 -19.185  -0.035   9.691
28440SOL    HW287328   2.896  33.085   9.843
28441SOL     OW87329  11.073   6.646   5.726
28441SOL    HW187330  11.078   6.692  16.850
28441SOL    HW287331  -0.015   6.566   5.745
28442SOL     OW87332   3.538   5.688   4.850
28442SOL    HW187333   3.459   5.648   4.885
28442SOL    HW287334   3.573  16.661   4.790
28443SOL     OW87335   5.352   4.792   1.774
28443SOL    HW187336  16.348  -6.172   1.735
28443SOL    HW287337   5.372   4.819  -9.176
28444SOL     OW87338   8.040  10.680   0.348
28444SOL    HW187339  19.123  10.597   0.329
28444SOL    HW287340   7.947  -0.381   0.350
28445SOL     OW87341   8.225   9.314   2.137
28445SOL    HW187342   8.161  -1.790   2.107
28445SOL    HW287343   8.310  20.309  13.170
28446SOL     OW87344   1.766   6.340   5.129
28446SOL    HW187345  12.804   6.359   5.036
28446SOL    HW287346   1.717   6.413   5.169
28447SOL     OW87347   0.837  10.010   3.853
28447SOL    HW187348   0.810  -0.942   3.880
28447SOL    HW287349   0.866   9.967   3.933
28448SOL     OW87350  -1.044   2.665   5.954
28448SOL    HW187351  21.071   2.712  17.069
28448SOL    HW287352  -0.970   2.656   5.894
28449SOL     OW87353   2.694  10.633   9.462
28449SOL    HW187354   2.703  10.613   9.555
28449SOL    HW287355  24.766  10.729   9.459
28450SOL     OW87356   1.648   5.749   6.350
28450SOL    HW187357   1.608   5.662   6.344
28450SOL    HW287358   1.590   5.798   6.408
28451SOL     OW87359   2.028   7.827   8.590
28451SOL    HW187360   2.028  18.775   8.617
28451SOL    HW287361   1.957  29.912   8.526
28452SOL     OW87362   6.523  -0.525   0.226
28452SOL    HW187363  39.574  10.462  11.222
28452SOL    HW287364   6.526  -0.559  11.355
28453SOL     OW87365   4.427   1.141   6.573
28453SOL    HW187366   4.402   1.209   6.510
28453SOL    HW287367   4.395   1.173   6.657
28454SOL     OW87368   9.896   3.735  10.994
28454SOL    HW187369   9.976   3.706  10.951
28454SOL    HW287370   9.922   3.813  11.043
28455SOL     OW87371   6.739   7.307   4.849
28455SOL    HW187372   6.770   7.277   4.934
28455SOL    HW287373   6.726   7.401   4.860
28456SOL     OW87374   2.951   8.794   0.828
28456SOL    HW187375  24.944   8.766 -10.179
28456SOL    HW287376  25.061   8.720   0.776
28457SOL     OW87377   3.145   0.402   7.132
28457SOL    HW187378  -7.897   0.336   7.064
28457SOL    HW287379   3.214   0.463   7.104
28458SOL     OW87380   1.005   1.876  11.033
28458SOL    HW187381   0.955  -9.128  10.960
28458SOL    HW287382   1.095 -20.177  -0.024
28459SOL     OW87383   0.630  10.313   3.408
28459SOL    HW187384   0.670  10.269  25.413
28459SOL    HW287385  22.783  10.342  14.501
28460SOL     OW87386   7.372   3.009   6.253
28460SOL    HW187387   7.303  14.007   6.201
28460SOL    HW287388   7.390  25.026   6.323
28461SOL     OW87389   7.376   2.689   1.475
28461SOL    HW187390  18.401   2.752   1.404
28461SOL    HW287391   7.350  13.776  12.594
28462SOL     OW87392   9.116   4.289   0.026
28462SOL    HW187393   9.038  15.287  -0.011
28462SOL    HW287394   9.112   4.379  -0.005
28463SOL     OW87395   0.142   4.114   1.045
28463SOL    HW187396   0.065  26.237   1.010
28463SOL    HW287397   0.167   4.164   1.122
28464SOL     OW87398   6.340   8.382   4.199
28464SOL    HW187399  17.452  19.484   4.191
28464SOL    HW287400   6.337   8.338   4.114
28465SOL     OW87401   0.679   9.606   8.862
28465SOL    HW187402   0.674  31.606   8.808
28465SOL    HW287403   0.588   9.636   8.868
28466SOL     OW87404   2.177  10.204   5.227
28466SOL    HW187405   2.090  10.190   5.265
28466SOL    HW287406   2.174  10.293  27.271
28467SOL     OW87407   8.081   5.380   5.592
28467SOL    HW187408   7.992  27.454   5.627
28467SOL    HW287409   8.126  27.383   5.629
28468SOL     OW87410  10.015  11.636   8.416
28468SOL    HW187411  10.064   0.518   8.443
28468SOL    HW287412  -1.019   0.655  19.531
28469SOL     OW87413   1.070   0.763  10.693
28469SOL    HW187414   0.994  33.912  10.643
28469SOL    HW287415  12.082  22.759  10.730
28470SOL     OW87416   4.665   1.385   3.800
28470SOL    HW187417   4.736   1.322   3.817
28470SOL    HW287418   4.646  34.492  14.746
28471SOL     OW87419  -0.752   5.478   1.339
28471SOL    HW187420  10.284  16.611   1.359
28471SOL    HW287421  32.458   5.462   1.316
28472SOL     OW87422   7.900   3.568   1.359
28472SOL    HW187423   7.901   3.477  12.428
28472SOL    HW287424 -14.093  14.642   1.385
28473SOL     OW87425  11.341   7.799   5.149
28473SOL    HW187426   0.378 -14.331  16.164
28473SOL    HW287427  11.302  29.830   5.223
28474SOL     OW87428   1.139   8.044   4.155
28474SOL    HW187429   1.134  -3.077  26.285
28474SOL    HW287430   1.067  -3.002   4.093
28475SOL     OW87431   2.871   3.294   1.232
28475SOL    HW187432   2.881  14.285   1.150
28475SOL    HW287433   2.939   3.259   1.289
28476SOL     OW87434  10.059  10.385   6.128
28476SOL    HW187435  21.025  10.441   6.150
28476SOL    HW287436  10.098  10.362   6.212
28477SOL     OW87437   5.340   3.389   8.742
28477SOL    HW187438   5.327   3.478  -2.331
28477SOL    HW287439   5.421  25.438   8.701
28478SOL     OW87440   1.786   9.065   1.038
28478SOL    HW187441 -20.359   9.052   0.969
28478SOL    HW287442   1.868   9.080   0.991
28479SOL     OW87443   4.029   0.978   8.461
28479SOL    HW187444   3.952   0.962  30.596
28479SOL    HW287445   4.103   0.979  19.562
28480SOL     OW87446   5.127   3.783   5.517
28480SOL    HW187447   5.195  14.863   5.463
28480SOL    HW287448   5.083 -40.302   5.560
28481SOL     OW87449  -0.448   4.131   5.429
28481SOL    HW187450  -0.369  48.328  -5.571
28481SOL    HW287451  10.520  37.304   5.463
28482SOL     OW87452   4.805  10.306   6.279
28482SOL    HW187453  -6.253  10.220   6.242
28482SOL    HW287454   4.901  10.310   6.285
28483SOL     OW87455   7.742   0.286   4.354
28483SOL    HW187456  18.717   0.308   4.288
28483SOL    HW287457   7.827   0.299  15.350
28484SOL     OW87458   2.235   1.214   7.613
28484SOL    HW187459   2.255   1.125   7.584
28484SOL    HW287460   2.316   1.263   7.595
28485SOL     OW87461   4.583   4.014   9.626
28485SOL    HW187462   4.608  14.976  -1.463
28485SOL    HW287463   4.647   4.080  -1.439
28486SOL     OW87464   5.342  10.690   3.429
28486SOL    HW187465   5.365  10.677  -7.703
28486SOL    HW287466  -5.792  10.673   3.433
28487SOL     OW87467   4.182   3.185   1.830
28487SOL    HW187468   4.130   3.109   1.805
28487SOL    HW287469   4.230   3.157   1.908
28488SOL     OW87470   9.384   4.773   5.210
28488SOL    HW187471  -1.741  26.820  -5.858
28488SOL    HW287472   9.440  15.736   5.211
28489SOL     OW87473   5.194   4.995   0.276
28489SOL    HW187474   5.120   5.015   0.334
28489SOL    HW287475   5.272   5.019  22.405
28490SOL     OW87476   2.835  11.547   0.596
28490SOL    HW187477   2.768   0.515   0.664
28490SOL    HW287478 -19.165 -21.536   0.636
28491SOL     OW87479   8.487   9.903   1.479
28491SOL    HW187480   8.500   9.858   1.396
28491SOL    HW287481   8.565   9.956  23.569
28492SOL     OW87482   9.834   0.060   3.265
28492SOL    HW187483  -1.294   0.095   3.256
28492SOL    HW287484  -1.209  -0.024 -29.900
28493SOL     OW87485   9.226   2.130   3.546
28493SOL    HW187486   9.249  -8.928   3.637
28493SOL    HW287487   9.310   2.146   3.502
28494SOL     OW87488   2.814   0.408  10.229
28494SOL    HW187489   2.742   0.345  10.226
28494SOL    HW287490   2.773  11.532  10.211
28495SOL     OW87491   8.002   3.295   3.748
28495SOL    HW187492   7.994   3.206   3.783
28495SOL    HW287493   8.069   3.288   3.680
28496SOL     OW87494   6.914   5.444   7.744
28496SOL    HW187495 -15.183  38.470   7.763
28496SOL    HW287496   6.892   5.454   7.651
28497SOL     OW87497   5.927   9.110   2.951
28497SOL    HW187498   5.870   9.176   2.912
28497SOL    HW287499 -16.190  31.106   2.924
28498SOL     OW87500   9.138   6.380   8.194
28498SOL    HW187501   9.231   6.402 -35.965
28498SOL    HW287502   9.095   6.457   8.231
28499SOL     OW87503   7.515   3.337   9.312
28499SOL    HW187504   7.486  -7.666   9.229
28499SOL    HW287505  18.636   3.291   9.292
28500SOL     OW87506   1.081   8.723   7.095
28500SOL    HW187507  -9.947   8.804   7.144
28500SOL    HW287508   1.142   8.661   7.135
28501SOL     OW87509   9.898   9.051  10.295
28501SOL    HW187510   9.804 -35.092  10.299
28501SOL    HW287511   9.925 -12.994  10.210
28502SOL     OW87512   2.682   7.039   9.895
28502SOL    HW187513 -30.522   7.077   9.874
28502SOL    HW287514   2.704   6.985   9.819
28503SOL     OW87515   9.032   2.152   2.158
28503SOL    HW187516   9.019  35.342  24.299
28503SOL    HW287517  31.111  13.112  -8.828
28504SOL     OW87518   3.041   5.837   0.587
28504SOL    HW187519   2.979   5.795   0.646
28504SOL    HW287520   2.992   5.853  22.586
28505SOL     OW87521   2.364   4.348   1.856
28505SOL    HW187522   2.382  -6.686   1.950
28505SOL    HW287523   2.438 -39.767   1.815
28506SOL     OW87524   1.644   0.851   7.429
28506SOL    HW187525   1.674  11.979   7.451
28506SOL    HW287526 -20.523   0.863   7.394
28507SOL     OW87527   6.922  13.235  10.097
28507SOL    HW187528  17.934 -31.012 -45.123
28507SOL    HW287529   6.931  13.235 -11.887
28508SOL     OW87530   8.289   3.359   7.615
28508SOL    HW187531   8.248 -18.740   7.531
28508SOL    HW287532   8.232   3.317   7.680
28509SOL     OW87533  10.578   4.707   8.007
28509SOL    HW187534  10.565   4.781   7.948
28509SOL    HW287535  10.555  15.670   7.954
28510SOL     OW87536   4.390   5.543  -0.587
28510SOL    HW187537   4.380   5.498  -0.671
28510SOL    HW287538   4.323   5.611  10.452
28511SOL     OW87539   9.255   9.118   8.875
28511SOL    HW187540   9.203  20.078   8.887
28511SOL    HW287541 -12.888  20.229  19.926
28512SOL     OW87542   3.244   9.174   1.980
28512SOL    HW187543  14.315  20.298   2.012
28512SOL    HW287544   3.215   9.192   1.890
28513SOL     OW87545  -0.228   8.177   2.570
28513SOL    HW187546  -0.199   8.243   2.634
28513SOL    HW287547  10.893   8.137   2.540
28514SOL     OW87548   7.416   3.324   6.591
28514SOL    HW187549 -25.767  14.318  -4.396
28514SOL    HW287550   7.366  14.428   6.541
28515SOL     OW87551  10.710   1.925  10.486
28515SOL    HW187552  10.663  24.045  -0.626
28515SOL    HW287553  10.676   1.835  21.528
28516SOL     OW87554   1.106   4.671  10.608
28516SOL    HW187555   1.094   4.618  10.687
28516SOL    HW287556   1.182   4.725  10.628
28517SOL     OW87557   2.062   7.882   9.812
28517SOL    HW187558   1.971   7.910  -1.224
28517SOL    HW287559  13.152   7.964  -1.223
28518SOL     OW87560   8.283   7.781   1.011
28518SOL    HW187561   8.326   7.867  12.046
28518SOL    HW287562   8.194  18.841   1.041
28519SOL     OW87563   9.042   7.467  10.075
28519SOL    HW187564   8.985   7.459 -12.080
28519SOL    HW287565   9.079   7.380  43.206
28520SOL     OW87566   8.033   0.741   8.170
28520SOL    HW187567  19.128   0.740  19.288
28520SOL    HW287568   7.945 -10.313   8.203
28521SOL     OW87569   7.385   1.421   4.827
28521SOL    HW187570  -3.681   1.379  -6.295
28521SOL    HW287571  -3.599   1.356   4.870
28522SOL     OW87572   5.196   3.951   9.279
28522SOL    HW187573  -5.814  15.061   9.337
28522SOL    HW287574  27.242   3.883   9.338
28523SOL     OW87575   8.587   1.560   5.278
28523SOL    HW187576   8.584   1.464   5.281
28523SOL    HW287577  -2.539   1.585   5.246
28524SOL     OW87578   4.183   0.256   1.146
28524SOL    HW187579   4.247   0.283   1.080
28524SOL    HW287580   4.194  11.200   1.152
28525SOL     OW87581   3.246   0.504   5.404
28525SOL    HW187582   3.233   0.410  -5.645
28525SOL    HW287583   3.210  33.643   5.490
28526SOL     OW87584   3.091  -0.219  10.123
28526SOL    HW187585  14.143  -0.135  10.080
28526SOL    HW287586   3.119  21.876  21.253
28527SOL     OW87587  -0.440   8.569   8.518
28527SOL    HW187588  10.695  -2.463  -2.513
28527SOL    HW287589  -0.466   8.512   8.590
28528SOL     OW87590   3.040   2.840   4.966
28528SOL    HW187591   3.108   2.871  16.065
28528SOL    HW287592  -8.028   2.756   5.004
28529SOL     OW87593   9.830   0.718   5.930
28529SOL    HW187594   9.904  22.850   5.902
28529SOL    HW287595   9.766   0.727   5.860
28530SOL     OW87596   0.083   9.011   6.441
28530SOL    HW187597  11.118  -2.106   6.386
28530SOL    HW287598   0.043 -12.999   6.389
28531SOL     OW87599   2.413   9.985   4.039
28531SOL    HW187600   2.416   9.924  15.005
28531SOL    HW287601   2.482   9.956   4.099
28532SOL     OW87602   8.527  10.769   4.628
28532SOL    HW187603  -2.474  10.698  26.759
28532SOL    HW287604   8.434 -11.314 -17.430
28533SOL     OW87605  10.472   0.883   9.225
28533SOL    HW187606  10.454   0.825   9.299
28533SOL    HW287607  10.482   0.970   9.264
28534SOL     OW87608   8.452   5.191   7.875
28534SOL    HW187609 -13.677   5.117   7.912
28534SOL    HW287610   8.544   5.169   7.893
28535SOL     OW87611   8.210   4.289   6.333
28535SOL    HW187612   8.160   4.365  -4.736
28535SOL    HW287613   8.226  15.278  -4.786
28536SOL     OW87614  10.728  -0.720   7.706
28536SOL    HW187615  10.776  -0.725   7.789
28536SOL    HW287616  10.699  21.269   7.690
28537SOL     OW87617   3.829   3.452   9.816
28537SOL    HW187618 -29.221   3.504   9.775
28537SOL    HW287619   3.858   3.441   9.906
28538SOL     OW87620  10.549   6.053  -0.168
28538SOL    HW187621  10.557   6.141  32.914
28538SOL    HW287622  10.639  28.101  10.879
28539SOL     OW87623   6.572   4.230   6.182
28539SOL    HW187624  -4.473   4.139   6.208
28539SOL    HW287625 -15.594  15.305  28.281
28540SOL     OW87626   2.433   0.575   1.898
28540SOL    HW187627   2.510   0.630   1.912
28540SOL    HW287628   2.376  11.668  -9.198
28541SOL     OW87629   0.587   4.856   3.745
28541SOL    HW187630   0.587  -6.186  -7.390
28541SOL    HW287631   0.657   4.796   3.770
28542SOL     OW87632  11.410   7.918   0.911
28542SOL    HW187633  11.381  18.983  22.903
28542SOL    HW287634   0.292   7.883   0.954
28543SOL     OW87635  -1.006   3.090   9.018
28543SOL    HW187636  -1.064   3.026   8.977
28543SOL    HW287637  43.177  14.188   8.947
28544SOL     OW87638  -0.347   5.868   8.185
28544SOL    HW187639  32.814   5.843   8.267
28544SOL    HW287640  10.695   5.964  41.305
28545SOL     OW87641   5.675   2.073   3.251
28545SOL    HW187642   5.736   2.128  -7.837
28545SOL    HW287643   5.637   2.016  14.223
28546SOL     OW87644   1.340   2.953   9.944
28546SOL    HW187645  12.423  24.980  10.012
28546SOL    HW287646   1.372  24.997   9.862
28547SOL     OW87647   7.940   5.594   8.194
28547SOL    HW187648   7.971   5.616  -2.934
28547SOL    HW287649   7.911   5.678  -2.809
28548SOL     OW87650   5.183  10.670   8.575
28548SOL    HW187651  27.181  10.674   8.524
28548SOL    HW287652  16.215  10.589  -2.415
28549SOL     OW87653   3.930   9.794   8.521
28549SOL    HW187654   3.942   9.767  19.470
28549SOL    HW287655   3.902   9.715   8.567
28550SOL     OW87656   0.246   7.149   5.027
28550SOL    HW187657   0.330   7.137   5.071
28550SOL    HW287658   0.185   7.172  16.136
28551SOL     OW87659   8.753  10.848   8.661
28551SOL    HW187660  19.772  10.938  -2.357
28551SOL    HW287661   8.672  10.813   8.623
28552SOL     OW87662   8.550   2.305   2.701
28552SOL    HW187663 -13.492   2.291  13.827
28552SOL    HW287664   8.495  -8.657   2.710
28553SOL     OW87665   4.253   1.967   8.477
28553SOL    HW187666   4.206   2.040  -2.522
28553SOL    HW287667  -6.843   1.891   8.490
28554SOL     OW87668   7.085   2.588   0.032
28554SOL    HW187669   7.162   2.599  -0.024
28554SOL    HW287670  -4.028   2.616  -0.024
28555SOL     OW87671   4.398   7.485   1.662
28555SOL    HW187672  37.503   7.579   1.662
28555SOL    HW287673   4.485   7.473   1.700
28556SOL     OW87674   1.099   8.011   3.630
28556SOL    HW187675   1.055   7.986   3.712
28556SOL    HW287676   1.174   7.953   3.625
28557SOL     OW87677   7.744   9.731   1.595
28557SOL    HW187678  29.900   9.760   1.644
28557SOL    HW287679  -3.329   9.655   1.643
28558SOL     OW87680   4.128   6.763   9.005
28558SOL    HW187681   4.145   6.739  19.953
28558SOL    HW287682   4.215  17.804 -13.034
28559SOL     OW87683   3.515   4.702   4.961
28559SOL    HW187684   3.586   4.749   5.005
28559SOL    HW287685   3.526   4.611   4.987
28560SOL     OW87686   5.296  -0.186   9.273
28560SOL    HW187687   5.277  -0.139  -1.848
28560SOL    HW287688   5.220  21.911   9.329
28561SOL     OW87689   3.897   9.814   8.235
28561SOL    HW187690   3.964   9.877  19.302
28561SOL    HW287691  26.025  20.772   8.220
28562SOL     OW87692  -2.872   6.828   7.186
28562SOL    HW187693  41.377  17.897   7.196
28562SOL    HW287694  19.201   6.800   7.095
28563SOL     OW87695   5.138  10.808  10.366
28563SOL    HW187696   5.058 -11.280  21.355
28563SOL    HW287697  16.161  -0.280  10.447
28564SOL     OW87698   3.857   0.468   1.057
28564SOL    HW187699  -7.131   0.536  12.053
28564SOL    HW287700   3.894   0.386  12.065
28565SOL     OW87701   6.501   9.832   3.531
28565SOL    HW187702   6.567   9.789 -18.493
28565SOL    HW287703  17.460  20.823   3.549
28566SOL     OW87704   4.982   5.516   1.095
28566SOL    HW187705   4.988 -27.610  12.230
28566SOL    HW287706   5.038   5.445   1.062
28567SOL     OW87707   9.449   6.599   2.311
28567SOL    HW187708  -1.510  28.633   2.285
28567SOL    HW287709  -1.576   6.624   2.402
28568SOL     OW87710   0.787   0.933   6.821
28568SOL    HW187711   0.839  23.053   6.751
28568SOL    HW287712   0.700   0.971   6.812
28569SOL     OW87713   0.644  -1.307   8.199
28569SOL    HW187714   0.663   9.822   8.227
28569SOL    HW287715   0.674  20.718   8.272
28570SOL     OW87716   6.785   7.424   5.634
28570SOL    HW187717   6.840   7.501   5.647
28570SOL    HW287718  17.868   7.375  16.603
28571SOL     OW87719   4.769   9.328   4.090
28571SOL    HW187720  15.903   9.338   4.107
28571SOL    HW287721   4.740   9.264   4.155
28572SOL     OW87722   2.003   0.941  -0.728
28572SOL    HW187723  -9.084   0.994  -0.793
28572SOL    HW287724   1.938   0.879  43.462
28573SOL     OW87725   9.235   1.466   6.212
28573SOL    HW187726  -1.714   1.475   6.244
28573SOL    HW287727   9.241   1.406  -4.901
28574SOL     OW87728  10.956   7.926   7.958
28574SOL    HW187729  11.028  18.903   7.946
28574SOL    HW287730  10.923   7.909   8.046
28575SOL     OW87731   4.442   0.109   4.183
28575SOL    HW187732   4.403   0.024  -6.878
28575SOL    HW287733   4.388  11.182 -28.864
28576SOL     OW87734   7.533   7.901   1.361
28576SOL    HW187735   7.589   7.831  23.407
28576SOL    HW287736   7.504   7.948   1.283
28577SOL     OW87737   0.629   7.744   8.155
28577SOL    HW187738   0.562  -3.346 -25.010
28577SOL    HW287739   0.696   7.762 -13.990
28578SOL     OW87740   0.529   0.824   8.092
28578SOL    HW187741   0.537   0.891   8.024
28578SOL    HW287742   0.610   0.774   8.088
28579SOL     OW87743  10.233   3.540  10.242
28579SOL    HW187744  10.302   3.497  10.293
28579SOL    HW287745  10.187  -7.571  10.198
28580SOL     OW87746   4.363   4.923   8.774
28580SOL    HW187747  -6.739  -6.109   8.702
28580SOL    HW287748   4.369   5.012  41.929
28581SOL     OW87749   4.684   9.473   4.629
28581SOL    HW187750  -6.312   9.556   4.650
28581SOL    HW287751  15.731  20.505   4.534
28582SOL     OW87752  -0.110   4.815   6.783
28582SOL    HW187753  21.931   4.780 -15.376
28582SOL    HW287754  -0.023   4.844   6.757
28583SOL     OW87755   2.043   4.052   4.786
28583SOL    HW187756   1.985  15.070   4.713
28583SOL    HW287757   1.984  26.154  49.015
28584SOL     OW87758  11.037   0.963   4.163
28584SOL    HW187759  10.997  11.915   4.160
28584SOL    HW287760  11.013  12.042   4.079
28585SOL     OW87761   3.221   5.002   3.067
28585SOL    HW187762  25.317   4.910  -7.953
28585SOL    HW287763   3.145   5.025   3.121
28586SOL     OW87764  11.141   5.703   8.656
28586SOL    HW187765   0.114   5.713  19.602
28586SOL    HW287766  11.138 -27.510  19.710
28587SOL     OW87767   8.884   7.226   9.307
28587SOL    HW187768  30.980   7.142 -12.816
28587SOL    HW287769   8.813  -3.832   9.367
28588SOL     OW87770   5.642   2.208  10.024
28588SOL    HW187771  -5.376   2.120  10.055
28588SOL    HW287772  16.657   2.255  10.103
28589SOL     OW87773   5.748   4.723   3.144
28589SOL    HW187774   5.767  -6.227   3.117
28589SOL    HW287775   5.682   4.693 -18.997
28590SOL     OW87776   0.906   4.288   1.567
28590SOL    HW187777   0.918   4.233   1.645
28590SOL    HW287778   0.811  -6.746   1.556
28591SOL     OW87779   5.393   0.919   0.103
28591SOL    HW187780   5.311   0.897   0.059
28591SOL    HW287781  -5.662   0.899  11.235
28592SOL     OW87782   8.803   0.276   6.837
28592SOL    HW187783   8.894   0.297   6.819
28592SOL    HW287784  -2.243  11.313   6.933
28593SOL     OW87785   5.203  11.019   6.860
28593SOL    HW187786  -5.761  22.019   6.905
28593SOL    HW287787  -5.828   0.073   6.877
28594SOL     OW87788   1.403   1.874   6.264
28594SOL    HW187789   1.406   1.935   6.338
28594SOL    HW287790   1.384   1.789   6.303
28595SOL     OW87791   3.828   4.521   3.153
28595SOL    HW187792  25.978 -17.619   3.133
28595SOL    HW287793  -7.221   4.573   3.073
28596SOL     OW87794  -1.453   9.262   6.027
28596SOL    HW187795  -1.396   9.252   5.950
28596SOL    HW287796  31.681   9.184  -4.961
28597SOL     OW87797   4.288   3.972   1.802
28597SOL    HW187798   4.224   3.907  12.812
28597SOL    HW287799   4.239 -29.065  12.846
28598SOL     OW87800  10.631   9.599   3.431
28598SOL    HW187801  10.554   9.543   3.426
28598SOL    HW287802  10.704   9.543  -7.634
28599SOL     OW87803   7.161   3.842   4.767
28599SOL    HW187804   7.247   3.849   4.724
28599SOL    HW287805 -14.915   3.758   4.811
28600SOL     OW87806   1.764   4.509  -0.569
28600SOL    HW187807   1.789   4.488  10.561
28600SOL    HW287808   1.772   4.427  -0.616
28601SOL     OW87809   2.612   3.627   1.243
28601SOL    HW187810   2.702   3.622   1.211
28601SOL    HW287811   2.584   3.536   1.253
28602SOL     OW87812   9.218   3.674   8.237
28602SOL    HW187813   9.233  -7.320 -36.004
28602SOL    HW287814  20.252   3.581   8.213
28603SOL     OW87815   0.378   1.783   5.944
28603SOL    HW187816   0.300  -9.312   5.944
28603SOL    HW287817   0.346   1.870   5.963
28604SOL     OW87818   7.291   7.840   5.025
28604SOL    HW187819 -14.699 -14.229   4.992
28604SOL    HW287820   7.281   7.908   5.091
28605SOL     OW87821   8.255   5.392   1.350
28605SOL    HW187822 -13.792  -5.652   1.260
28605SOL    HW287823 -35.966   5.321  12.397
28606SOL     OW87824   7.975   0.757   2.832
28606SOL    HW187825   8.056  11.764   2.870
28606SOL    HW287826   7.970  11.754   2.747
28607SOL     OW87827   2.111   9.924  12.116
28607SOL    HW187828   2.196  20.974  -9.918
28607SOL    HW287829  -8.914   9.964 -32.128
28608SOL     OW87830   0.210   2.799   3.144
28608SOL    HW187831   0.303   2.798   3.167
28608SOL    HW287832   0.175   2.719   3.182
28609SOL     OW87833   4.899   1.397   5.267
28609SOL    HW187834   4.907   1.447   5.348
28609SOL    HW287835  15.901  -9.726  16.333
28610SOL     OW87836   9.104  10.377   9.258
28610SOL    HW187837   9.192  10.380  20.260
28610SOL    HW287838   9.102  10.294   9.306
28611SOL     OW87839   0.546   2.345   4.483
28611SOL    HW187840   0.481  24.450   4.548
28611SOL    HW287841   0.608  13.457 -17.599
28612SOL     OW87842   0.884   4.388   7.047
28612SOL    HW187843   0.908   4.391   7.139
28612SOL    HW287844   0.883 -17.784   7.025
28613SOL     OW87845   1.511   2.354   1.758
28613SOL    HW187846   1.574  -8.614  12.805
28613SOL    HW287847   1.438   2.380  12.854
28614SOL     OW87848  -0.376   2.765   8.017
28614SOL    HW187849  10.686   2.679  19.020
28614SOL    HW287850  -0.312   2.825  -3.061
28615SOL     OW87851   3.485   3.817   0.019
28615SOL    HW187852   3.534   3.774   0.089
28615SOL    HW287853   3.406   3.763   0.010
28616SOL     OW87854   7.015   0.882   2.029
28616SOL    HW187855   7.038 -10.066   2.012
28616SOL    HW287856  17.970   0.887   2.074
28617SOL     OW87857   3.111   5.843  -0.128
28617SOL    HW187858   3.169  27.937  10.986
28617SOL    HW287859   3.159   5.876  -0.203
28618SOL     OW87860   1.409   3.491  12.483
28618SOL    HW187861   1.332   3.456   1.399
28618SOL    HW287862   1.479   3.485  -9.661
28619SOL     OW87863   9.430   6.857   9.488
28619SOL    HW187864   9.432  17.992   9.489
28619SOL    HW287865   9.414  17.872  -1.461
28620SOL     OW87866   2.850   4.490   1.265
28620SOL    HW187867   2.779   4.457   1.210
28620SOL    HW287868  24.974   4.554   1.210
28621SOL     OW87869   1.464   2.115   5.017
28621SOL    HW187870   1.506  13.107  -5.951
28621SOL    HW287871   1.500   2.203   5.022
28622SOL     OW87872   3.747   2.869   1.803
28622SOL    HW187873   3.763   2.831   1.889
28622SOL    HW287874  14.860   2.928   1.787
28623SOL     OW87875   4.506   6.553   6.591
28623SOL    HW187876   4.490   6.463  17.660
28623SOL    HW287877   4.574   6.544   6.524
28624SOL     OW87878   0.128   8.999   8.264
28624SOL    HW187879  11.094   9.030   8.318
28624SOL    HW287880   0.179   8.943   8.323
28625SOL     OW87881   2.085   7.423   3.141
28625SOL    HW187882   2.164 -14.679   3.092
28625SOL    HW287883  35.208   7.518   3.150
28626SOL     OW87884   0.060   4.411   7.055
28626SOL    HW187885  11.035  26.559   7.070
28626SOL    HW287886  11.084   4.383 -15.114
28627SOL     OW87887   5.217   8.313   2.612
28627SOL    HW187888  -5.800   8.267   2.531
28627SOL    HW287889   5.131  -2.687   2.593
28628SOL     OW87890   3.194   6.657   4.202
28628SOL    HW187891   3.236   6.585   4.249
28628SOL    HW287892  14.196   6.616   4.124
28629SOL     OW87893   8.440   8.343   8.553
28629SOL    HW187894  -2.695   8.340   8.556
28629SOL    HW287895   8.468   8.292  -2.410
28630SOL     OW87896   0.496  10.378   4.471
28630SOL    HW187897   0.453  10.451   4.426
28630SOL    HW287898   0.453  10.300   4.436
28631SOL     OW87899  -0.555   1.744  11.933
28631SOL    HW187900  21.537   1.828 -32.269
28631SOL    HW287901  -0.490   1.686   0.854
28632SOL     OW87902   7.820   8.260   4.246
28632SOL    HW187903   7.792   8.232  -6.880
28632SOL    HW287904  18.820  19.237  15.346
28633SOL     OW87905   9.314   1.161   9.972
28633SOL    HW187906 -12.837   1.220   9.949
28633SOL    HW287907  20.381   1.189 -12.019
28634SOL     OW87908   0.225   3.268   7.739
28634SOL    HW187909  11.319   3.300   7.667
28634SOL    HW287910  11.218   3.345   7.770
28635SOL     OW87911   2.349   0.915   5.526
28635SOL    HW187912   2.366   0.999   5.485
28635SOL    HW287913   2.318   0.859 -16.624
28636SOL     OW87914   2.550   0.780   7.447
28636SOL    HW187915   2.496  11.781   7.378
28636SOL    HW287916   2.627   0.815   7.401
28637SOL     OW87917   8.614   7.129   0.839
28637SOL    HW187918   8.634   7.037   0.858
28637SOL    HW287919   8.632  18.214  23.000
28638SOL     OW87920   0.712   1.404  10.623
28638SOL    HW187921   0.648  12.377  -0.394
28638SOL    HW287922  22.875  12.407  10.650
28639SOL     OW87923   3.596   0.355   6.613
28639SOL    HW187924   3.690   0.369  -4.420
28639SOL    HW287925   3.573   0.309   6.694
28640SOL     OW87926   3.206   9.365   5.368
28640SOL    HW187927  25.306 -34.839  -5.591
28640SOL    HW287928   3.269   9.333  -5.735
28641SOL     OW87929   0.777   4.666   9.444
28641SOL    HW187930   0.745   4.576   9.433
28641SOL    HW287931   0.857   4.656   9.497
28642SOL     OW87932   3.448   3.959  10.482
28642SOL    HW187933   3.473  15.070  10.423
28642SOL    HW287934   3.490  -7.158  10.445
28643SOL     OW87935   6.184   3.048   1.539
28643SOL    HW187936   6.190   3.075   1.631
28643SOL    HW287937   6.155  25.206   1.493
28644SOL     OW87938   4.235   4.492   6.101
28644SOL    HW187939  -6.823   4.580   6.133
28644SOL    HW287940   4.232  15.539   6.006
28645SOL     OW87941   3.222   9.866   1.568
28645SOL    HW187942  25.389   9.897   1.590
28645SOL    HW287943  25.293   9.782  -9.426
28646SOL     OW87944   0.075   3.872   1.527
28646SOL    HW187945  -0.008   3.847   1.487
28646SOL    HW287946  22.148   3.840   1.617
28647SOL     OW87947   8.434   6.860   7.178
28647SOL    HW187948   8.528   6.872  -3.849
28647SOL    HW287949  19.465   6.768   7.154
28648SOL     OW87950   9.975   3.998   9.451
28648SOL    HW187951   9.963   3.994   9.356
28648SOL    HW287952  -1.060  25.985   9.478
28649SOL     OW87953   5.744   3.957   5.171
28649SOL    HW187954   5.775   3.990   5.255
28649SOL    HW287955  27.779   4.032   5.130
28650SOL     OW87956   6.541   3.427   6.771
28650SOL    HW187957   6.527   3.334   6.791
28650SOL    HW287958   6.469  14.489   6.712
28651SOL     OW87959   3.199   2.051   5.575
28651SOL    HW187960   3.288  -8.954   5.588
28651SOL    HW287961   3.187   1.989   5.646
28652SOL     OW87962   4.732   8.121   0.829
28652SOL    HW187963  -6.225 -13.925   0.795
28652SOL    HW287964   4.714   8.175   0.906
28653SOL     OW87965   3.764   0.012   2.350
28653SOL    HW187966  -7.309   0.078  13.328
28653SOL    HW287967  25.770  -0.048  35.481
28654SOL     OW87968  10.799   5.482   5.651
28654SOL    HW187969  10.795   5.491  16.595
28654SOL    HW287970  10.735   5.414   5.672
28655SOL     OW87971   5.454  10.423   2.867
28655SOL    HW187972  16.560  -0.552   2.894
28655SOL    HW287973   5.380  10.476   2.838
28656SOL     OW87974   7.918  -0.424   6.493
28656SOL    HW187975   7.851  10.612   6.561
28656SOL    HW287976 -25.120  10.636  17.579
28657SOL     OW87977   3.079   4.486   2.870
28657SOL    HW187978   3.136   4.548  -8.125
28657SOL    HW287979  -8.043   4.533   2.858
28658SOL     OW87980   9.414   5.796   2.605
28658SOL    HW187981  20.433   5.846   2.525
28658SOL    HW287982   9.365   5.841  -8.366
28659SOL     OW87983   5.387   9.141   7.995
28659SOL    HW187984   5.428   9.216   7.952
28659SOL    HW287985  38.547  20.177   8.081
28660SOL     OW87986   3.393   8.961   1.817
28660SOL    HW187987   3.352   9.019   1.881
28660SOL    HW287988  -7.720   8.921   1.770
28661SOL     OW87989   3.306   4.532   1.166
28661SOL    HW187990   3.295  15.481   1.136
28661SOL    HW287991 -18.681   4.551   1.153
28662SOL     OW87992   2.382   2.299   8.425
28662SOL    HW187993   2.316   2.287   8.357
28662SOL    HW287994   2.358  -8.659   8.468
28663SOL     OW87995   0.812   4.561   9.861
28663SOL    HW187996   0.841   4.536   9.949
28663SOL    HW287997   0.842  -6.388   9.851
28664SOL     OW87998   3.119   6.151   8.987
28664SOL    HW187999  -7.997   6.095   9.002
28664SOL    HW288000  14.122   6.236 -46.235
28665SOL     OW88001   0.474   7.954  11.226
28665SOL    HW188002   0.545 -14.104   0.126
28665SOL    HW288003   0.402  -3.114  11.169
28666SOL     OW88004   3.224  -0.499   5.604
28666SOL    HW188005   3.268  10.461   5.631
28666SOL    HW288006 -41.017  -0.500  -5.388
28667SOL     OW88007   0.333   7.730   7.191
28667SOL    HW188008  11.307   7.786   7.232
28667SOL    HW288009   0.417  18.811   7.212
28668SOL     OW88010   9.464   2.498  10.805
28668SOL    HW188011  -1.580   2.450  10.888
28668SOL    HW288012 -12.522   2.519  10.795
28669SOL     OW88013   8.975  10.643   9.969
28669SOL    HW188014 -24.060  -0.435   9.946
28669SOL    HW288015   8.997  10.721  10.020
28670SOL     OW88016   2.437   2.815   8.037
28670SOL    HW188017   2.361 -19.319   8.054
28670SOL    HW288018   2.496   2.760   7.984
28671SOL     OW88019   3.357   8.413   1.745
28671SOL    HW188020   3.339   8.423  -9.201
28671SOL    HW288021   3.438   8.463   1.731
28672SOL     OW88022   6.247   3.069   5.959
28672SOL    HW188023   6.278   2.995  27.985
28672SOL    HW288024   6.225   3.030  -4.996
28673SOL     OW88025   8.632   0.660   8.866
28673SOL    HW188026   8.709  11.737   8.907
28673SOL    HW288027   8.559   0.710   8.903
28674SOL     OW88028   3.526   2.182   7.784
28674SOL    HW188029   3.476   2.164   7.863
28674SOL    HW288030   3.581   2.257  -3.233
28675SOL     OW88031   2.901   8.112   1.436
28675SOL    HW188032   2.808   8.133  12.488
28675SOL    HW288033   2.913   8.031   1.485
28676SOL     OW88034   4.980   0.249   9.202
28676SOL    HW188035   4.898   0.205   9.178
28676SOL    HW288036  16.019   0.329   9.149
28677SOL     OW88037   9.548  10.384   4.383
28677SOL    HW188038   9.581  21.448   4.469
28677SOL    HW288039   9.503  10.463   4.352
28678SOL     OW88040   6.511   9.116   2.675
28678SOL    HW188041   6.454   9.040   2.684
28678SOL    HW288042   6.593   9.081   2.640
28679SOL     OW88043   2.300   1.420   3.400
28679SOL    HW188044   2.369   1.398   3.338
28679SOL    HW288045  -8.695   1.467  -7.569
28680SOL     OW88046   1.344   9.118   8.247
28680SOL    HW188047   1.354   9.078   8.161
28680SOL    HW288048   1.351  -1.827   8.231
28681SOL     OW88049   8.813   4.465   7.076
28681SOL    HW188050   8.889   4.517   7.047
28681SOL    HW288051  19.780  -6.513  -3.964
28682SOL     OW88052   6.571   9.586  13.257
28682SOL    HW188053   6.500  20.563 -19.876
28682SOL    HW288054  -4.420   9.550   2.293
28683SOL     OW88055   8.306   1.460  10.370
28683SOL    HW188056  -2.714   1.510  21.489
28683SOL    HW288057  -2.727  23.448  10.397
28684SOL     OW88058   6.498   9.813   7.414
28684SOL    HW188059   6.517  31.799   7.424
28684SOL    HW288060   6.404  -1.223   7.399
28685SOL     OW88061   6.742   4.771  11.417
28685SOL    HW188062  -4.320   4.745   0.467
28685SOL    HW288063  17.857  -6.324  11.395
28686SOL     OW88064   8.848   3.429   9.537
28686SOL    HW188065   8.843   3.524 -23.595
28686SOL    HW288066   8.901   3.419   9.616
28687SOL     OW88067   3.513   7.882   7.119
28687SOL    HW188068   3.460   7.857  29.275
28687SOL    HW288069   3.457   7.861   7.044
28688SOL     OW88070   4.062   6.636   8.746
28688SOL    HW188071 -51.212  28.678   8.790
28688SOL    HW288072  -7.007   6.722   8.716
28689SOL     OW88073   9.345   6.891   1.828
28689SOL    HW188074   9.304   6.973   1.857
28689SOL    HW288075   9.321   6.884   1.736
28690SOL     OW88076   0.606   7.509   8.688
28690SOL    HW188077   0.553  18.596 -35.533
28690SOL    HW288078   0.548  -3.601  -2.320
28691SOL     OW88079   5.063   1.575  10.324
28691SOL    HW188080   4.990   1.615  10.371
28691SOL    HW288081   5.089   1.500  10.379
28692SOL     OW88082   5.062   8.820  10.509
28692SOL    HW188083  16.182   8.848  10.466
28692SOL    HW288084 -17.039   8.892  10.569
28693SOL     OW88085  -0.577   9.025   2.370
28693SOL    HW188086  -0.642  20.090   2.436
28693SOL    HW288087  10.505   8.948 -19.672
28694SOL     OW88088   8.841   4.044   3.181
28694SOL    HW188089   8.882  -6.939   3.247
28694SOL    HW288090   8.836   4.099   3.103
28695SOL     OW88091   1.738   9.954  11.098
28695SOL    HW188092   1.791   9.957  11.018
28695SOL    HW288093   1.649  20.981 -22.051
28696SOL     OW88094   8.293   2.053   5.561
28696SOL    HW188095   8.353   1.984  -5.449
28696SOL    HW288096   8.241   2.074   5.638
28697SOL     OW88097   0.462   5.848   5.313
28697SOL    HW188098  22.571   5.867  16.264
28697SOL    HW288099  11.580 -16.257   5.361
28698SOL     OW88100   9.488  -0.239   1.620
28698SOL    HW188101  31.635  32.813  23.709
28698SOL    HW288102   9.504  -0.202   1.533
28699SOL     OW88103   5.609  10.799  10.580
28699SOL    HW188104  16.612 -33.308  10.652
28699SOL    HW288105   5.533  10.771  10.529
28700SOL     OW88106   3.247   8.522   9.214
28700SOL    HW188107 -18.738   8.524  20.272
28700SOL    HW288108   3.223   8.614   9.204
28701SOL     OW88109   0.857   1.746   0.448
28701SOL    HW188110   0.889   1.729   0.537
28701SOL    HW288111  22.860   1.804   0.461
28702SOL     OW88112   9.525   7.711  10.136
28702SOL    HW188113   9.615   7.684  10.154
28702SOL    HW288114   9.474   7.630  10.140
28703SOL     OW88115   3.560  10.591   4.709
28703SOL    HW188116   3.636  10.625   4.757
28703SOL    HW288117   3.598  10.547   4.633
28704SOL     OW88118   6.967   2.218   1.187
28704SOL    HW188119   6.960   2.173   1.103
28704SOL    HW288120 -26.079   2.280   1.174
28705SOL     OW88121   6.282   8.109   2.253
28705SOL    HW188122  17.364   8.193  35.390
28705SOL    HW288123   6.284  -2.977   2.336
28706SOL     OW88124   8.077   2.728   2.097
28706SOL    HW188125  -2.966   2.802   2.158
28706SOL    HW288126   8.144   2.753   2.033
28707SOL     OW88127   0.882   1.524   2.089
28707SOL    HW188128   0.868   1.616   2.110
28707SOL    HW288129 -10.243   1.483  35.219
28708SOL     OW88130   5.408   6.148   8.944
28708SOL    HW188131   5.429   6.085  41.994
28708SOL    HW288132   5.313   6.158  -2.100
28709SOL     OW88133   0.193   4.007   7.718
28709SOL    HW188134   0.157   4.019   7.630
28709SOL    HW288135   0.125  14.998  -3.275
28710SOL     OW88136   7.476   5.832   8.462
28710SOL    HW188137  -3.531  -5.267  -2.645
28710SOL    HW288138  -3.629   5.886  19.457
28711SOL     OW88139   3.445   5.829   8.143
28711SOL    HW188140   3.522  16.885  30.276
28711SOL    HW288141  25.485   5.916   8.130
28712SOL     OW88142   6.202   7.304   4.322
28712SOL    HW188143  28.349   7.238   4.335
28712SOL    HW288144   6.169   7.322   4.410
28713SOL     OW88145   2.052   5.794   7.206
28713SOL    HW188146   2.107   5.732   7.255
28713SOL    HW288147  24.194   5.852   7.163
28714SOL     OW88148   7.839   2.921   7.175
28714SOL    HW188149   7.917  -8.132  18.162
28714SOL    HW288150   7.773  13.903  18.176
28715SOL     OW88151  10.443   0.237   7.410
28715SOL    HW188152  10.423   0.307  -3.568
28715SOL    HW288153  10.419   0.156  -3.582
28716SOL     OW88154  11.010   2.114   1.070
28716SOL    HW188155  11.002  13.248  12.119
28716SOL    HW288156  10.960   2.094   0.991
28717SOL     OW88157   1.360   5.603   8.585
28717SOL    HW188158   1.300   5.576   8.654
28717SOL    HW288159   1.405   5.679   8.620
28718SOL     OW88160   9.042   1.084   2.776
28718SOL    HW188161   9.028   1.139  -8.340
28718SOL    HW288162   8.983   1.120  13.882
28719SOL     OW88163   2.568   0.178   0.398
28719SOL    HW188164  13.598   0.221   0.313
28719SOL    HW288165  13.593   0.248   0.462
28720SOL     OW88166   6.725  -0.619   4.334
28720SOL    HW188167   6.682  10.359  15.432
28720SOL    HW288168   6.654  10.472   4.297
28721SOL     OW88169   1.112   7.667   6.694
28721SOL    HW188170   1.081   7.652   6.783
28721SOL    HW288171   1.164  -3.451   6.673
28722SOL     OW88172   2.540   2.503   1.350
28722SOL    HW188173  -8.430   2.444 -20.757
28722SOL    HW288174   2.496   2.528   1.269
28723SOL     OW88175   7.377   4.130   9.279
28723SOL    HW188176   7.332   4.165 -23.763
28723SOL    HW288177  29.545   4.113 -34.850
28724SOL     OW88178   4.037   3.053  12.075
28724SOL    HW188179   4.053   3.142 -10.036
28724SOL    HW288180   3.942 -19.031   1.048
28725SOL     OW88181   7.699   6.765   8.980
28725SOL    HW188182   7.784   6.746  -2.099
28725SOL    HW288183   7.635   6.728   8.918
28726SOL     OW88184   4.767   0.841   1.146
28726SOL    HW188185  -6.255   0.909   1.081
28726SOL    HW288186   4.769   0.759   1.095
28727SOL     OW88187  10.853   3.684   4.242
28727SOL    HW188188  10.823   3.677   4.152
28727SOL    HW288189  10.835   3.599   4.281
28728SOL     OW88190   6.765   6.552  11.585
28728SOL    HW188191 -15.223  39.684  11.558
28728SOL    HW288192   6.726   6.639   0.543
28729SOL     OW88193   3.406   3.196  10.758
28729SOL    HW188194  14.468   3.107  10.786
28729SOL    HW288195   3.318 -18.891  10.723
28730SOL     OW88196   1.692   6.592   2.371
28730SOL    HW188197   1.731 -48.693  13.402
28730SOL    HW288198   1.754 -15.438   2.425
28731SOL     OW88199   3.695   8.788   9.497
28731SOL    HW188200  14.825 -13.304  20.567
28731SOL    HW288201   3.644 -13.281  -1.462
28732SOL     OW88202   7.711   4.666   3.622
28732SOL    HW188203  29.715  -6.418   3.661
28732SOL    HW288204   7.744  -6.436  14.597
28733SOL     OW88205   4.564   5.691   6.730
28733SOL    HW188206   4.480   5.736   6.727
28733SOL    HW288207   4.545 -16.474  28.848
28734SOL     OW88208   9.817   7.611   3.359
28734SOL    HW188209  -1.146   7.587   3.411
28734SOL    HW288210   9.764   7.532   3.355
28735SOL     OW88211   7.247   4.391   3.874
28735SOL    HW188212 -14.872   4.477   3.881
28735SOL    HW288213   7.230   4.363  14.824
28736SOL     OW88214   5.352   9.414   2.623
28736SOL    HW188215  16.337   9.443   2.696
28736SOL    HW288216   5.293   9.363   2.568
28737SOL     OW88217   9.929   5.019   0.257
28737SOL    HW188218  20.904   4.993   0.323
28737SOL    HW288219  10.012   5.018   0.305
28738SOL     OW88220   8.606   2.032   9.849
28738SOL    HW188221   8.698 -31.077   9.824
28738SOL    HW288222 -13.471   2.013  20.982
28739SOL     OW88223   8.337   2.245   4.258
28739SOL    HW188224   8.290  13.204  37.398
28739SOL    HW288225  19.386   2.290   4.342
28740SOL     OW88226   6.555   6.751   3.971
28740SOL    HW188227   6.630   6.692  -7.082
28740SOL    HW288228  28.557   6.696   3.956
28741SOL     OW88229  12.818   5.676   5.855
28741SOL    HW188230  -9.168   5.687   5.836
28741SOL    HW288231   1.771   5.694   5.948
28742SOL     OW88232   9.535  -0.364   5.618
28742SOL    HW188233   9.440  10.666   5.617
28742SOL    HW288234   9.561  -0.395   5.705
28743SOL     OW88235   6.785   6.164  11.065
28743SOL    HW188236   6.704   6.154   0.075
28743SOL    HW288237   6.809   6.256  11.077
28744SOL     OW88238   9.797  10.587   8.584
28744SOL    HW188239   9.813  10.507  19.573
28744SOL    HW288240   9.702  10.598 -13.495
28745SOL     OW88241   5.808  10.590   5.378
28745SOL    HW188242   5.812  10.579   5.283
28745SOL    HW288243   5.849  10.511   5.413
28746SOL     OW88244   0.005   6.504   2.949
28746SOL    HW188245   0.059  39.692   2.912
28746SOL    HW288246   0.066   6.446  14.034
28747SOL     OW88247   2.389   8.611   1.301
28747SOL    HW188248   2.329   8.587  -9.668
28747SOL    HW288249  -8.606   8.529   1.278
28748SOL     OW88250   6.222   4.841   7.601
28748SOL    HW188251  -4.890   4.786   7.571
28748SOL    HW288252  17.277   4.902   7.529
28749SOL     OW88253  -0.921   9.284   9.059
28749SOL    HW188254  -0.979   9.318   8.991
28749SOL    HW288255  21.227   9.239   9.011
28750SOL     OW88256   4.374   7.437   3.307
28750SOL    HW188257  15.416   7.420   3.213
28750SOL    HW288258 -17.632   7.496 -40.835
28751SOL     OW88259   4.088  10.196  10.583
28751SOL    HW188260 -17.920  10.251  10.618
28751SOL    HW288261   4.011  10.252  10.585
28752SOL     OW88262   8.229   1.960   0.700
28752SOL    HW188263   8.278   1.911   0.635
28752SOL    HW288264  41.269  -9.050   0.654
28753SOL     OW88265   6.686  10.125   5.237
28753SOL    HW188266   6.693  10.105  -5.709
28753SOL    HW288267  17.729  10.039  16.234
28754SOL     OW88268   2.055   3.480   6.351
28754SOL    HW188269  13.136 -40.689  -4.774
28754SOL    HW288270  13.074  -7.467   6.356
28755SOL     OW88271   9.917   6.417   8.192
28755SOL    HW188272   9.932   6.506   8.159
28755SOL    HW288273 -12.074   6.380   8.199
28756SOL     OW88274  10.615   2.987   9.622
28756SOL    HW188275  10.539   2.932   9.600
28756SOL    HW288276  10.583   3.045   9.691
28757SOL     OW88277   3.654   4.318   8.666
28757SOL    HW188278   3.645   4.410   8.690
28757SOL    HW288279   3.694   4.277  19.782
28758SOL     OW88280   0.202   7.368   8.519
28758SOL    HW188281  33.389   7.397   8.580
28758SOL    HW288282  11.160   7.398  30.638
28759SOL     OW88283   5.666   7.757   3.548
28759SOL    HW188284   5.752   7.720   3.529
28759SOL    HW288285   5.648   7.815  25.553
28760SOL     OW88286   6.589   0.528  10.463
28760SOL    HW188287   6.515   0.467  10.465
28760SOL    HW288288   6.601   0.549  10.371
28761SOL     OW88289   3.776   1.082   4.361
28761SOL    HW188290   3.725   1.004  15.382
28761SOL    HW288291   3.722  -9.885  15.370
28762SOL     OW88292  11.506   8.526   4.868
28762SOL    HW188293   0.395   8.466   4.891
28762SOL    HW288294  11.480   8.610  -6.134
28763SOL     OW88295   6.694  10.327  10.591
28763SOL    HW188296   6.705  10.396  -0.515
28763SOL    HW288297   6.775  10.329  10.642
28764SOL     OW88298   7.182   3.541   2.786
28764SOL    HW188299   7.176  14.574   2.691
28764SOL    HW288300  18.269   3.622   2.802
28765SOL     OW88301   8.130   7.032   1.496
28765SOL    HW188302  19.191   6.985   1.416
28765SOL    HW288303   8.040 -15.073   1.516
28766SOL     OW88304   4.555  11.005   2.106
28766SOL    HW188305   4.620  11.025   2.039
28766SOL    HW288306 -28.614  11.085  -8.924
28767SOL     OW88307  10.502   8.958   4.608
28767SOL    HW188308  10.482   8.865  -6.445
28767SOL    HW288309  -0.602   8.987   4.673
28768SOL     OW88310   2.420   6.122   4.743
28768SOL    HW188311  13.466 -15.890  15.850
28768SOL    HW288312 -19.752 -27.002   4.722
28769SOL     OW88313   2.197   4.738   8.962
28769SOL    HW188314  13.188   4.658   8.943
28769SOL    HW288315   2.130   4.807   8.958
28770SOL     OW88316   2.604   0.148  10.049
28770SOL    HW188317  -8.384  22.220  10.129
28770SOL    HW288318   2.514 -10.881  10.079
28771SOL     OW88319   5.133   6.913   1.737
28771SOL    HW188320  16.250  -4.136 -20.287
28771SOL    HW288321  38.212  29.074   1.765
28772SOL     OW88322   3.025   7.709   7.623
28772SOL    HW188323   2.965  -3.257   7.610
28772SOL    HW288324   3.059   7.690   7.535
28773SOL     OW88325   0.321   5.373   2.881
28773SOL    HW188326  33.417   5.444  -8.219
28773SOL    HW288327   0.362  16.456  -8.085
28774SOL     OW88328   7.522   0.566   4.799
28774SOL    HW188329   7.537   0.651   4.757
28774SOL    HW288330   7.608   0.523   4.798
28775SOL     OW88331   7.725   6.169   0.238
28775SOL    HW188332  18.674   6.156   0.267
28775SOL    HW288333  -3.314  17.180   0.147
28776SOL     OW88334   9.467   7.653  11.040
28776SOL    HW188335  31.611   7.709  11.083
28776SOL    HW288336   9.470   7.680  10.948
28777SOL     OW88337   9.804   9.014   8.114
28777SOL    HW188338  20.885   9.099   8.129
28777SOL    HW288339 -12.364   9.024   8.149
28778SOL     OW88340   6.974   9.863   2.656
28778SOL    HW188341  28.988  20.849   2.611
28778SOL    HW288342   6.954   9.854   2.749
28779SOL     OW88343   5.179   3.129   7.975
28779SOL    HW188344   5.172   3.034   7.971
28779SOL    HW288345 -16.855  25.232   7.894
28780SOL     OW88346   4.815   6.044  10.844
28780SOL    HW188347   4.829  -5.008  -0.102
28780SOL    HW288348   4.823  16.996  10.806
28781SOL     OW88349   2.487   8.867   7.374
28781SOL    HW188350   2.479   8.778  -3.700
28781SOL    HW288351   2.445 -24.197   7.308
28782SOL     OW88352   2.683   4.386  12.063
28782SOL    HW188353 -19.458   4.367  11.993
28782SOL    HW288354  -8.410   4.394  -9.937
28783SOL     OW88355   2.560   6.773  12.732
28783SOL    HW188356  13.611   6.846 -31.366
28783SOL    HW288357  24.700   6.706  12.765
28784SOL     OW88358   3.242   2.532  10.983
28784SOL    HW188359   3.337   2.545  10.971
28784SOL    HW288360   3.235   2.446  11.023
28785SOL     OW88361   6.905   1.494   9.068
28785SOL    HW188362  17.869  12.543  31.205
28785SOL    HW288363  -4.060   1.518   9.122
28786SOL     OW88364   2.778   3.110  11.406
28786SOL    HW188365   2.822   3.046  11.463
28786SOL    HW288366   2.739  14.096   0.297
28787SOL     OW88367   0.556   6.154   4.441
28787SOL    HW188368   0.575  28.305   4.381
28787SOL    HW288369   0.642  -4.914   4.473
28788SOL     OW88370   3.688   6.957   6.723
28788SOL    HW188371  -7.353  -4.169  28.844
28788SOL    HW288372  -7.437   6.994   6.742
28789SOL     OW88373   8.492   2.637   9.516
28789SOL    HW188374   8.479  13.618   9.591
28789SOL    HW288375   8.500   2.724   9.556
28790SOL     OW88376   7.206   7.368   5.050
28790SOL    HW188377   7.150 -25.695   4.996
28790SOL    HW288378  18.292   7.312   4.987
28791SOL     OW88379   1.936   6.486   7.238
28791SOL    HW188380  -9.073 -15.682   7.220
28791SOL    HW288381  -9.199  -4.558   7.231
28792SOL     OW88382   3.046  -0.660   9.179
28792SOL    HW188383  14.063  21.480   9.108
28792SOL    HW288384   3.080  -0.737   9.134
28793SOL     OW88385   8.912   7.538   1.995
28793SOL    HW188386  19.862  18.563   2.028
28793SOL    HW288387   8.955   7.587   2.065
28794SOL     OW88388  -1.142   0.653   0.405
28794SOL    HW188389  -1.142  11.628   0.334
28794SOL    HW288390  21.028   0.652   0.437
28795SOL     OW88391   8.113   9.975   4.584
28795SOL    HW188392 -13.965   9.908  15.556
28795SOL    HW288393  19.100  -0.993   4.546
28796SOL     OW88394   3.748   0.420   6.115
28796SOL    HW188395   3.656  11.450   6.140
28796SOL    HW288396   3.784  22.559   6.181
28797SOL     OW88397   2.635   3.674   7.971
28797SOL    HW188398   2.689   3.596   7.957
28797SOL    HW288399   2.548 -18.429  41.057
28798SOL     OW88400   9.932   1.745   7.498
28798SOL    HW188401 -12.185   1.686  18.603
28798SOL    HW288402   9.936  12.733  -3.622
28799SOL     OW88403   9.754   3.828   4.648
28799SOL    HW188404   9.850   3.824  26.729
28799SOL    HW288405   9.727 -18.263   4.739
28800SOL     OW88406   7.385   2.623   2.867
28800SOL    HW188407   7.304  -8.380   2.831
28800SOL    HW288408   7.438   2.601   2.790
28801SOL     OW88409  10.557   1.378   2.606
28801SOL    HW188410  10.517   1.291   2.606
28801SOL    HW288411  10.570   1.398   2.514
28802SOL     OW88412   6.849   6.690   7.240
28802SOL    HW188413  28.920  17.790   7.166
28802SOL    HW288414   6.766   6.642   7.241
28803SOL     OW88415   4.977   9.095  10.183
28803SOL    HW188416   4.882   9.094  10.180
28803SOL    HW288417  16.044  -1.943  10.091
28804SOL     OW88418   9.918   9.247   8.189
28804SOL    HW188419  -1.055   9.180   8.201
28804SOL    HW288420   9.940  20.355   8.253
28805SOL     OW88421   4.083   2.731   1.414
28805SOL    HW188422   3.998   2.774 -20.657
28805SOL    HW288423   4.134  13.830   1.359
28806SOL     OW88424  -0.445   6.692   9.860
28806SOL    HW188425  10.684   6.724   9.868
28806SOL    HW288426  -0.441  28.708   9.787
28807SOL     OW88427   9.069   3.904  11.836
28807SOL    HW188428   9.066   3.808  11.830
28807SOL    HW288429   9.160   3.926 -10.260
28808SOL     OW88430  11.506   4.010   9.974
28808SOL    HW188431  11.459 -29.123   9.893
28808SOL    HW288432   0.427   4.088  -1.027
28809SOL     OW88433   2.387   4.225   3.078
28809SOL    HW188434   2.474   4.251   3.049
28809SOL    HW288435 -19.685   4.217  -7.866
28810SOL     OW88436  10.454   2.587   3.895
28810SOL    HW188437  10.434   2.546  -7.229
28810SOL    HW288438  10.550   2.587  14.939
28811SOL     OW88439   7.966   8.915   9.392
28811SOL    HW188440   8.033   8.895   9.326
28811SOL    HW288441   7.936  20.043   9.370
28812SOL     OW88442   8.440   9.972   9.867
28812SOL    HW188443   8.372  10.025   9.827
28812SOL    HW288444   8.394   9.915   9.928
28813SOL     OW88445   9.169   3.590   6.928
28813SOL    HW188446   9.162  25.752   6.974
28813SOL    HW288447   9.209   3.612   6.844
28814SOL     OW88448   2.711   5.207   0.123
28814SOL    HW188449   2.791   5.169   0.088
28814SOL    HW288450   2.700  16.328   0.074
28815SOL     OW88451   4.710   1.452   4.736
28815SOL    HW188452  15.841   1.449  15.745
28815SOL    HW288453   4.674   1.366   4.713
28816SOL     OW88454   2.416   6.423   5.900
28816SOL    HW188455   2.376  28.430   5.851
28816SOL    HW288456   2.470  17.419   5.966
28817SOL     OW88457  10.519   7.261   2.146
28817SOL    HW188458  10.424  -3.781  35.263
28817SOL    HW288459  10.545  18.210  13.206
28818SOL     OW88460  -0.052   5.933   5.092
28818SOL    HW188461  10.939  27.936   5.060
28818SOL    HW288462  -0.040   5.989   5.015
28819SOL     OW88463   9.741   8.391   2.300
28819SOL    HW188464   9.812   8.414   2.240
28819SOL    HW288465   9.762   8.302   2.330
28820SOL     OW88466   5.866   7.554  11.031
28820SOL    HW188467 -27.205   7.588  10.955
28820SOL    HW288468  -5.265   7.578  11.016
28821SOL     OW88469   1.535   5.152   3.043
28821SOL    HW188470  23.705   5.125  -8.006
28821SOL    HW288471   1.490   5.113  -8.072
28822SOL     OW88472   8.526   9.545   5.956
28822SOL    HW188473   8.474   9.529   6.035
28822SOL    HW288474   8.466   9.530   5.884
28823SOL     OW88475   6.809   9.136   7.948
28823SOL    HW188476   6.796   9.096   8.034
28823SOL    HW288477   6.725   9.175  30.005
28824SOL     OW88478   1.357   9.028   4.151
28824SOL    HW188479  12.389   9.052   4.243
28824SOL    HW288480   1.295   8.956  -6.900
28825SOL     OW88481   7.285   5.924   1.749
28825SOL    HW188482  18.377  16.886  23.809
28825SOL    HW288483   7.294   5.979   1.671
28826SOL     OW88484   4.318   3.851   2.598
28826SOL    HW188485   4.275   3.813   2.522
28826SOL    HW288486  26.489  -7.214   2.588
28827SOL     OW88487   7.444   9.090  10.137
28827SOL    HW188488   7.389  -1.912  10.068
28827SOL    HW288489  -3.529  31.118  10.090
28828SOL     OW88490   4.823   1.302   1.665
28828SOL    HW188491   4.791  -9.716   1.578
28828SOL    HW288492   4.813  34.326  12.711
28829SOL     OW88493   7.255   2.725   3.597
28829SOL    HW188494  -3.831   2.761   3.521
28829SOL    HW288495   7.188   2.716   3.664
28830SOL     OW88496   6.988   7.881  11.324
28830SOL    HW188497   7.064  18.862   0.293
28830SOL    HW288498   6.941   7.848 -10.832
28831SOL     OW88499  13.236   9.706   4.369
28831SOL    HW188500 -30.989   9.644 -17.682
28831SOL    HW288501  -8.877  -1.298   4.287
28832SOL     OW88502   7.148   2.816   5.184
28832SOL    HW188503  18.160   2.897   5.227
28832SOL    HW288504  -3.894  13.875   5.091
28833SOL     OW88505   2.040  11.000   8.492
28833SOL    HW188506   2.026   0.024   8.422
28833SOL    HW288507   2.031  10.915   8.449
28834SOL     OW88508   9.120   3.058   3.062
28834SOL    HW188509   9.179   2.985   3.078
28834SOL    HW288510   9.146   3.092   2.976
28835SOL     OW88511  11.181   3.125   6.059
28835SOL    HW188512   0.213  14.159   6.122
28835SOL    HW288513  11.217   3.088  17.018
28836SOL     OW88514   6.785   3.094  10.626
28836SOL    HW188515   6.800  -8.012  10.559
28836SOL    HW288516   6.708   3.142  10.596
28837SOL     OW88517  -0.560   9.667   8.230
28837SOL    HW188518  21.479   9.670  19.356
28837SOL    HW288519  10.567  20.672  19.285
28838SOL     OW88520   6.724   3.277  10.276
28838SOL    HW188521  17.843   3.281  10.329
28838SOL    HW288522   6.738  14.243  10.217
28839SOL     OW88523   3.248   7.881   5.825
28839SOL    HW188524   3.221   7.849  16.950
28839SOL    HW288525   3.231   7.807   5.766
28840SOL     OW88526  10.899   5.212   0.372
28840SOL    HW188527  10.943   5.286   0.332
28840SOL    HW288528  10.945   5.198   0.455
28841SOL     OW88529   7.852   7.027   1.493
28841SOL    HW188530   7.809   7.105   1.458
28841SOL    HW288531  40.901   6.962   1.499
28842SOL     OW88532   8.400   2.847   1.981
28842SOL    HW188533   8.327  13.904   1.921
28842SOL    HW288534   8.369   2.878   2.066
28843SOL     OW88535   3.670   6.747  10.300
28843SOL    HW188536  25.746   6.819  21.403
28843SOL    HW288537   3.577   6.726 -22.835
28844SOL     OW88538   4.468   0.872   0.146
28844SOL    HW188539   4.392  11.935  11.133
28844SOL    HW288540   4.538  22.936   0.082
28845SOL     OW88541   4.110   0.141   6.244
28845SOL    HW188542 -17.926   0.062   6.275
28845SOL    HW288543   4.126  22.284   6.313
28846SOL     OW88544  10.743   4.534   0.135
28846SOL    HW188545  -0.303  15.666   0.108
28846SOL    HW288546  10.812   4.498   0.079
28847SOL     OW88547  -0.155   1.377   5.585
28847SOL    HW188548  32.923  -9.745   5.612
28847SOL    HW288549  10.880   1.432  38.781
28848SOL     OW88550   5.736   6.912   1.692
28848SOL    HW188551  -5.208   6.923   1.693
28848SOL    HW288552   5.723  17.858   1.678
28849SOL     OW88553   8.413   5.624   3.047
28849SOL    HW188554   8.375   5.712 -30.076
28849SOL    HW288555   8.390   5.592   3.134
28850SOL     OW88556   4.664  -0.269   2.214
28850SOL    HW188557  15.671  -0.190   2.170
28850SOL    HW288558   4.723  10.805   2.282
28851SOL     OW88559   3.664   8.428   4.287
28851SOL    HW188560   3.661   8.402  -6.661
28851SOL    HW288561  -7.468   8.430   4.260
28852SOL     OW88562   8.030   5.955   6.609
28852SOL    HW188563  -2.940  27.992   6.558
28852SOL    HW288564   7.949   5.927   6.567
28853SOL     OW88565  10.988   4.001   3.862
28853SOL    HW188566  11.032   4.030   3.782
28853SOL    HW288567  11.000   3.906   3.862
28854SOL     OW88568   8.904  10.349   8.517
28854SOL    HW188569   8.989  10.307  19.543
28854SOL    HW288570   8.851  10.318   8.444
28855SOL     OW88571   0.470   9.347   1.463
28855SOL    HW188572   0.550   9.354   1.514
28855SOL    HW288573   0.443   9.256   1.474
28856SOL     OW88574   0.109   9.953   1.127
28856SOL    HW188575   0.144   9.948   1.216
28856SOL    HW288576   0.175   9.912  12.112
28857SOL     OW88577   2.114   3.901   5.637
28857SOL    HW188578   2.063   3.821  -5.414
28857SOL    HW288579   2.108   3.921 -16.349
28858SOL     OW88580   0.057  10.557   1.140
28858SOL    HW188581  -0.022  10.572  34.310
28858SOL    HW288582   0.067  10.462   1.138
28859SOL     OW88583   6.607   9.351   5.338
28859SOL    HW188584   6.562  -1.769  16.352
28859SOL    HW288585 -15.391 -34.837  -5.660
28860SOL     OW88586   8.984   3.221   1.189
28860SOL    HW188587   8.949   3.135  12.207
28860SOL    HW288588   9.079  -7.832   1.193
28861SOL     OW88589   2.557   2.521   4.059
28861SOL    HW188590   2.572  13.531   4.148
28861SOL    HW288591   2.510   2.449   4.017
28862SOL     OW88592   6.940   8.567   3.861
28862SOL    HW188593   6.883   8.629  14.946
28862SOL    HW288594   6.901  -2.482  14.813
28863SOL     OW88595  10.379   9.496   9.731
28863SOL    HW188596  -0.724   9.426   9.748
28863SOL    HW288597  10.454  -1.566   9.785
28864SOL     OW88598  -0.009  -0.472   7.435
28864SOL    HW188599   0.033  -0.488   7.351
28864SOL    HW288600  11.018  10.480   7.473
28865SOL     OW88601   3.826   0.039   6.728
28865SOL    HW188602 -29.347  -0.007   6.664
28865SOL    HW288603 -18.211  33.228   6.679
28866SOL     OW88604  -0.247   4.694   6.583
28866SOL    HW188605  10.809   4.602   6.560
28866SOL    HW288606  -0.326  26.796   6.534
28867SOL     OW88607   7.501   5.959   4.845
28867SOL    HW188608  -3.537   5.863   4.852
28867SOL    HW288609   7.420   5.985   4.888
28868SOL     OW88610  10.254   4.680   5.342
28868SOL    HW188611  -0.847 -17.362   5.279
28868SOL    HW288612  10.226   4.589   5.352
28869SOL     OW88613   9.693   1.953   8.662
28869SOL    HW188614   9.761   1.902 -13.461
28869SOL    HW288615   9.740   2.012  41.839
28870SOL     OW88616   8.844   0.707  -0.070
28870SOL    HW188617  -2.165   0.696  -0.160
28870SOL    HW288618   8.884  11.829  22.038
28871SOL     OW88619  11.924   3.524   7.471
28871SOL    HW188620   0.910   3.553   7.559
28871SOL    HW288621 -10.109   3.441   7.460
28872SOL     OW88622   0.501   2.357   6.107
28872SOL    HW188623   0.566   2.366   6.037
28872SOL    HW288624   0.551   2.325  28.261
28873SOL     OW88625   1.150  10.881   6.426
28873SOL    HW188626   1.233  10.832   6.426
28873SOL    HW288627   1.110  10.858   6.342
28874SOL     OW88628   7.243   1.837   3.868
28874SOL    HW188629  18.376   1.842   3.847
28874SOL    HW288630   7.233   1.891   3.946
28875SOL     OW88631   8.662   4.455   6.440
28875SOL    HW188632  19.684 -17.595   6.350
28875SOL    HW288633   8.750   4.418   6.436
28876SOL     OW88634   5.716   0.860   4.392
28876SOL    HW188635   5.711  11.862   4.304
28876SOL    HW288636   5.690  11.829   4.450
28877SOL     OW88637   6.568   5.754   4.841
28877SOL    HW188638   6.562   5.846  -6.225
28877SOL    HW288639   6.478   5.722   4.840
28878SOL     OW88640   5.540   6.475   8.799
28878SOL    HW188641 -16.483 -15.674   8.835
28878SOL    HW288642   5.512  -4.515  -2.163
28879SOL     OW88643  12.198   7.020   2.056
28879SOL    HW188644  12.179  -4.113   2.067
28879SOL    HW288645  -9.960 -15.015  24.167
28880SOL     OW88646   3.049   6.673   2.166
28880SOL    HW188647   2.986   6.624   2.112
28880SOL    HW288648   3.001  17.733   2.246
28881SOL     OW88649   1.482   5.641   6.764
28881SOL    HW188650   1.527   5.559  17.823
28881SOL    HW288651   1.541   5.709   6.798
28882SOL     OW88652   8.842   5.733  10.375
28882SOL    HW188653   8.908   5.793 -11.671
28882SOL    HW288654   8.893   5.663  10.332
28883SOL     OW88655   1.079  10.236  12.361
28883SOL    HW188656   1.050  21.210 -31.861
28883SOL    HW288657   1.173  10.221  12.369
28884SOL     OW88658   7.075   2.042   3.119
28884SOL    HW188659   7.055   2.135   3.108
28884SOL    HW288660   7.143   2.025   3.053
28885SOL     OW88661  10.404  10.405   7.089
28885SOL    HW188662  -0.595  10.351   7.157
28885SOL    HW288663 -22.794  10.439   7.129
28886SOL     OW88664  10.317   6.860   4.418
28886SOL    HW188665  10.229  17.882 -17.694
28886SOL    HW288666  10.312   6.845   4.512
28887SOL     OW88667   1.685  10.285   9.926
28887SOL    HW188668   1.668  21.303  10.017
28887SOL    HW288669  -9.391  10.373   9.915
28888SOL     OW88670  -0.070   8.960   2.041
28888SOL    HW188671  -0.060   8.869   2.070
28888SOL    HW288672  10.874   8.973   2.037
28889SOL     OW88673   9.185   6.737   2.025
28889SOL    HW188674   9.123  28.877   1.985
28889SOL    HW288675   9.271   6.771   2.002
28890SOL     OW88676   5.416   8.469   3.898
28890SOL    HW188677   5.336   8.442   3.944
28890SOL    HW288678   5.474   8.394  14.943
28891SOL     OW88679   4.882  10.080   8.310
28891SOL    HW188680  37.980   9.991  30.420
28891SOL    HW288681   4.943  10.114   8.376
28892SOL     OW88682   5.842   3.064   4.220
28892SOL    HW188683   5.858   3.111   4.139
28892SOL    HW288684   5.756  -7.945   4.249
28893SOL     OW88685   1.626   7.077   6.168
28893SOL    HW188686   1.572   7.154  17.192
28893SOL    HW288687   1.714  -3.928   6.181
28894SOL     OW88688   0.861   1.518   8.668
28894SOL    HW188689  34.048   1.459   8.701
28894SOL    HW288690 -21.300   1.472   8.687
28895SOL     OW88691   7.360   3.797   5.788
28895SOL    HW188692   7.443   3.801   5.741
28895SOL    HW288693   7.324   3.885   5.779
28896SOL     OW88694   8.074   5.324   7.602
28896SOL    HW188695   8.094   5.394   7.663
28896SOL    HW288696   8.086  16.283   7.653
28897SOL     OW88697   4.307   7.229  10.403
28897SOL    HW188698  -6.672  -3.792  10.331
28897SOL    HW288699  15.334  18.353  -0.593
28898SOL     OW88700   3.660   3.791   0.832
28898SOL    HW188701   3.734  25.878   0.892
28898SOL    HW288702   3.700   3.762   0.750
28899SOL     OW88703   7.470  11.465   4.424
28899SOL    HW188704   7.460  11.554  26.539
28899SOL    HW288705   7.468   0.369  37.620
28900SOL     OW88706   1.243  10.569   8.876
28900SOL    HW188707  23.387 -11.440   8.879
28900SOL    HW288708  12.334  10.489   8.864
28901SOL     OW88709   5.146   7.706   3.115
28901SOL    HW188710   5.073  18.702   3.159
28901SOL    HW288711   5.214   7.714   3.182
28902SOL     OW88712  -1.363   8.930  11.306
28902SOL    HW188713  31.839   8.945  11.350
28902SOL    HW288714  -1.392  20.057   0.238
28903SOL     OW88715   7.977   4.515   6.388
28903SOL    HW188716   8.029   4.561  39.441
28903SOL    HW288717   7.888   4.548  17.415
28904SOL     OW88718   2.061   6.560   5.246
28904SOL    HW188719   2.104   6.594   5.324
28904SOL    HW288720  -8.942  -4.568   5.235
28905SOL     OW88721   1.172   4.631   6.450
28905SOL    HW188722  45.250   4.597   6.488
28905SOL    HW288723   1.145  15.749   6.402
28906SOL     OW88724   1.377   0.134   6.076
28906SOL    HW188725   1.417   0.184   6.005
28906SOL    HW288726  12.453   0.046   6.066
28907SOL     OW88727   3.444   5.482  12.060
28907SOL    HW188728   3.507   5.532  -9.967
28907SOL    HW288729   3.470   5.391  12.072
28908SOL     OW88730   9.217   7.640   4.043
28908SOL    HW188731   9.217   7.733   4.023
28908SOL    HW288732  20.340 -14.454   4.087
28909SOL     OW88733   4.199  11.287   9.976
28909SOL    HW188734   4.185  11.210  10.031
28909SOL    HW288735   4.254   0.305  -1.011
28910SOL     OW88736   3.466   0.604   0.616
28910SOL    HW188737   3.476  22.664  22.788
28910SOL    HW288738   3.447   0.698   0.613
28911SOL     OW88739  10.719   5.507   4.599
28911SOL    HW188740  10.643   5.563   4.588
28911SOL    HW288741  10.785  16.582   4.540
28912SOL     OW88742   5.988   4.798  -1.332
28912SOL    HW188743   6.080   4.810  -1.354
28912SOL    HW288744   5.987   4.787  31.882
28913SOL     OW88745   1.954   9.901   3.210
28913SOL    HW188746   1.922  31.905   3.260
28913SOL    HW288747   2.008 -34.296   3.141
28914SOL     OW88748   1.997   5.458   9.100
28914SOL    HW188749  24.070   5.456  -2.035
28914SOL    HW288750   2.049   5.536   9.119
28915SOL     OW88751   2.608   8.967   6.351
28915SOL    HW188752  -8.361   8.936   6.408
28915SOL    HW288753   2.600  -2.141  -4.755
28916SOL     OW88754   0.367   0.632   6.077
28916SOL    HW188755   0.419  11.749   6.098
28916SOL    HW288756   0.413 -10.450   6.006
28917SOL     OW88757   2.724   8.768   7.751
28917SOL    HW188758   2.806   8.807   7.720
28917SOL    HW288759 -19.332   8.725   7.833
28918SOL     OW88760  10.417   2.189   4.281
28918SOL    HW188761  10.329  -8.882   4.262
28918SOL    HW288762  10.431  -8.778  26.300
28919SOL     OW88763  10.142  10.987   9.511
28919SOL    HW188764  10.091 -11.169   9.540
28919SOL    HW288765  10.170  -0.075  -1.617
28920SOL     OW88766  -0.361   8.204  -0.030
28920SOL    HW188767  10.629   8.259  10.949
28920SOL    HW288768  -0.285   8.174  -0.080
28921SOL     OW88769  10.317   2.222   8.141
28921SOL    HW188770  10.333   2.229  -2.993
28921SOL    HW288771  21.275  35.388   8.155
28922SOL     OW88772   8.587   9.046   4.841
28922SOL    HW188773   8.670   9.060  26.875
28922SOL    HW288774   8.547  20.172   4.846
28923SOL     OW88775   5.690   3.382   8.759
28923SOL    HW188776   5.764   3.353   8.812
28923SOL    HW288777   5.711   3.471   8.733
28924SOL     OW88778   8.053   8.168   9.305
28924SOL    HW188779   8.125   8.231   9.298
28924SOL    HW288780  30.172  19.129  31.422
28925SOL     OW88781   8.899   3.909   7.615
28925SOL    HW188782  -2.170   3.993  -3.461
28925SOL    HW288783   8.819  -7.175   7.640
28926SOL     OW88784  -1.027   1.534   3.970
28926SOL    HW188785   9.964   1.467   4.020
28926SOL    HW288786  10.004  12.653   4.022
28927SOL     OW88787   4.936   1.798   3.117
28927SOL    HW188788  -6.177   1.857   3.101
28927SOL    HW288789  -6.072   1.775   3.030
28928SOL     OW88790  11.251   3.055   7.427
28928SOL    HW188791   0.226  14.135   7.342
28928SOL    HW288792  11.210   3.123   7.480
28929SOL     OW88793   3.909   8.327  10.649
28929SOL    HW188794   3.850  -2.782  10.677
28929SOL    HW288795   3.919  19.352  10.555
28930SOL     OW88796   1.186   4.913   2.705
28930SOL    HW188797   1.218 -17.237   2.649
28930SOL    HW288798   1.216 -28.126  -8.378
28931SOL     OW88799  10.947   7.679   9.965
28931SOL    HW188800  -0.146   7.676  10.044
28931SOL    HW288801  10.903  18.659   9.904
28932SOL     OW88802   8.758   2.438   4.802
28932SOL    HW188803  -2.352 -30.625   4.766
28932SOL    HW288804   8.715   2.387   4.871
28933SOL     OW88805  10.580  10.205   6.536
28933SOL    HW188806  21.698  10.187   6.588
28933SOL    HW288807  -0.473  10.299  17.583
28934SOL     OW88808   2.767   1.385   9.383
28934SOL    HW188809  -8.259   1.387   9.288
28934SOL    HW288810   2.825   1.454  20.457
28935SOL     OW88811  10.933   0.588  10.514
28935SOL    HW188812  -0.091   0.596  10.420
28935SOL    HW288813  -0.201  11.636  10.523
28936SOL     OW88814   5.396  -0.401   4.334
28936SOL    HW188815   5.341  21.644   4.263
28936SOL    HW288816  -5.637 -11.347  15.355
28937SOL     OW88817   7.238   3.762   3.140
28937SOL    HW188818   7.173  14.867   3.118
28937SOL    HW288819  -3.851   3.690   3.178
28938SOL     OW88820   5.359   7.242   8.692
28938SOL    HW188821 -16.733  -3.800   8.787
28938SOL    HW288822  -5.765 -14.808   8.658
28939SOL     OW88823   8.976   5.688   0.974
28939SOL    HW188824 -13.011  16.753   0.972
28939SOL    HW288825   8.963   5.651   1.061
28940SOL     OW88826   0.994   9.037   3.232
28940SOL    HW188827  12.079   9.074  14.196
28940SOL    HW288828   0.995  -1.933   3.297
28941SOL     OW88829   1.698   8.523   9.503
28941SOL    HW188830   1.674   8.542   9.413
28941SOL    HW288831   1.763   8.590   9.525
28942SOL     OW88832   2.188   4.649   8.190
28942SOL    HW188833   2.216   4.585   8.254
28942SOL    HW288834   2.268  -6.366  19.183
28943SOL     OW88835  10.683   6.155   0.778
28943SOL    HW188836  10.587   6.146  11.812
28943SOL    HW288837  10.705   6.119   0.863
28944SOL     OW88838   0.640   1.987   6.631
28944SOL    HW188839  22.644  -9.091  -4.363
28944SOL    HW288840   0.634   2.081   6.649
28945SOL     OW88841   9.099   4.128   5.210
28945SOL    HW188842   9.169  15.102   5.205
28945SOL    HW288843   9.019   4.077   5.202
28946SOL     OW88844   1.007  -2.693   8.166
28946SOL    HW188845   0.941  30.371   8.122
28946SOL    HW288846   1.035  19.333   8.241
28947SOL     OW88847   4.176   3.879   2.295
28947SOL    HW188848  15.153 -29.195   2.239
28947SOL    HW288849   4.249   3.941   2.304
28948SOL     OW88850   4.667   8.579   6.762
28948SOL    HW188851   4.621  30.581   6.731
28948SOL    HW288852  -6.375  -2.467  -4.182
28949SOL     OW88853   9.528  10.894  10.372
28949SOL    HW188854  -1.454  10.824  10.342
28949SOL    HW288855  20.534 -11.216  10.456
28950SOL     OW88856   2.535   9.988   5.679
28950SOL    HW188857 -19.457   9.951   5.694
28950SOL    HW288858  13.517   9.937   5.735
28951SOL     OW88859   7.288   5.264   7.274
28951SOL    HW188860   7.346   5.339   7.287
28951SOL    HW288861   7.214  -5.740  18.265
28952SOL     OW88862   1.679   4.143   0.699
28952SOL    HW188863  -9.393   4.218  11.789
28952SOL    HW288864   1.684   4.072   0.762
28953SOL     OW88865   1.423   8.197   2.048
28953SOL    HW188866  -9.685   8.258   2.021
28953SOL    HW288867  -9.595   8.147  13.009
28954SOL     OW88868  11.723   6.280   7.088
28954SOL    HW188869  11.729   6.185   7.080
28954SOL    HW288870 -10.357   6.312   6.998
28955SOL     OW88871  10.662   2.686   7.013
28955SOL    HW188872  10.619   2.688  18.138
28955SOL    HW288873  10.719   2.609   7.017
28956SOL     OW88874   0.707   8.162   3.674
28956SOL    HW188875   0.722  -2.969   3.697
28956SOL    HW288876   0.675 -13.921   3.584
28957SOL     OW88877   5.331   4.989   4.238
28957SOL    HW188878   5.367  -6.054  -6.713
28957SOL    HW288879   5.391 -17.035   4.189
28958SOL     OW88880   8.782   7.914  10.069
28958SOL    HW188881   8.753  29.968  21.021
28958SOL    HW288882  -2.181   7.859  10.087
28959SOL     OW88883   6.807   3.128   5.207
28959SOL    HW188884  17.814   3.038   5.208
28959SOL    HW288885  28.807   3.182   5.213
28960SOL     OW88886   3.117   9.579   7.381
28960SOL    HW188887   3.148   9.667   7.362
28960SOL    HW288888   3.091  -1.458  18.513
28961SOL     OW88889   6.825   2.740   2.185
28961SOL    HW188890   6.868   2.809  13.174
28961SOL    HW288891   6.763   2.701   2.124
28962SOL     OW88892   7.963   3.834  10.084
28962SOL    HW188893   7.923   3.907  10.132
28962SOL    HW288894  18.976   3.848   9.993
28963SOL     OW88895   3.000   3.093   7.473
28963SOL    HW188896  25.106   3.110   7.382
28963SOL    HW288897  14.046   2.998  40.601
28964SOL     OW88898  10.371   2.162   7.872
28964SOL    HW188899 -11.675   2.087   7.822
28964SOL    HW288900  10.450   2.204   7.906
28965SOL     OW88901   7.135   5.417  10.823
28965SOL    HW188902  18.122  16.532  10.795
28965SOL    HW288903  18.109   5.348  10.839
28966SOL     OW88904   9.920   5.214   1.195
28966SOL    HW188905   9.949   5.206   1.104
28966SOL    HW288906   9.827   5.236  12.229
28967SOL     OW88907   0.337   7.231   7.347
28967SOL    HW188908   0.335   7.321   7.380
28967SOL    HW288909   0.356   7.178   7.424
28968SOL     OW88910  10.873   3.901   5.731
28968SOL    HW188911  10.942   3.869  -5.367
28968SOL    HW288912 -22.221  15.030  16.791
28969SOL     OW88913   1.095   7.183   9.681
28969SOL    HW188914   1.049  18.150   9.639
28969SOL    HW288915  -9.942   7.159 -12.305
28970SOL     OW88916   6.385   1.945   5.849
28970SOL    HW188917   6.302   1.982  27.958
28970SOL    HW288918   6.449  13.011  50.074
28971SOL     OW88919   9.645  11.951   3.080
28971SOL    HW188920   9.552 -21.184   3.096
28971SOL    HW288921   9.690  22.947   3.152
28972SOL     OW88922   8.474   4.978   1.378
28972SOL    HW188923  -2.613   4.901  -9.630
28972SOL    HW288924   8.454  16.021   1.284
28973SOL     OW88925   3.640   5.239   4.346
28973SOL    HW188926   3.602  27.345   4.430
28973SOL    HW288927   3.582   5.170   4.314
28974SOL     OW88928   4.193   4.778   9.984
28974SOL    HW188929   4.138   4.744   9.914
28974SOL    HW288930   4.218  15.905 -12.124
28975SOL     OW88931   3.912  -0.101  -0.165
28975SOL    HW188932   3.890  -0.145  21.996
28975SOL    HW288933   3.992  22.027  -0.145
28976SOL     OW88934   7.338   4.191  10.122
28976SOL    HW188935   7.252  -6.805  -0.919
28976SOL    HW288936   7.367  -6.841  10.213
28977SOL     OW88937   9.349   4.131   9.843
28977SOL    HW188938   9.287   4.125   9.915
28977SOL    HW288939   9.301   4.096   9.768
28978SOL     OW88940   9.470   4.478   4.305
28978SOL    HW188941  31.535   4.396  -6.687
28978SOL    HW288942   9.565  -6.551   4.302
28979SOL     OW88943   7.646  10.990   9.781
28979SOL    HW188944   7.740  10.983   9.768
28979SOL    HW288945  18.674  11.064   9.840
28980SOL     OW88946   8.594   8.568   2.946
28980SOL    HW188947   8.591  19.515   2.969
28980SOL    HW288948   8.539   8.575  13.907
28981SOL     OW88949   3.976   2.642   7.178
28981SOL    HW188950   3.942  -8.419   7.265
28981SOL    HW288951   3.923   2.589   7.119
28982SOL     OW88952   1.510   7.258   5.548
28982SOL    HW188953   1.572  18.228   5.526
28982SOL    HW288954 -20.606   7.285   5.464
28983SOL     OW88955   9.345   5.346   2.542
28983SOL    HW188956  -1.688   5.441  -8.491
28983SOL    HW288957 -12.787   5.330   2.464
28984SOL     OW88958   1.902   1.719   5.085
28984SOL    HW188959   1.873   1.770  16.200
28984SOL    HW288960  23.982 -20.451   5.116
28985SOL     OW88961  -0.421   5.095   1.248
28985SOL    HW188962  -0.445  16.046   1.219
28985SOL    HW288963  10.689   5.081  -9.728
28986SOL     OW88964   4.900   3.230   8.317
28986SOL    HW188965   4.854   3.157   8.357
28986SOL    HW288966  27.001   3.199   8.229
28987SOL     OW88967   3.326   3.694   1.184
28987SOL    HW188968   3.380   3.633   1.234
28987SOL    HW288969   3.349   3.677   1.093
28988SOL     OW88970   7.327   3.761  10.222
28988SOL    HW188971   7.246   3.759 -33.887
28988SOL    HW288972   7.309   3.819  -0.892
28989SOL     OW88973   1.339   3.406   4.883
28989SOL    HW188974  12.398   3.378  38.092
28989SOL    HW288975   1.282   3.338   4.849
28990SOL     OW88976   4.058   2.865   9.099
28990SOL    HW188977   4.115  13.967   9.145
28990SOL    HW288978   4.041   2.796   9.163
28991SOL     OW88979   3.721   7.315   7.746
28991SOL    HW188980  14.666   7.332   7.750
28991SOL    HW288981   3.760   7.387  18.835
28992SOL     OW88982   3.205   9.556  -0.623
28992SOL    HW188983   3.201   9.526  -0.714
28992SOL    HW288984   3.124   9.605  32.508
28993SOL     OW88985   7.699   0.722   6.526
28993SOL    HW188986   7.678   0.670   6.604
28993SOL    HW288987   7.728   0.806  39.679
28994SOL     OW88988  10.101   7.423  10.211
28994SOL    HW188989  10.039  18.520  10.165
28994SOL    HW288990  10.108  18.501  10.298
28995SOL     OW88991  -2.405   1.920  10.109
28995SOL    HW188992  30.673   1.896  10.193
28995SOL    HW288993   8.728   1.906  10.123
28996SOL     OW88994   3.338   2.861  10.497
28996SOL    HW188995   3.426   2.857  10.460
28996SOL    HW288996 -40.813   2.819 -22.536
28997SOL     OW88997   0.954   0.340   3.232
28997SOL    HW188998  12.023   0.414   3.287
28997SOL    HW288999 -10.178   0.329   3.254
28998SOL     OW89000   6.088   6.868   5.143
28998SOL    HW189001   6.120   6.900  16.098
28998SOL    HW289002   5.993 -15.219  16.172
28999SOL     OW89003   2.908   9.831   3.388
28999SOL    HW189004   2.891   9.744   3.424
28999SOL    HW289005 -19.088   9.858 -18.650
29000SOL     OW89006   4.568   3.411   8.049
29000SOL    HW189007  -6.447  -7.721   8.041
29000SOL    HW289008  -6.441   3.451  30.047
29001SOL     OW89009   6.338   4.770   9.267
29001SOL    HW189010  17.402   4.836   9.332
29001SOL    HW289011   6.245   4.753  20.324
29002SOL     OW89012   8.284   1.110   1.914
29002SOL    HW189013  -2.762   1.033   1.970
29002SOL    HW289014   8.312   1.180 -20.106
29003SOL     OW89015   0.576   1.731   0.818
29003SOL    HW189016   0.580   1.635   0.825
29003SOL    HW289017   0.484  -9.290   0.804
29004SOL     OW89018   4.945   4.432   1.797
29004SOL    HW189019 -17.086   4.507  12.871
29004SOL    HW289020  15.990  15.482   1.702
29005SOL     OW89021  10.934   6.320  13.080
29005SOL    HW189022 -22.200  17.343   2.133
29005SOL    HW289023  10.895  17.446 -42.134
29006SOL     OW89024   9.993   8.606   4.685
29006SOL    HW189025  10.032  19.608  26.843
29006SOL    HW289026  -1.109   8.539   4.655
29007SOL     OW89027   2.986   4.762   0.942
29007SOL    HW189028  14.016   4.857 -21.137
29007SOL    HW289029   2.903   4.729  12.014
29008SOL     OW89030   5.016  10.774   3.567
29008SOL    HW189031  -6.088  10.838  -7.443
29008SOL    HW289032  -5.962  10.766   3.640
29009SOL     OW89033   0.852   7.085   5.856
29009SOL    HW189034   0.941  18.095   5.834
29009SOL    HW289035   0.835   7.045   5.941
29010SOL     OW89036   6.060   9.004  -0.002
29010SOL    HW189037   6.054   9.100  11.041
29010SOL    HW289038   5.976   8.973  11.071
29011SOL     OW89039   5.414   9.610   2.962
29011SOL    HW189040   5.403   9.700  14.033
29011SOL    HW289041 -27.770   9.560  -8.028
29012SOL     OW89042   7.164   6.590   2.214
29012SOL    HW189043   7.187  28.757  57.443
29012SOL    HW289044   7.143  17.641  13.161
29013SOL     OW89045   9.567   4.174   7.829
29013SOL    HW189046   9.639   4.113   7.844
29013SOL    HW289047   9.514   4.133  40.880
29014SOL     OW89048   2.514   1.940   6.746
29014SOL    HW189049  13.609  13.056   6.731
29014SOL    HW289050  13.494   1.938  17.711
29015SOL     OW89051  10.090   7.521   2.965
29015SOL    HW189052 -34.042   7.613   2.963
29015SOL    HW289053 -23.116   7.521   2.925
29016SOL     OW89054   7.711   2.424   4.464
29016SOL    HW189055   7.680   2.510   4.437
29016SOL    HW289056   7.677   2.364   4.398
29017SOL     OW89057   5.981   4.960   2.721
29017SOL    HW189058   5.957   5.024   2.789
29017SOL    HW289059   5.897   4.925   2.691
29018SOL     OW89060  10.272  11.801   6.171
29018SOL    HW189061  10.201 -10.325   6.128
29018SOL    HW289062  21.367  11.831  -4.941
29019SOL     OW89063   3.304   6.145   2.346
29019SOL    HW189064   3.273   6.065   2.390
29019SOL    HW289065  25.387   6.121  13.293
29020SOL     OW89066  11.457   8.102   4.424
29020SOL    HW189067  11.504   8.181   4.450
29020SOL    HW289068   0.469   8.030   4.459
29021SOL     OW89069   6.056   9.010   6.976
29021SOL    HW189070   6.104   8.982  18.093
29021SOL    HW289071  17.159   9.060   6.924
29022SOL     OW89072   1.486   4.175   5.634
29022SOL    HW189073   1.568   4.220   5.655
29022SOL    HW289074  12.553   4.097   5.586
29023SOL     OW89075  10.623  10.687   7.256
29023SOL    HW189076  10.659  10.775  18.305
29023SOL    HW289077  10.576  10.688  18.212
29024SOL     OW89078  11.399   6.440   4.561
29024SOL    HW189079  11.409  -4.563   4.473
29024SOL    HW289080   0.443   6.398  -6.460
29025SOL     OW89081   5.281   7.372   0.200
29025SOL    HW189082  16.310   7.281   0.228
29025SOL    HW289083   5.250   7.373   0.109
29026SOL     OW89084   0.517   5.188  10.147
29026SOL    HW189085   0.558 -49.981  -0.811
29026SOL    HW289086  11.483   5.133  -0.864
29027SOL     OW89087   8.694   7.208   8.506
29027SOL    HW189088   8.607   7.202   8.467
29027SOL    HW289089   8.694   7.141  30.654
29028SOL     OW89090  11.553   9.286   7.317
29028SOL    HW189091   0.585   9.222   7.325
29028SOL    HW289092  11.481   9.248  51.526
29029SOL     OW89093   6.200  10.261   9.680
29029SOL    HW189094   6.264  10.193   9.697
29029SOL    HW289095  17.224  10.302  20.805
29030SOL     OW89096   7.367   4.382   0.657
29030SOL    HW189097   7.351  15.514  11.716
29030SOL    HW289098   7.434  37.474   0.720
29031SOL     OW89099   9.107   7.601  -0.026
29031SOL    HW189100   9.147  -3.368  11.064
29031SOL    HW289101  42.176   7.646  33.025
29032SOL     OW89102   7.988   7.942   4.798
29032SOL    HW189103 -14.066   7.869   4.740
29032SOL    HW289104   8.015  19.060   4.750
29033SOL     OW89105   7.287   1.918   5.915
29033SOL    HW189106   7.228   1.904   5.841
29033SOL    HW289107  18.274  12.933   5.992
29034SOL     OW89108   9.294   6.827   9.737
29034SOL    HW189109   9.207   6.799   9.767
29034SOL    HW289110   9.352   6.809   9.810
29035SOL     OW89111  10.508  10.372   8.838
29035SOL    HW189112  10.432  10.430  -2.205
29035SOL    HW289113  10.472  10.285  -2.223
29036SOL     OW89114   5.843   0.511   7.308
29036SOL    HW189115   5.818  11.532   7.398
29036SOL    HW289116   5.829   0.428   7.262
29037SOL     OW89117   8.442   2.857   2.806
29037SOL    HW189118   8.363 -30.303   2.772
29037SOL    HW289119  -2.585   2.934  -8.289
29038SOL     OW89120  -1.623  -1.672   8.818
29038SOL    HW189121  -1.677  31.523  30.879
29038SOL    HW289122  31.434   9.298   8.841
29039SOL     OW89123   5.271   1.522  -2.332
29039SOL    HW189124   5.227  -9.531  -2.416
29039SOL    HW289125   5.287   1.433  63.938
29040SOL     OW89126   9.620   0.427   2.192
29040SOL    HW189127   9.620   0.359   2.260
29040SOL    HW289128  31.613   0.469   2.200
29041SOL     OW89129   6.385   9.962   0.044
29041SOL    HW189130   6.437  10.029  33.206
29041SOL    HW289131  17.448   9.969  10.991
29042SOL     OW89132  10.569  10.755   6.114
29042SOL    HW189133  10.531  10.763   6.202
29042SOL    HW289134  10.567  10.662   6.095
29043SOL     OW89135   8.858   3.318   9.293
29043SOL    HW189136   8.897   3.235   9.321
29043SOL    HW289137  -2.200   3.365 -12.705
29044SOL     OW89138  -0.248   2.480   8.252
29044SOL    HW189139  21.844  24.574  -2.694
29044SOL    HW289140  -0.212  13.432   8.236
29045SOL     OW89141  10.076   6.949   9.852
29045SOL    HW189142  10.066   6.854  20.882
29045SOL    HW289143   9.997 -15.103   9.899
29046SOL     OW89144  10.960   2.649  10.972
29046SOL    HW189145  21.930   2.702  10.933
29046SOL    HW289146 -11.093   2.588  10.903
29047SOL     OW89147   5.984   1.089   5.752
29047SOL    HW189148   5.958   1.019  27.771
29047SOL    HW289149   6.061   1.128  27.791
29048SOL     OW89150   2.110   9.296   1.975
29048SOL    HW189151   2.074   9.216   1.936
29048SOL    HW289152   2.198   9.272   2.002
29049SOL     OW89153   8.955   2.441   8.641
29049SOL    HW189154   8.928   2.501   8.711
29049SOL    HW289155   8.937   2.354  19.715
29050SOL     OW89156   7.391   1.603   3.469
29050SOL    HW189157  -3.713   1.659   3.513
29050SOL    HW289158  29.423   1.522   3.451
29051SOL     OW89159   5.632   1.174   4.951
29051SOL    HW189160   5.653  -9.876   4.859
29051SOL    HW289161   5.587   1.094 -28.143
29052SOL     OW89162   7.124  -0.259   9.363
29052SOL    HW189163 -14.909  -0.218   9.436
29052SOL    HW289164   7.161  10.693   9.356
29053SOL     OW89165   7.754   2.743   7.810
29053SOL    HW189166  -3.365   2.689   7.805
29053SOL    HW289167   7.722  58.028   7.835
29054SOL     OW89168   8.979   2.924   0.754
29054SOL    HW189169   8.936   2.842  11.771
29054SOL    HW289170  42.026   2.985   0.772
29055SOL     OW89171   1.919   5.529   4.573
29055SOL    HW189172  12.886  16.506   4.576
29055SOL    HW289173   1.906  27.655 -28.628
29056SOL     OW89174   3.421   5.338   9.919
29056SOL    HW189175  14.388   5.341   9.858
29056SOL    HW289176 -18.698  27.401  10.005
29057SOL     OW89177   5.753   9.275  10.290
29057SOL    HW189178   5.695   9.336  -0.704
29057SOL    HW289179   5.798  -1.811  10.360
29058SOL     OW89180   4.130  11.451  10.313
29058SOL    HW189181  15.192  11.373  10.364
29058SOL    HW289182   4.211   0.435  10.268
29059SOL     OW89183  10.841   7.427   6.639
29059SOL    HW189184  10.829  -3.652   6.726
29059SOL    HW289185  10.852   7.521   6.657
29060SOL     OW89186   2.933   3.210  11.180
29060SOL    HW189187  25.107  14.259   0.146
29060SOL    HW289188   2.903 -18.856 -10.809
29061SOL     OW89189  -0.273   2.580  10.236
29061SOL    HW189190  10.721   2.566  21.358
29061SOL    HW289191  -0.182   2.557  10.255
29062SOL     OW89192   5.073   0.435   6.879
29062SOL    HW189193   5.089   0.518  -4.116
29062SOL    HW289194   4.985   0.443   6.843
29063SOL     OW89195   4.959   1.758   0.761
29063SOL    HW189196   5.030   1.701   0.730
29063SOL    HW289197   4.960   1.832   0.700
29064SOL     OW89198   3.055   2.295   1.398
29064SOL    HW189199   3.070   2.353   1.473
29064SOL    HW289200 -18.958   2.227  -9.634
29065SOL     OW89201   2.215  -0.567   6.006
29065SOL    HW189202   2.204  10.488   6.099
29065SOL    HW289203   2.289  10.528  -5.059
29066SOL     OW89204   7.069   4.642   0.636
29066SOL    HW189205   7.129   4.653   0.562
29066SOL    HW289206  -3.992   4.731  11.703
29067SOL     OW89207   8.935  10.288   4.495
29067SOL    HW189208   8.963  10.225   4.561
29067SOL    HW289209  42.133  21.349   4.447
29068SOL     OW89210   5.303   7.750   3.410
29068SOL    HW189211   5.232   7.801  36.566
29068SOL    HW289212  -5.725   7.677  25.550
29069SOL     OW89213  10.229   7.501   4.859
29069SOL    HW189214  10.179  -3.599   4.804
29069SOL    HW289215  -0.723  29.580  15.861
29070SOL     OW89216   7.173   6.084   1.535
29070SOL    HW189217  18.129 -26.989   1.531
29070SOL    HW289218   7.228   6.129   1.472
29071SOL     OW89219   6.976   3.890   2.641
29071SOL    HW189220   7.054  -7.161   2.587
29071SOL    HW289221   6.945   3.801   2.657
29072SOL     OW89222   4.607   8.614   5.272
29072SOL    HW189223   4.674   8.547   5.258
29072SOL    HW289224  -6.384   8.696   5.279
29073SOL     OW89225  10.696   7.444   2.248
29073SOL    HW189226  10.775   7.391   2.240
29073SOL    HW289227  10.624   7.382   2.234
29074SOL     OW89228   9.103   4.186   5.645
29074SOL    HW189229   9.192   4.158   5.624
29074SOL    HW289230   9.047  -6.919   5.603
29075SOL     OW89231   1.624   1.671   3.299
29075SOL    HW189232   1.720   1.678   3.295
29075SOL    HW289233   1.593  -9.279 -18.791
29076SOL     OW89234   2.390   8.463   8.122
29076SOL    HW189235   2.411  19.428  41.185
29076SOL    HW289236   2.317   8.506   8.078
29077SOL     OW89237   8.920  11.109   9.250
29077SOL    HW189238   8.828  11.110  20.261
29077SOL    HW289239   8.971   0.069  -1.870
29078SOL     OW89240   3.609   2.888   5.578
29078SOL    HW189241   3.638  -8.130   5.489
29078SOL    HW289242   3.681  -8.125  16.674
29079SOL     OW89243  11.032   4.446   2.579
29079SOL    HW189244  10.945   4.481  -8.441
29079SOL    HW289245  11.090   4.522  13.621
29080SOL     OW89246   3.228   7.446   9.160
29080SOL    HW189247   3.293   7.478   9.097
29080SOL    HW289248   3.153   7.420   9.105
29081SOL     OW89249   9.530  10.586  -0.935
29081SOL    HW189250   9.528  10.492  21.128
29081SOL    HW289251 -12.478  -0.441  -0.873
29082SOL     OW89252  10.488   6.680   3.563
29082SOL    HW189253  10.549  17.672   3.620
29082SOL    HW289254  10.491  28.712   3.480
29083SOL     OW89255   0.770   6.596  10.181
29083SOL    HW189256   0.735  28.749  -0.908
29083SOL    HW289257 -10.238   6.535  21.154
29084SOL     OW89258   4.619   8.904   4.337
29084SOL    HW189259   4.704   8.885   4.297
29084SOL    HW289260  37.674  19.923 -28.850
29085SOL     OW89261   2.770   3.104   4.615
29085SOL    HW189262   2.765   3.199  15.649
29085SOL    HW289263   2.686   3.078   4.653
29086SOL     OW89264   2.173   0.322   0.785
29086SOL    HW189265   2.214   0.397   0.742
29086SOL    HW289266   2.084   0.351   0.805
29087SOL     OW89267   8.365   0.170   8.757
29087SOL    HW189268   8.293  11.247   8.707
29087SOL    HW289269   8.416   0.245   8.786
29088SOL     OW89270   6.939   9.934   7.192
29088SOL    HW189271   6.845  -1.097   7.204
29088SOL    HW289272   6.950  20.890  -3.895
29089SOL     OW89273   9.092   5.627   0.673
29089SOL    HW189274   9.025   5.694  44.812
29089SOL    HW289275   9.065  -5.449  11.797
29090SOL     OW89276   1.736   6.775  10.530
29090SOL    HW189277   1.782   6.845  10.483
29090SOL    HW289278   1.769  -4.345  10.490
29091SOL     OW89279  10.521  11.873   1.744
29091SOL    HW189280  10.483 -10.164  -9.372
29091SOL    HW289281  10.560  11.945   1.794
29092SOL     OW89282   1.261   7.703  -0.617
29092SOL    HW189283   1.342   7.704  10.371
29092SOL    HW289284   1.196  18.786  21.406
29093SOL     OW89285  10.446   6.702   6.252
29093SOL    HW189286  -0.585  28.686   6.250
29093SOL    HW289287  10.504  -4.310   6.323
29094SOL     OW89288   6.803   0.435   7.976
29094SOL    HW189289   6.852   0.451   8.057
29094SOL    HW289290   6.812   0.340   7.962
29095SOL     OW89291  11.640   5.834  -0.682
29095SOL    HW189292  11.731  16.845  -0.681
29095SOL    HW289293 -10.488   5.759  32.472
29096SOL     OW89294   3.666   8.247   0.534
29096SOL    HW189295   3.645   8.304   0.460
29096SOL    HW289296   3.589   8.252   0.591
29097SOL     OW89297   2.233   3.088   3.384
29097SOL    HW189298   2.317   3.131   3.399
29097SOL    HW289299   2.202   3.123   3.301
29098SOL     OW89300   2.731   3.321   2.590
29098SOL    HW189301   2.736   3.355   2.500
29098SOL    HW289302   2.730   3.399  -8.395
29099SOL     OW89303   9.856   4.102   5.692
29099SOL    HW189304  -1.186   4.175  -5.285
29099SOL    HW289305 -12.141   4.057   5.711
29100SOL     OW89306   8.580   4.216   3.341
29100SOL    HW189307  -2.455   4.120   3.349
29100SOL    HW289308  -2.400  15.275   3.268
29101SOL     OW89309   6.674   3.418   4.108
29101SOL    HW189310   6.656   3.326   4.128
29101SOL    HW289311   6.637   3.467   4.182
29102SOL     OW89312   8.454   2.874   6.151
29102SOL    HW189313  19.469  -8.194   6.063
29102SOL    HW289314  -2.651   2.940  -4.867
29103SOL     OW89315   7.944   4.500   0.499
29103SOL    HW189316   8.032  -6.515   0.471
29103SOL    HW289317   7.887  -6.474   0.458
29104SOL     OW89318  12.751   7.410   5.277
29104SOL    HW189319 -20.334  -3.706   5.325
29104SOL    HW289320 -20.344   7.393  -5.854
29105SOL     OW89321   2.804   6.491  10.335
29105SOL    HW189322   2.780   6.537  10.415
29105SOL    HW289323   2.818   6.400  -0.677
29106SOL     OW89324   0.655   6.515   1.173
29106SOL    HW189325 -10.383   6.451  12.283
29106SOL    HW289326   0.621   6.467   1.097
29107SOL     OW89327   6.519   6.315   5.216
29107SOL    HW189328   6.594   6.375 -38.947
29107SOL    HW289329   6.507   6.300   5.310
29108SOL     OW89330   1.086   7.882   2.163
29108SOL    HW189331   1.146  -3.232   2.156
29108SOL    HW289332 -10.021   7.854   2.225
29109SOL     OW89333  11.446   3.635   7.516
29109SOL    HW189334   0.499   3.652   7.494
29109SOL    HW289335   0.404   3.640   7.611
29110SOL     OW89336   1.102  10.006   0.580
29110SOL    HW189337   1.113  10.027   0.673
29110SOL    HW289338  12.090   9.925  22.659
29111SOL     OW89339   5.389   8.414   7.567
29111SOL    HW189340 -16.660  30.550   7.496
29111SOL    HW289341   5.405   8.465   7.647
29112SOL     OW89342  -1.062   4.015   5.281
29112SOL    HW189343  21.012   3.920   5.294
29112SOL    HW289344   9.985  26.105   5.186
29113SOL     OW89345   1.853   3.135   2.033
29113SOL    HW189346 -20.288  14.202  24.045
29113SOL    HW289347   1.798  -7.928   2.108
29114SOL     OW89348   9.784   3.429   9.865
29114SOL    HW189349  -1.271  14.460   9.771
29114SOL    HW289350   9.703   3.396  -1.135
29115SOL     OW89351   1.359   8.434   9.017
29115SOL    HW189352   1.353  -2.525  20.107
29115SOL    HW289353   1.333  19.405  -1.961
29116SOL     OW89354   8.672  10.396   3.796
29116SOL    HW189355  30.817  10.336  -7.279
29116SOL    HW289356  -2.361  10.474   3.741
29117SOL     OW89357   4.524   4.249   4.927
29117SOL    HW189358  -6.472   4.173   4.889
29117SOL    HW289359   4.519   4.313  15.896
29118SOL     OW89360   5.508   1.617   6.633
29118SOL    HW189361   5.434  12.596  28.716
29118SOL    HW289362   5.583   1.562  -4.432
29119SOL     OW89363   1.609   8.878   7.952
29119SOL    HW189364  -9.362   8.942   7.934
29119SOL    HW289365   1.591  -2.203  18.907
29120SOL     OW89366   7.517   0.871  -0.004
29120SOL    HW189367 -25.543  11.968   0.045
29120SOL    HW289368   7.567   0.846  10.958
29121SOL     OW89369   6.240   4.039   1.289
29121SOL    HW189370   6.276   4.037   1.200
29121SOL    HW289371  -4.732   4.084   1.340
29122SOL     OW89372   3.450   9.811   4.606
29122SOL    HW189373   3.377   9.858   4.647
29122SOL    HW289374   3.525   9.832  -6.378
29123SOL     OW89375   7.139   4.431   1.373
29123SOL    HW189376  18.138   4.366  12.355
29123SOL    HW289377   7.219   4.456  12.368
29124SOL     OW89378   7.280   6.350   3.104
29124SOL    HW189379 -25.852  -4.711   3.012
29124SOL    HW289380   7.192  17.394  14.180
29125SOL     OW89381   1.178   3.631   2.932
29125SOL    HW189382   1.265   3.664   2.955
29125SOL    HW289383  -9.919  -7.333   2.944
29126SOL     OW89384  10.304   9.715   7.788
29126SOL    HW189385 -22.855 -45.477   7.874
29126SOL    HW289386  10.240 -12.411   7.735
29127SOL     OW89387   6.953  11.559   8.199
29127SOL    HW189388   6.872  11.547  19.288
29127SOL    HW289389  -4.029   0.568   8.258
29128SOL     OW89390   3.777  -0.095   8.827
29128SOL    HW189391   3.724  11.013   8.787
29128SOL    HW289392   3.766  -0.170   8.768
29129SOL     OW89393   6.166   8.093   4.843
29129SOL    HW189394   6.082  -2.943   4.797
29129SOL    HW289395   6.230   8.074   4.774
29130SOL     OW89396  10.035   7.474   1.883
29130SOL    HW189397  -0.973   7.386   1.900
29130SOL    HW289398  10.106   7.531 -20.166
29131SOL     OW89399   1.624   7.490   1.819
29131SOL    HW189400   1.599  -3.596   1.739
29131SOL    HW289401 -20.479  -3.609   1.890
29132SOL     OW89402   2.516   5.586  -0.558
29132SOL    HW189403   2.518   5.491  -0.544
29132SOL    HW289404   2.495   5.596  21.429
29133SOL     OW89405   9.945   5.917  10.733
29133SOL    HW189406   9.998   5.959 -11.413
29133SOL    HW289407  20.895  -5.118  10.700
29134SOL     OW89408   2.563   1.702   5.470
29134SOL    HW189409   2.568  12.650   5.501
29134SOL    HW289410  -8.414   1.706   5.398
29135SOL     OW89411   4.380   3.545   7.050
29135SOL    HW189412   4.320   3.485   7.094
29135SOL    HW289413   4.369  25.604   6.957
29136SOL     OW89414   9.514   8.694   1.138
29136SOL    HW189415   9.452   8.628   1.169
29136SOL    HW289416  31.656   8.645  -9.955
29137SOL     OW89417   3.302   5.045   8.973
29137SOL    HW189418   3.354   5.126  -2.074
29137SOL    HW289419  25.304  16.110   9.024
29138SOL     OW89420   1.444   5.195   7.344
29138SOL    HW189421   1.393  -5.835   7.264
29138SOL    HW289422   1.512  49.421  18.377
29139SOL     OW89423   6.144   3.408   9.027
29139SOL    HW189424   6.181   3.481   8.976
29139SOL    HW289425  61.343   3.439   9.117
29140SOL     OW89426   3.502  -0.108   4.692
29140SOL    HW189427   3.530  10.949   4.782
29140SOL    HW289428   3.472  10.841 -39.465
29141SOL     OW89429   2.464   3.346   2.877
29141SOL    HW189430   2.542   3.295  -8.188
29141SOL    HW289431   2.410   3.347   2.798
29142SOL     OW89432   0.344  10.149   4.454
29142SOL    HW189433   0.321  10.149   4.546
29142SOL    HW289434   0.260  -0.899  15.448
29143SOL     OW89435   4.657   3.877   5.399
29143SOL    HW189436  -6.336  14.997   5.379
29143SOL    HW289437   4.725   3.815   5.424
29144SOL     OW89438   5.234   7.061   2.391
29144SOL    HW189439   5.224   6.983  -8.595
29144SOL    HW289440   5.304   7.040   2.329
29145SOL     OW89441   3.872   7.240   8.700
29145SOL    HW189442  37.063  -3.844   8.656
29145SOL    HW289443   3.914   7.303  19.798
29146SOL     OW89444   5.454   6.598  -1.040
29146SOL    HW189445   5.481  28.641  -0.955
29146SOL    HW289446   5.528   6.579  20.981
29147SOL     OW89447  -0.308   1.266   3.404
29147SOL    HW189448  32.851   1.265   3.317
29147SOL    HW289449  -0.243   1.310   3.460
29148SOL     OW89450   5.486   4.650  -0.470
29148SOL    HW189451  -5.571   4.579  32.710
29148SOL    HW289452  -5.638   4.666  21.566
29149SOL     OW89453   2.562   2.079   3.173
29149SOL    HW189454   2.595   2.162 -18.942
29149SOL    HW289455   2.503  -8.934   3.244
29150SOL     OW89456   3.350   1.156  10.874
29150SOL    HW189457   3.437  34.307  -0.189
29150SOL    HW289458  -7.675   1.098  -0.091
29151SOL     OW89459   2.573   8.326   3.934
29151SOL    HW189460  24.744   8.343   3.957
29151SOL    HW289461   2.535   8.413   3.925
29152SOL     OW89462   2.429   4.058   7.371
29152SOL    HW189463   2.521   4.085   7.374
29152SOL    HW289464  24.459   4.139 -14.720
29153SOL     OW89465   4.084   9.168   6.191
29153SOL    HW189466   4.090  -1.893   6.284
29153SOL    HW289467   4.095   9.263   6.188
29154SOL     OW89468   4.562  11.398   6.211
29154SOL    HW189469   4.538  11.318   6.258
29154SOL    HW289470   4.623   0.330   6.143
29155SOL     OW89471   6.519   4.021   3.531
29155SOL    HW189472 -15.647  15.035   3.564
29155SOL    HW289473   6.523  15.155   3.545
29156SOL     OW89474   1.363   9.370   5.355
29156SOL    HW189475   1.322   9.354  -5.600
29156SOL    HW289476   1.299   9.339   5.291
29157SOL     OW89477   4.669   0.118   4.673
29157SOL    HW189478   4.631   0.183   4.613
29157SOL    HW289479   4.701   0.049   4.615
29158SOL     OW89480   1.357  10.942   0.295
29158SOL    HW189481   1.452 -11.148   0.302
29158SOL    HW289482  12.381  10.957   0.202
29159SOL     OW89483  -0.580   3.955   1.088
29159SOL    HW189484  21.545  -7.121   1.013
29159SOL    HW289485  -0.671   3.925   1.078
29160SOL     OW89486   1.447   7.878   8.434
29160SOL    HW189487   1.519   7.832   8.391
29160SOL    HW289488  12.421   7.811   8.451
29161SOL     OW89489   9.994   4.901   2.064
29161SOL    HW189490  10.069  15.914  24.090
29161SOL    HW289491  10.003   4.995   2.074
29162SOL     OW89492   8.767   8.517   9.567
29162SOL    HW189493   8.751   8.593  -1.415
29162SOL    HW289494   8.809  30.633  -1.550
29163SOL     OW89495   9.572   9.986   1.540
29163SOL    HW189496   9.583   9.921   1.610
29163SOL    HW289497  20.668 -12.021   1.566
29164SOL     OW89498   5.599   5.377   9.365
29164SOL    HW189499   5.628   5.400   9.276
29164SOL    HW289500   5.548  27.531   9.394
29165SOL     OW89501   0.005   8.672   0.769
29165SOL    HW189502   0.033   8.589  11.847
29165SOL    HW289503  -0.086   8.682   0.798
29166SOL     OW89504   4.213   2.704   2.974
29166SOL    HW189505   4.247   2.791   2.995
29166SOL    HW289506  15.165  13.741   3.013
29167SOL     OW89507   8.644   6.576   6.626
29167SOL    HW189508   8.558   6.540   6.649
29167SOL    HW289509   8.650   6.565  17.571
29168SOL     OW89510  -0.572   1.613   2.768
29168SOL    HW189511  -0.565 -20.552  13.765
29168SOL    HW289512  10.558   1.642   2.779
29169SOL     OW89513   7.808  11.993   4.575
29169SOL    HW189514   7.887  12.047  -6.468
29169SOL    HW289515   7.829 -10.163   4.521
29170SOL     OW89516   9.393   4.459   8.414
29170SOL    HW189517   9.375   4.368   8.437
29170SOL    HW289518   9.475   4.455  -2.674
29171SOL     OW89519   8.363   8.154   7.441
29171SOL    HW189520  -2.677 -25.032   7.509
29171SOL    HW289521   8.289   8.210   7.463
29172SOL     OW89522   3.474   4.207   1.863
29172SOL    HW189523   3.451   4.244   1.778
29172SOL    HW289524   3.398   4.153   1.887
29173SOL     OW89525  -0.183   5.519   5.358
29173SOL    HW189526  10.886   5.608  16.378
29173SOL    HW289527  -0.108   5.464   5.335
29174SOL     OW89528   5.173   2.241   3.611
29174SOL    HW189529  16.171  13.301  25.774
29174SOL    HW289530  16.142  13.285  25.626
29175SOL     OW89531   8.397   2.739   5.256
29175SOL    HW189532   8.305   2.730   5.232
29175SOL    HW289533  -2.641   2.723  27.429
29176SOL     OW89534   7.365   3.034   5.539
29176SOL    HW189535   7.374   3.042   5.634
29176SOL    HW289536  18.418   3.123  16.546
29177SOL     OW89537   0.162   0.650   5.228
29177SOL    HW189538  11.223  44.743   5.161
29177SOL    HW289539   0.068 -21.415 -16.859
29178SOL     OW89540   5.476   1.878  10.366
29178SOL    HW189541   5.419   1.810  10.330
29178SOL    HW289542   5.441   1.960  10.330
29179SOL     OW89543   9.786   1.280   9.782
29179SOL    HW189544   9.814   1.216   9.716
29179SOL    HW289545   9.849   1.352   9.774
29180SOL     OW89546   4.370   1.506   0.623
29180SOL    HW189547   4.401   1.543   0.706
29180SOL    HW289548   4.304   1.442   0.649
29181SOL     OW89549  10.886   0.933  12.549
29181SOL    HW189550  10.827   0.990 -20.617
29181SOL    HW289551  10.886   0.851  12.499
29182SOL     OW89552   8.745   7.758   3.447
29182SOL    HW189553   8.792   7.684   3.408
29182SOL    HW289554  30.743   7.720  14.521
29183SOL     OW89555   2.986   9.693   4.050
29183SOL    HW189556   3.015 -12.310   4.100
29183SOL    HW289557   2.960 -12.450 -17.963
29184SOL     OW89558   1.870   3.075   7.095
29184SOL    HW189559   1.785   3.114   7.113
29184SOL    HW289560  12.896   3.023   7.016
29185SOL     OW89561   4.301   8.057   7.114
29185SOL    HW189562  -6.727  -3.007   7.206
29185SOL    HW289563 -17.870  19.121   7.107
29186SOL     OW89564   0.997   4.150   5.312
29186SOL    HW189565  11.995  15.106  16.329
29186SOL    HW289566   1.007   4.146   5.407
29187SOL     OW89567   6.319   2.326   2.625
29187SOL    HW189568  -4.666  13.442   2.643
29187SOL    HW289569  -4.659  13.297   2.599
29188SOL     OW89570   8.824   1.474   8.560
29188SOL    HW189571   8.917   1.496  -2.470
29188SOL    HW289572  -2.260   1.530   8.624
29189SOL     OW89573   5.062  10.247   2.353
29189SOL    HW189574  -5.896  21.292   2.403
29189SOL    HW289575   5.076  10.305  13.317
29190SOL     OW89576  10.400   0.101   3.423
29190SOL    HW189577  10.454   0.089  14.541
29190SOL    HW289578  10.437   0.039   3.360
29191SOL     OW89579   2.860  10.784  -0.351
29191SOL    HW189580  13.962  10.712  -0.345
29191SOL    HW289581   2.908  10.860  10.724
29192SOL     OW89582  -1.011   6.524  -0.104
29192SOL    HW189583  21.102  50.766  -0.073
29192SOL    HW289584  -1.007  39.585  11.012
29193SOL     OW89585   0.844   7.751   7.983
29193SOL    HW189586   0.851   7.677   8.042
29193SOL    HW289587   0.906  18.855   8.017
29194SOL     OW89588  10.317   7.355  10.038
29194SOL    HW189589  10.252 -25.728  -0.941
29194SOL    HW289590  10.266  -3.736  21.015
29195SOL     OW89591   0.603   6.953   6.489
29195SOL    HW189592   0.509   6.944   6.505
29195SOL    HW289593   0.635   7.004  28.643
29196SOL     OW89594   3.369   7.704   5.220
29196SOL    HW189595 -29.667   7.751   5.211
29196SOL    HW289596   3.393  18.651   5.212
29197SOL     OW89597   1.114   6.944   3.915
29197SOL    HW189598  34.264  18.063   3.872
29197SOL    HW289599   1.032  17.963   3.870
29198SOL     OW89600   9.136   3.386   0.915
29198SOL    HW189601  -1.950   3.354  22.917
29198SOL    HW289602   9.173  -7.733  23.034
29199SOL     OW89603   0.453   0.533   1.512
29199SOL    HW189604  11.502   0.456  -9.585
29199SOL    HW289605   0.359   0.552  -9.529
29200SOL     OW89606   0.282   8.111   3.903
29200SOL    HW189607   0.348   8.131   3.970
29200SOL    HW289608   0.272  -2.847   3.854
29201SOL     OW89609   7.467   5.971   7.168
29201SOL    HW189610   7.453   5.940   7.078
29201SOL    HW289611   7.380   5.969  18.247
29202SOL     OW89612   5.171   1.648   4.243
29202SOL    HW189613   5.211   1.620  -6.714
29202SOL    HW289614  27.300   1.725 -17.862
29203SOL     OW89615   7.401   1.643   4.114
29203SOL    HW189616  -3.608  45.711   4.113
29203SOL    HW289617   7.481   1.695 -28.999
29204SOL     OW89618   1.724   2.478   0.875
29204SOL    HW189619   1.732   2.394   0.920
29204SOL    HW289620   1.772   2.466   0.792
29205SOL     OW89621   6.314   8.632   3.597
29205SOL    HW189622  -4.747   8.717   3.635
29205SOL    HW289623  28.377  19.609   3.667
29206SOL     OW89624   8.322   6.293   3.252
29206SOL    HW189625   8.237   6.311  36.328
29206SOL    HW289626   8.333   6.364   3.315
29207SOL     OW89627  10.624   2.021   8.686
29207SOL    HW189628  21.571  13.043   8.703
29207SOL    HW289629  -0.399  24.062   8.600
29208SOL     OW89630   4.726   5.685   3.129
29208SOL    HW189631   4.781  38.734   3.166
29208SOL    HW289632  -6.275  27.845   3.163
29209SOL     OW89633   8.939  10.339   2.868
29209SOL    HW189634  -2.112  10.429   2.838
29209SOL    HW289635 -24.085  -0.713   2.872
29210SOL     OW89636   6.342   9.036  10.031
29210SOL    HW189637  28.442   9.040  10.125
29210SOL    HW289638   6.250  -1.978  10.026
29211SOL     OW89639   4.400   3.520   5.884
29211SOL    HW189640   4.459  -7.515   5.809
29211SOL    HW289641   4.402   3.427   5.909
29212SOL     OW89642  10.379   5.070   4.830
29212SOL    HW189643  10.341   5.049   4.744
29212SOL    HW289644  10.473   5.062  37.936
29213SOL     OW89645   3.689   2.541   5.061
29213SOL    HW189646   3.674 -19.520   4.968
29213SOL    HW289647   3.605  -8.477   5.103
29214SOL     OW89648   4.635   8.713   8.047
29214SOL    HW189649   4.727   8.730   8.070
29214SOL    HW289650   4.639  -2.391   7.976
29215SOL     OW89651   3.764   8.444   3.192
29215SOL    HW189652   3.846   8.474  14.270
29215SOL    HW289653   3.762  19.390 -18.870
29216SOL     OW89654   9.354   2.648   3.599
29216SOL    HW189655   9.380  13.631   3.526
29216SOL    HW289656   9.392 -19.345  -7.462
29217SOL     OW89657   6.760   6.281   1.999
29217SOL    HW189658  17.709   6.258   1.977
29217SOL    HW289659   6.753  -4.706  35.197
29218SOL     OW89660   3.090   0.748   2.549
29218SOL    HW189661   3.060   0.833  13.623
29218SOL    HW289662   3.062   0.685  24.694
29219SOL     OW89663   0.613   5.450   4.181
29219SOL    HW189664  11.714  -5.575  -6.787
29219SOL    HW289665  33.662   5.396 -17.861
29220SOL     OW89666   9.303  10.044   3.027
29220SOL    HW189667   9.250  32.203  -8.018
29220SOL    HW289668   9.266 -12.092  14.000
29221SOL     OW89669   1.280  11.920   3.128
29221SOL    HW189670  23.268 -10.133   3.116
29221SOL    HW289671   1.309  11.968   3.206
29222SOL     OW89672   9.244   4.474   5.510
29222SOL    HW189673   9.261  26.647   5.514
29222SOL    HW289674   9.179  15.498 -16.501
29223SOL     OW89675   8.298   6.775   5.659
29223SOL    HW189676   8.251  17.876  16.643
29223SOL    HW289677   8.230   6.719   5.696
29224SOL     OW89678   1.932  10.350   4.983
29224SOL    HW189679  -9.179  -0.673   5.045
29224SOL    HW289680   1.888 -22.790   4.901
29225SOL     OW89681  10.558   2.569   3.489
29225SOL    HW189682 -22.493   2.504  -7.536
29225SOL    HW289683  10.599  -8.387   3.513
29226SOL     OW89684   2.377   9.511   4.351
29226SOL    HW189685  13.483  31.624  15.331
29226SOL    HW289686  -8.721   9.585  15.406
29227SOL     OW89687   9.599   9.023   6.204
29227SOL    HW189688   9.659  -2.062   6.262
29227SOL    HW289689   9.514   8.982   6.219
29228SOL     OW89690   2.181   4.993   0.693
29228SOL    HW189691   2.184 -17.003   0.645
29228SOL    HW289692  13.127   4.975   0.704
29229SOL     OW89693   1.346   7.267   2.445
29229SOL    HW189694   1.381   7.186   2.483
29229SOL    HW289695   1.303   7.311   2.519
29230SOL     OW89696   8.535   1.676   9.928
29230SOL    HW189697   8.498   1.627  21.040
29230SOL    HW289698   8.563  -9.281   9.966
29231SOL     OW89699   2.672   9.007   8.269
29231SOL    HW189700   2.651   8.940  19.374
29231SOL    HW289701   2.720   8.959  19.240
29232SOL     OW89702  -0.093   7.303   1.463
29232SOL    HW189703  10.882  18.297  -9.522
29232SOL    HW289704  21.989   7.392   1.498
29233SOL     OW89705   2.728  10.338  11.564
29233SOL    HW189706  24.822  10.329   0.618
29233SOL    HW289707   2.740  -0.790  11.529
29234SOL     OW89708   2.772  10.515   8.442
29234SOL    HW189709   2.730  10.597   8.415
29234SOL    HW289710   2.705  10.470   8.494
29235SOL     OW89711   2.404   6.220  12.300
29235SOL    HW189712  35.447   6.165   1.237
29235SOL    HW289713   2.386  -4.735  -9.821
29236SOL     OW89714   7.639   7.318   6.994
29236SOL    HW189715   7.662  -3.787   6.927
29236SOL    HW289716   7.672  -3.639   6.958
29237SOL     OW89717  10.558   6.147   2.832
29237SOL    HW189718  -0.392  28.208   2.861
29237SOL    HW289719  10.506   6.144   2.912
29238SOL     OW89720  10.628   9.691   3.697
29238SOL    HW189721  10.552   9.746   3.718
29238SOL    HW289722  10.606   9.651  -7.427
29239SOL     OW89723   1.881   4.009   5.386
29239SOL    HW189724   1.862   4.016   5.293
29239SOL    HW289725  -9.069   3.975   5.390
29240SOL     OW89726   0.744  10.583   0.768
29240SOL    HW189727   0.837  10.575   0.745
29240SOL    HW289728   0.711  10.494   0.766
29241SOL     OW89729   6.618   2.206   3.289
29241SOL    HW189730  17.610   2.187  14.248
29241SOL    HW289731   6.569 -19.918   3.358
29242SOL     OW89732   2.789   9.168   6.933
29242SOL    HW189733   2.736 -12.957   6.868
29242SOL    HW289734   2.744   9.153   7.016
29243SOL     OW89735  10.841   7.174   2.896
29243SOL    HW189736  10.807   7.123  14.010
29243SOL    HW289737  10.848   7.263   2.930
29244SOL     OW89738   2.679   5.660   9.654
29244SOL    HW189739   2.632   5.744   9.654
29244SOL    HW289740   2.655   5.618   9.736
29245SOL     OW89741  -0.396   6.065   4.796
29245SOL    HW189742  21.640  -4.979  15.921
29245SOL    HW289743  10.591   6.009   4.740
29246SOL     OW89744   5.847   1.912   5.627
29246SOL    HW189745   5.806   1.827   5.644
29246SOL    HW289746  -5.225  35.088   5.696
29247SOL     OW89747   5.781   2.426   4.715
29247SOL    HW189748  -5.186   2.488   4.709
29247SOL    HW289749  -5.216   2.341 -17.354
29248SOL     OW89750   4.132   1.108   9.379
29248SOL    HW189751  15.091   1.160  20.422
29248SOL    HW289752   4.170   1.118   9.466
29249SOL     OW89753   9.827   2.183   6.672
29249SOL    HW189754   9.815   2.220   6.585
29249SOL    HW289755   9.920  -8.878  -4.363
29250SOL     OW89756   8.974   9.011   6.252
29250SOL    HW189757   8.974   9.094  -4.834
29250SOL    HW289758   8.974   8.945  -4.857
29251SOL     OW89759   5.791   7.402   7.457
29251SOL    HW189760  -5.270 -14.719   7.373
29251SOL    HW289761  16.812  -3.704  29.602
29252SOL     OW89762   1.973   8.476   1.427
29252SOL    HW189763  12.920   8.466  23.482
29252SOL    HW289764   2.016   8.401  23.467
29253SOL     OW89765   6.125   3.423   2.262
29253SOL    HW189766   6.186   3.446 -19.747
29253SOL    HW289767   6.058  14.531   2.266
29254SOL     OW89768   8.104   5.721   2.473
29254SOL    HW189769   8.101   5.794  13.574
29254SOL    HW289770   8.101  16.682   2.529
29255SOL     OW89771   3.430   7.415   7.375
29255SOL    HW189772  -7.565  -3.604  18.496
29255SOL    HW289773   3.500 -14.668   7.309
29256SOL     OW89774   0.924   0.215   8.076
29256SOL    HW189775   0.860   0.182   8.139
29256SOL    HW289776   0.998  22.234   8.084
29257SOL     OW89777   9.874   8.293   8.768
29257SOL    HW189778   9.960  19.345   8.729
29257SOL    HW289779   9.841   8.212  -2.311
29258SOL     OW89780   8.832  10.112   3.740
29258SOL    HW189781   8.756  10.071  -7.341
29258SOL    HW289782   8.836  10.070   3.826
29259SOL     OW89783   0.161   5.507   1.258
29259SOL    HW189784   0.073   5.520   1.223
29259SOL    HW289785   0.218 -16.566  34.300
29260SOL     OW89786  -1.321   2.291   1.799
29260SOL    HW189787   9.699   2.201   1.826
29260SOL    HW289788  20.674   2.335   1.799
29261SOL     OW89789   6.822   1.217   5.102
29261SOL    HW189790  -4.136   1.266   5.092
29261SOL    HW289791   6.753   1.284   5.102
29262SOL     OW89792   1.351   4.500   1.866
29262SOL    HW189793   1.384   4.445   1.936
29262SOL    HW289794   1.400   4.474 -31.330
29263SOL     OW89795   9.601   3.411   5.566
29263SOL    HW189796 -23.458   3.358   5.514
29263SOL    HW289797   9.657   3.474   5.611
29264SOL     OW89798   3.216   8.611   5.161
29264SOL    HW189799   3.215   8.640   5.070
29264SOL    HW289800   3.263   8.528   5.160
29265SOL     OW89801   1.785   8.613   3.731
29265SOL    HW189802   1.716   8.576   3.675
29265SOL    HW289803   1.814   8.540   3.785
29266SOL     OW89804   3.825   1.359   5.106
29266SOL    HW189805  -7.269   1.406   5.044
29266SOL    HW289806  -7.125   1.366   5.072
29267SOL     OW89807   1.618   1.141   6.161
29267SOL    HW189808   1.594   1.051 -15.897
29267SOL    HW289809  12.628  -9.886   6.071
29268SOL     OW89810   2.217   5.777  12.078
29268SOL    HW189811   2.135 -16.281   1.083
29268SOL    HW289812   2.279   5.760 -32.010
29269SOL     OW89813   5.154   6.090   9.938
29269SOL    HW189814   5.200   6.017   9.977
29269SOL    HW289815   5.122   6.141  10.012
29270SOL     OW89816   6.501   3.749   6.800
29270SOL    HW189817  17.460  14.739   6.813
29270SOL    HW289818   6.529   3.773   6.888
29271SOL     OW89819   5.693   5.868   4.787
29271SOL    HW189820   5.698   5.952   4.741
29271SOL    HW289821  -5.296  -5.232   4.732
29272SOL     OW89822   4.358   3.618   1.807
29272SOL    HW189823   4.305  14.678   1.885
29272SOL    HW289824   4.315   3.542  12.808
29273SOL     OW89825   6.058   8.303   4.093
29273SOL    HW189826  17.189   8.291  -6.972
29273SOL    HW289827   6.007   8.277   4.016
29274SOL     OW89828   6.598  10.802   0.140
29274SOL    HW189829  -4.392 -11.351  33.223
29274SOL    HW289830 -15.504  10.854   0.063
29275SOL     OW89831   1.353   8.714   5.773
29275SOL    HW189832   1.291   8.731   5.845
29275SOL    HW289833  12.466   8.773   5.791
29276SOL     OW89834   3.672   1.225   0.418
29276SOL    HW189835   3.620   1.306  11.454
29276SOL    HW289836   3.619   1.161 -10.669
29277SOL     OW89837   5.073   1.943  10.966
29277SOL    HW189838  16.155  12.919  11.024
29277SOL    HW289839   5.048   2.015  11.024
29278SOL     OW89840   9.004   4.442   1.037
29278SOL    HW189841   8.970   4.512   1.092
29278SOL    HW289842   8.955   4.450   0.955
29279SOL     OW89843   9.135   7.662   7.962
29279SOL    HW189844   9.109 -14.439  29.952
29279SOL    HW289845   9.073   7.730   7.989
29280SOL     OW89846  10.519   2.529  10.080
29280SOL    HW189847  -0.579   2.494  10.013
29280SOL    HW289848  10.603  24.619  10.036
29281SOL     OW89849  10.621   9.378   2.167
29281SOL    HW189850  -0.406   9.463  -8.831
29281SOL    HW289851  10.666  -1.655  -8.957
29282SOL     OW89852   1.797   3.566  -0.298
29282SOL    HW189853  12.858   3.598  32.908
29282SOL    HW289854   1.847   3.622  -0.357
29283SOL     OW89855  -0.767  -0.416   2.007
29283SOL    HW189856  -0.676  -0.413  24.057
29283SOL    HW289857  32.354  21.612   2.088
29284SOL     OW89858   4.102  11.362   2.207
29284SOL    HW189859  15.113  11.310  24.211
29284SOL    HW289860   4.174   0.272   2.245
29285SOL     OW89861   5.901   3.823   0.920
29285SOL    HW189862   5.924   3.864   1.003
29285SOL    HW289863   5.812   3.854   0.901
29286SOL     OW89864   1.354   5.472   6.146
29286SOL    HW189865   1.287   5.531   6.180
29286SOL    HW289866  12.356 -16.694   6.156
29287SOL     OW89867   2.709   8.265   5.400
29287SOL    HW189868  -8.381   8.196   5.358
29287SOL    HW289869   2.768  -2.743   5.332
29288SOL     OW89870  10.101   0.206   9.916
29288SOL    HW189871  -0.915   0.228   9.825
29288SOL    HW289872  -0.926   0.288   9.964
29289SOL     OW89873   4.121   6.315   4.161
29289SOL    HW189874   4.127  28.324   4.226
29289SOL    HW289875   4.195   6.299  -6.937
29290SOL     OW89876  10.462   4.988   3.094
29290SOL    HW189877  10.534  16.067   3.143
29290SOL    HW289878  10.484   5.004  -8.038
29291SOL     OW89879   1.516   8.858   7.513
29291SOL    HW189880  -9.459   8.792   7.487
29291SOL    HW289881   1.463   8.814   7.580
29292SOL     OW89882   2.758   6.595   8.471
29292SOL    HW189883   2.761  17.727   8.446
29292SOL    HW289884   2.776   6.595   8.565
29293SOL     OW89885  10.080  10.183   7.773
29293SOL    HW189886  -1.028  10.123   7.743
29293SOL    HW289887  10.106  10.149   7.859
29294SOL     OW89888   0.054   2.818   5.455
29294SOL    HW189889   0.096  -8.257   5.376
29294SOL    HW289890   0.117  13.921 -16.590
29295SOL     OW89891   2.185   3.909   7.332
29295SOL    HW189892   2.144   3.963   7.399
29295SOL    HW289893   2.182  -7.077   7.252
29296SOL     OW89894   9.449   0.404   9.255
29296SOL    HW189895   9.535   0.369   9.230
29296SOL    HW289896  20.446   0.332   9.301
29297SOL     OW89897   0.662  -0.868   2.958
29297SOL    HW189898   0.596  21.279 -19.108
29297SOL    HW289899   0.726  -0.829   2.899
29298SOL     OW89900   8.603   7.722   3.881
29298SOL    HW189901  30.602   7.775 -29.243
29298SOL    HW289902   8.674 -14.294  -7.168
29299SOL     OW89903  -1.157   7.394   9.882
29299SOL    HW189904   9.911  18.514  -1.201
29299SOL    HW289905   9.960 -14.741  20.923
29300SOL     OW89906   4.862   4.361   5.233
29300SOL    HW189907   4.772 -17.719  16.307
29300SOL    HW289908   4.916   4.383   5.309
29301SOL     OW89909   3.567   8.692   8.561
29301SOL    HW189910   3.552  -2.432   8.519
29301SOL    HW289911  14.535   8.747   8.529
29302SOL     OW89912   5.168   1.093   3.680
29302SOL    HW189913  16.178   1.065  14.632
29302SOL    HW289914  -5.780   1.066   3.684
29303SOL     OW89915   6.223   7.113   9.987
29303SOL    HW189916   6.199   7.201  10.016
29303SOL    HW289917  28.268   7.055  21.095
29304SOL     OW89918   9.964   4.165   2.097
29304SOL    HW189919   9.931  15.265   2.031
29304SOL    HW289920  10.059   4.179  13.136
29305SOL     OW89921   6.999   9.484   6.113
29305SOL    HW189922   7.078   9.517   6.157
29305SOL    HW289923   6.965   9.560   6.065
29306SOL     OW89924   3.212   8.129   0.054
29306SOL    HW189925   3.258  -2.837  22.091
29306SOL    HW289926   3.119   8.148   0.041
29307SOL     OW89927   1.150   1.402   9.880
29307SOL    HW189928   1.235  12.484   9.870
29307SOL    HW289929   1.094   1.470   9.916
29308SOL     OW89930  11.211   3.242   3.852
29308SOL    HW189931  11.191   3.215   3.942
29308SOL    HW289932 -10.809   3.317  14.902
29309SOL     OW89933   4.628   5.735   9.118
29309SOL    HW189934   4.660   5.793   9.049
29309SOL    HW289935   4.546  16.815   9.147
29310SOL     OW89936  10.974   9.496  11.268
29310SOL    HW189937  10.985   9.587   0.201
29310SOL    HW289938  11.063   9.462   0.235
29311SOL     OW89939   2.964   0.921   1.112
29311SOL    HW189940  -8.155  23.041   1.146
29311SOL    HW289941   2.942   0.829   1.104
29312SOL     OW89942   3.171   4.422   2.019
29312SOL    HW189943 -18.821   4.419  13.019
29312SOL    HW289944   3.149   4.515 -20.059
29313SOL     OW89945   8.817   2.433   0.896
29313SOL    HW189946  19.761   2.431   0.900
29313SOL    HW289947   8.843  13.524   0.972
29314SOL     OW89948  11.016   9.102   9.847
29314SOL    HW189949  10.922  20.162  20.881
29314SOL    HW289950  11.057   9.184   9.871
29315SOL     OW89951   3.873   2.830  11.660
29315SOL    HW189952 -18.135   2.820 -10.482
29315SOL    HW289953   3.889   2.763  11.726
29316SOL     OW89954   3.669   8.563   7.526
29316SOL    HW189955   3.630   8.575 -36.719
29316SOL    HW289956   3.755   8.604   7.519
29317SOL     OW89957   8.929   1.293   4.605
29317SOL    HW189958  -2.075  -9.658  -6.427
29317SOL    HW289959  19.929  -9.749  -6.522
29318SOL     OW89960  10.518   8.209   4.707
29318SOL    HW189961  10.548   8.119   4.693
29318SOL    HW289962  10.534   8.253  37.742
29319SOL     OW89963   2.209   3.218  -0.238
29319SOL    HW189964   2.148   3.161  -0.190
29319SOL    HW289965 -19.920   3.248  21.765
29320SOL     OW89966   5.345   1.787   7.328
29320SOL    HW189967   5.397  -9.275  29.330
29320SOL    HW289968  -5.780   1.813   7.293
29321SOL     OW89969   4.390  10.945   4.476
29321SOL    HW189970   4.345  -0.050   4.404
29321SOL    HW289971 -17.749  10.953   4.551
29322SOL     OW89972   4.240   7.015   2.649
29322SOL    HW189973  -6.877   7.017   2.704
29322SOL    HW289974   4.243   6.926 -30.504
29323SOL     OW89975   1.954   9.887   8.516
29323SOL    HW189976  -9.136   9.917  -2.448
29323SOL    HW289977   2.038   9.858   8.553
29324SOL     OW89978   5.675   5.193   2.170
29324SOL    HW189979   5.767  -5.846   2.144
29324SOL    HW289980   5.657   5.102   2.193
29325SOL     OW89981   6.888   8.233  11.808
29325SOL    HW189982   6.919   8.323  11.811
29325SOL    HW289983   6.953  19.225 -10.323
29326SOL     OW89984  -1.045   9.471   3.698
29326SOL    HW189985  -1.094   9.549  -7.367
29326SOL    HW289986  21.114   9.504  -7.301
29327SOL     OW89987   8.999   0.199  10.685
29327SOL    HW189988   8.957   0.285  21.716
29327SOL    HW289989   8.965   0.164  -0.272
29328SOL     OW89990  11.254   2.480   9.496
29328SOL    HW189991  11.280   2.546  -1.608
29328SOL    HW289992   0.271   2.405   9.477
29329SOL     OW89993   8.042  -0.816  10.270
29329SOL    HW189994  19.175  21.274  10.251
29329SOL    HW289995  19.056  10.147  10.220
29330SOL     OW89996   3.266   6.910   3.295
29330SOL    HW189997 -40.986 -15.150   3.304
29330SOL    HW289998   3.274   6.874   3.206
29331SOL     OW89999   5.604   3.661   5.481
29331SOL    HW190000   5.632   3.618   5.401
29331SOL    HW290001   5.676   3.646   5.543
29332SOL     OW90002   9.286   6.699   6.245
29332SOL    HW190003   9.213   6.737  39.412
29332SOL    HW290004   9.360   6.758   6.262
29333SOL     OW90005   7.001   4.743   3.432
29333SOL    HW190006   7.065 -17.350  36.622
29333SOL    HW290007  18.093   4.740  14.392
29334SOL     OW90008   6.300   0.159   4.243
29334SOL    HW190009   6.355   0.129   4.170
29334SOL    HW290010   6.251   0.232   4.206
29335SOL     OW90011   6.755   0.591   9.006
29335SOL    HW190012   6.836   0.554   9.039
29335SOL    HW290013   6.730   0.534 -24.185
29336SOL     OW90014   2.010  10.361   1.659
29336SOL    HW190015   2.087  -0.720  -9.343
29336SOL    HW290016 -20.072  -0.591   1.698
29337SOL     OW90017  -1.042   1.562   2.073
29337SOL    HW190018  21.035  -9.471   1.978
29337SOL    HW290019  -1.115   1.616   2.103
29338SOL     OW90020  10.222   1.185   5.957
29338SOL    HW190021  10.290  12.157 -27.166
29338SOL    HW290022  -0.778   1.261   5.915
29339SOL     OW90023   6.118  10.006   8.204
29339SOL    HW190024   6.094  10.093   8.174
29339SOL    HW290025   6.185  -1.019   8.271
29340SOL     OW90026   6.004   9.389   2.549
29340SOL    HW190027  39.042   9.439   2.534
29340SOL    HW290028  17.017   9.298 -30.576
29341SOL     OW90029   5.370   2.747   5.091
29341SOL    HW190030 -16.765   2.823   5.076
29341SOL    HW290031   5.400  24.836   5.181
29342SOL     OW90032   5.593   2.805   8.291
29342SOL    HW190033  -5.492  13.867  19.412
29342SOL    HW290034 -49.564   2.887  19.303
29343SOL     OW90035   1.061   7.168   1.370
29343SOL    HW190036   1.065   7.245   1.314
29343SOL    HW290037   0.997   7.191   1.437
29344SOL     OW90038   1.807   8.986   8.985
29344SOL    HW190039   1.750 -24.089   9.049
29344SOL    HW290040   1.866   8.932   9.038
29345SOL     OW90041   3.798  10.450   6.972
29345SOL    HW190042   3.779  -0.548   6.887
29345SOL    HW290043  -7.325  10.410   6.997
29346SOL     OW90044   1.214   5.218   0.714
29346SOL    HW190045   1.206   5.179   0.627
29346SOL    HW290046   1.296  16.308  11.749
29347SOL     OW90047   9.381   1.664   8.062
29347SOL    HW190048   9.450   1.599   8.076
29347SOL    HW290049   9.309  12.674   8.118
29348SOL     OW90050  10.959   9.459   6.018
29348SOL    HW190051  10.895   9.407  17.009
29348SOL    HW290052  10.983  20.569  -5.082
29349SOL     OW90053  10.374   2.338   1.951
29349SOL    HW190054  10.416   2.400  13.051
29349SOL    HW290055  10.291  13.418   1.929
29350SOL     OW90056   3.177   7.937  -0.226
29350SOL    HW190057   3.242   7.869  -0.212
29350SOL    HW290058   3.226   8.019  10.818
29351SOL     OW90059   8.692   2.743  11.258
29351SOL    HW190060   8.663   2.822  11.214
29351SOL    HW290061   8.652   2.671   0.169
29352SOL     OW90062   4.155   2.909  -0.433
29352SOL    HW190063   4.218   2.958  10.659
29352SOL    HW290064   4.205   2.838  10.566
29353SOL     OW90065   1.943   2.904   0.384
29353SOL    HW190066   1.924  24.999   0.292
29353SOL    HW290067   2.027   2.948   0.400
29354SOL     OW90068   1.924   9.198  10.358
29354SOL    HW190069   1.896   9.267  10.419
29354SOL    HW290070   1.844   9.174  10.312
29355SOL     OW90071   7.993   3.905  11.532
29355SOL    HW190072  30.120 -18.254 -21.567
29355SOL    HW290073  30.075  -7.128  11.437
29356SOL     OW90074   8.578   9.021   4.390
29356SOL    HW190075  -2.476   9.070 -39.687
29356SOL    HW290076   8.543   8.934   4.408
29357SOL     OW90077   4.796   0.933   9.438
29357SOL    HW190078   4.874   0.979   9.408
29357SOL    HW290079  -6.316   0.981   9.399
29358SOL     OW90080   5.901   9.298   4.485
29358SOL    HW190081   5.886   9.207   4.511
29358SOL    HW290082   5.854  -1.689   4.551
29359SOL     OW90083   7.978   3.587  10.233
29359SOL    HW190084   7.979  14.642  10.327
29359SOL    HW290085   7.970  14.714 -11.885
29360SOL     OW90086   7.210   7.272   2.388
29360SOL    HW190087  40.245  -3.723  13.440
29360SOL    HW290088  18.264  29.302   2.469
29361SOL     OW90089   8.651   9.492   7.832
29361SOL    HW190090   8.729   9.475   7.778
29361SOL    HW290091  19.620   9.500  18.808
29362SOL     OW90092   7.847  10.810   3.228
29362SOL    HW190093   7.775  10.869  36.322
29362SOL    HW290094 -14.154  -0.189  14.228
29363SOL     OW90095   0.123   4.536   9.857
29363SOL    HW190096   0.169   4.497   9.932
29363SOL    HW290097   0.098 -17.456 -23.232
29364SOL     OW90098   2.972  10.171   8.998
29364SOL    HW190099  14.047  10.129   8.919
29364SOL    HW290100   2.896  10.221   8.966
29365SOL     OW90101   7.659   9.635  10.911
29365SOL    HW190102   7.616   9.550 -11.175
29365SOL    HW290103   7.605  -1.345  10.860
29366SOL     OW90104   3.825  -0.041   1.046
29366SOL    HW190105   3.823  10.916  23.174
29366SOL    HW290106  25.842  10.985   0.974
29367SOL     OW90107   7.221  10.396   7.224
29367SOL    HW190108   7.289  10.441   7.173
29367SOL    HW290109   7.261  10.384   7.311
29368SOL     OW90110   9.931   9.242   3.333
29368SOL    HW190111  -1.101   9.152  14.340
29368SOL    HW290112 -12.182   9.232   3.422
29369SOL     OW90113   5.940  10.983   9.713
29369SOL    HW190114   5.884  11.029   9.651
29369SOL    HW290115  16.921  10.919  -1.284
29370SOL     OW90116   5.931   3.231   0.300
29370SOL    HW190117   5.920   3.325   0.314
29370SOL    HW290118   5.845 -18.885   0.321
29371SOL     OW90119   2.094   2.083   2.068
29371SOL    HW190120  -8.872 -19.944 -31.082
29371SOL    HW290121   2.111   2.070   2.161
29372SOL     OW90122   0.740  10.608   1.937
29372SOL    HW190123   0.784 -11.540   1.886
29372SOL    HW290124   0.682  10.650  34.993
29373SOL     OW90125   5.621   4.447   8.768
29373SOL    HW190126   5.543  -6.625  -2.228
29373SOL    HW290127   5.672  26.447   8.748
29374SOL     OW90128   4.655   6.535   6.380
29374SOL    HW190129 -28.461   6.586  -4.741
29374SOL    HW290130   4.666  -4.595   6.352
29375SOL     OW90131   7.581   6.925   3.906
29375SOL    HW190132   7.536   6.850  -7.095
29375SOL    HW290133   7.640   6.955 -18.104
29376SOL     OW90134   0.827   4.142   7.647
29376SOL    HW190135  11.774  26.246   7.638
29376SOL    HW290136   0.853  15.153   7.559
29377SOL     OW90137   7.805   9.259   7.082
29377SOL    HW190138   7.891   9.231   7.050
29377SOL    HW290139   7.744   9.195   7.046
29378SOL     OW90140   6.648   5.730   0.069
29378SOL    HW190141   6.588   5.668  22.106
29378SOL    HW290142   6.634   5.716   0.163
29379SOL     OW90143   7.090   1.302   0.952
29379SOL    HW190144   7.029   1.375  11.979
29379SOL    HW290145   7.055  -9.808  11.937
29380SOL     OW90146   2.393   5.256   3.218
29380SOL    HW190147   2.300   5.263   3.242
29380SOL    HW290148   2.396   5.283   3.127
29381SOL     OW90149  -1.128   0.907  12.906
29381SOL    HW190150  31.993   0.815   1.838
29381SOL    HW290151  -1.203   0.944 -42.337
29382SOL     OW90152  10.526   1.754   1.557
29382SOL    HW190153  10.448   1.809   1.563
29382SOL    HW290154  10.584  -9.238  34.616
29383SOL     OW90155   5.553   3.658   4.257
29383SOL    HW190156   5.569   3.673  -6.690
29383SOL    HW290157  16.504   3.622   4.253
29384SOL     OW90158   2.698   7.745   0.613
29384SOL    HW190159   2.691  18.724   0.539
29384SOL    HW290160   2.784   7.786   0.602
29385SOL     OW90161   5.268   8.725   1.228
29385SOL    HW190162   5.258   8.782   1.151
29385SOL    HW290163   5.345   8.672  12.248
29386SOL     OW90164   9.164   2.041   2.644
29386SOL    HW190165   9.181  -9.003  13.777
29386SOL    HW290166  -1.953  -8.943  35.754
29387SOL     OW90167   4.488   7.362  10.244
29387SOL    HW190168  -6.480   7.398  10.296
29387SOL    HW290169   4.524 -14.725  10.155
29388SOL     OW90170   3.103   8.649   3.826
29388SOL    HW190171   3.135   8.711   3.761
29388SOL    HW290172   3.157  -2.374  -7.136
29389SOL     OW90173   5.008   7.444   8.020
29389SOL    HW190174   5.010   7.516   8.082
29389SOL    HW290175  16.070  -3.673   8.071
29390SOL     OW90176   3.043   2.818   0.099
29390SOL    HW190177   3.138   2.822   0.093
29390SOL    HW290178   3.012   2.892   0.047
29391SOL     OW90179   8.132   2.414   1.314
29391SOL    HW190180   8.043   2.418   1.350
29391SOL    HW290181  -2.917   2.445   1.224
29392SOL     OW90182   0.412   6.489   6.802
29392SOL    HW190183   0.507   6.493   6.815
29392SOL    HW290184   0.400   6.500  17.747
29393SOL     OW90185   7.120   1.868   6.542
29393SOL    HW190186   7.054   1.846 -15.472
29393SOL    HW290187   7.177 -20.288   6.538
29394SOL     OW90188   5.669   7.246  10.880
29394SOL    HW190189   5.719   7.173 -11.235
29394SOL    HW290190   5.700  29.333  -0.069
29395SOL     OW90191  10.348   6.273   3.751
29395SOL    HW190192  10.369   6.182   3.735
29395SOL    HW290193  10.373   6.287  14.882
29396SOL     OW90194   8.111  11.901   9.218
29396SOL    HW190195  30.098 -10.154   9.223
29396SOL    HW290196  30.235  11.979   9.186
29397SOL     OW90197   3.121   4.803   3.262
29397SOL    HW190198   3.068   4.725   3.274
29397SOL    HW290199  14.183   4.830   3.351
29398SOL     OW90200   8.480   9.410   9.137
29398SOL    HW190201   8.391   9.443  20.190
29398SOL    HW290202  30.573   9.417   9.042
29399SOL     OW90203   5.403   2.348   4.100
29399SOL    HW190204  27.570  13.422   4.085
29399SOL    HW290205   5.347  13.440   4.043
29400SOL     OW90206   3.781   6.384   5.461
29400SOL    HW190207   3.834  -4.659   5.541
29400SOL    HW290208   3.808   6.306   5.412
29401SOL     OW90209   9.226   7.404  -2.012
29401SOL    HW190210   9.208   7.383  31.199
29401SOL    HW290211   9.140   7.424   8.990
29402SOL     OW90212   8.518   7.581   9.131
29402SOL    HW190213   8.578   7.634   9.183
29402SOL    HW290214   8.458   7.645  20.131
29403SOL     OW90215  11.060  10.754   9.484
29403SOL    HW190216  -0.030  10.681   9.449
29403SOL    HW290217 -22.125  10.815   9.517
29404SOL     OW90218   8.173   0.075   9.016
29404SOL    HW190219   8.217   0.159  -2.016
29404SOL    HW290220  -2.862   0.036   9.103
29405SOL     OW90221   6.924   5.133   2.832
29405SOL    HW190222   6.847   5.079   2.814
29405SOL    HW290223   6.933   5.189   2.755
29406SOL     OW90224   8.132   6.070   1.986
29406SOL    HW190225   8.078  17.098  13.104
29406SOL    HW290226  41.339   6.046  -9.026
29407SOL     OW90227   2.251   4.358   9.979
29407SOL    HW190228   2.233   4.390  20.931
29407SOL    HW290229   2.205   4.419  10.037
29408SOL     OW90230   0.530   5.810   8.243
29408SOL    HW190231   0.502  27.933  -2.876
29408SOL    HW290232   0.477  38.969  -2.727
29409SOL     OW90233   2.781   7.427   5.710
29409SOL    HW190234   2.864   7.474   5.722
29409SOL    HW290235  -8.280   7.439  -5.422
29410SOL     OW90236  11.375   1.017   7.167
29410SOL    HW190237   0.355 -10.092   7.230
29410SOL    HW290238  11.392   1.098   7.214
29411SOL     OW90239   1.829   5.343   7.934
29411SOL    HW190240   1.862   5.433  18.980
29411SOL    HW290241   1.743   5.352  18.933
29412SOL     OW90242  10.974  11.425   3.948
29412SOL    HW190243  10.938   0.438   3.877
29412SOL    HW290244  10.993  11.340  -7.131
29413SOL     OW90245   3.020   9.370   8.830
29413SOL    HW190246   3.076  20.389 -35.253
29413SOL    HW290247   2.967   9.291 -13.260
29414SOL     OW90248   6.121  10.387   6.586
29414SOL    HW190249   6.157  10.404   6.499
29414SOL    HW290250   6.027  10.406  28.656
29415SOL     OW90251   1.056  12.201   1.422
29415SOL    HW190252  -9.928  -9.935  -9.670
29415SOL    HW290253  23.180  12.209   1.506
29416SOL     OW90254   5.992   5.736  10.110
29416SOL    HW190255   5.991   5.709  10.202
29416SOL    HW290256   6.063  -5.354  10.071
29417SOL     OW90257   7.618   8.683   0.586
29417SOL    HW190258   7.582  19.691   0.669
29417SOL    HW290259   7.710   8.658   0.588
29418SOL     OW90260   8.924   1.762   1.014
29418SOL    HW190261  42.118   1.809   1.050
29418SOL    HW290262   8.902  23.890   0.935
29419SOL     OW90263   7.781   9.160   5.808
29419SOL    HW190264   7.767   9.235   5.749
29419SOL    HW290265   7.783   9.084   5.750
29420SOL     OW90266   0.947   3.691   8.564
29420SOL    HW190267   0.989  -7.314   8.485
29420SOL    HW290268   0.870   3.746 -13.503
29421SOL     OW90269   8.087   4.832   6.021
29421SOL    HW190270  -2.884 -17.187   5.993
29421SOL    HW290271   8.133   4.752   6.044
29422SOL     OW90272   2.071   4.919   9.941
29422SOL    HW190273  -8.926   4.892  32.102
29422SOL    HW290274 -19.935  -6.100  -1.157
29423SOL     OW90275   1.063   3.021   9.501
29423SOL    HW190276   1.049 -30.120   9.409
29423SOL    HW290277   1.085   3.114   9.500
29424SOL     OW90278   6.151   4.044   2.798
29424SOL    HW190279 -15.903   4.132  13.810
29424SOL    HW290280 -15.892   4.034   2.886
29425SOL     OW90281   8.720   6.616   6.149
29425SOL    HW190282  19.760  -4.368   6.072
29425SOL    HW290283   8.766   6.536   6.122
29426SOL     OW90284   3.735   9.924   6.815
29426SOL    HW190285  14.814   9.862  -4.286
29426SOL    HW290286   3.699   9.993  -4.281
29427SOL     OW90287   7.875   4.466   8.628
29427SOL    HW190288 -14.266   4.399   8.599
29427SOL    HW290289   7.949   4.458   8.568
29428SOL     OW90290   0.774   1.637   9.667
29428SOL    HW190291   0.691   1.672  31.716
29428SOL    HW290292   0.751   1.582   9.741
29429SOL     OW90293   2.779   5.271   3.678
29429SOL    HW190294   2.761  -5.775   3.584
29429SOL    HW290295   2.874   5.279  14.723
29430SOL     OW90296   9.160   8.110   8.261
29430SOL    HW190297   9.068   8.138   8.270
29430SOL    HW290298   9.202  -2.857  19.254
29431SOL     OW90299   3.033  10.314   4.023
29431SOL    HW190300   3.021  10.409   4.018
29431SOL    HW290301 -30.036  10.292 -40.214
29432SOL     OW90302   3.914   9.271   2.820
29432SOL    HW190303   3.985  -1.800   2.875
29432SOL    HW290304   3.922   9.219 -19.340
29433SOL     OW90305   8.725  10.366   4.658
29433SOL    HW190306 -13.295  10.316   4.602
29433SOL    HW290307   8.782  10.406   4.723
29434SOL     OW90308   3.122   3.171   2.416
29434SOL    HW190309  14.155  58.277   2.443
29434SOL    HW290310   3.093   3.171   2.325
29435SOL     OW90311   9.040   2.560   1.528
29435SOL    HW190312   9.102  -8.551  -9.498
29435SOL    HW290313   9.074   2.632  -9.460
29436SOL     OW90314   6.979   5.696   9.119
29436SOL    HW190315   6.913   5.764 -12.942
29436SOL    HW290316   7.013  27.798  -2.007
29437SOL     OW90317  10.411   4.087   4.634
29437SOL    HW190318  21.488   4.109   4.719
29437SOL    HW290319  10.458  15.182   4.572
29438SOL     OW90320   8.699   5.163   1.748
29438SOL    HW190321   8.736   5.075  23.831
29438SOL    HW290322   8.765   5.219   1.789
29439SOL     OW90323   0.880   6.910   6.842
29439SOL    HW190324   0.870  -4.035   6.856
29439SOL    HW290325 -10.093   6.884  -4.134
29440SOL     OW90326   4.933   5.506   9.145
29440SOL    HW190327  16.041  27.611   9.206
29440SOL    HW290328  -6.151   5.587   9.122
29441SOL     OW90329   4.176   1.221   1.385
29441SOL    HW190330   4.233   1.251   1.314
29441SOL    HW290331   4.136  23.220   1.352
29442SOL     OW90332   3.706   1.982   7.169
29442SOL    HW190333  -7.298   2.024   7.248
29442SOL    HW290334   3.632   2.037   7.144
29443SOL     OW90335   3.403   7.691   8.194
29443SOL    HW190336   3.357   7.775   8.197
29443SOL    HW290337   3.389  18.698   8.106
29444SOL     OW90338   0.821   1.895   8.677
29444SOL    HW190339  11.807  23.898   8.697
29444SOL    HW290340   0.788   1.964  19.775
29445SOL     OW90341   5.921   3.343   8.860
29445SOL    HW190342   5.979   3.272   8.830
29445SOL    HW290343   5.958  14.410  -2.096
29446SOL     OW90344   9.576   7.851   7.487
29446SOL    HW190345   9.539  18.863  18.442
29446SOL    HW290346   9.628   7.928   7.466
29447SOL     OW90347   8.039   1.125   2.707
29447SOL    HW190348   7.973   1.193   2.692
29447SOL    HW290349  19.087   1.120   2.802
29448SOL     OW90350   0.261   8.556  10.384
29448SOL    HW190351 -10.691   8.591  10.370
29448SOL    HW290352  11.292   8.547  10.479
29449SOL     OW90353   0.871   2.607   4.851
29449SOL    HW190354   0.796   2.665   4.857
29449SOL    HW290355   0.897   2.590   4.941
29450SOL     OW90356   4.847   9.895   7.411
29450SOL    HW190357   4.890  20.982  29.562
29450SOL    HW290358   4.754   9.899   7.432
29451SOL     OW90359   5.225   8.551   2.419
29451SOL    HW190360   5.137  19.552  -8.622
29451SOL    HW290361   5.220   8.618  -8.552
29452SOL     OW90362   5.513   3.304   0.590
29452SOL    HW190363   5.590   3.346   0.629
29452SOL    HW290364   5.452   3.376   0.573
29453SOL     OW90365   9.822   0.559   9.262
29453SOL    HW190366   9.868   0.583  31.422
29453SOL    HW290367   9.828   0.638   9.207
29454SOL     OW90368   4.385  -0.450   1.321
29454SOL    HW190369   4.346  -0.386   1.380
29454SOL    HW290370  15.466  10.643 -20.826
29455SOL     OW90371   8.996   1.038   8.022
29455SOL    HW190372  -1.989   1.090   7.963
29455SOL    HW290373   8.981   1.096   8.097
29456SOL     OW90374   5.238  10.414  -0.041
29456SOL    HW190375   5.252  10.386   0.050
29456SOL    HW290376   5.238  10.332  10.949
29457SOL     OW90377   4.715   0.959   9.696
29457SOL    HW190378   4.657   1.035  -1.337
29457SOL    HW290379   4.719 -10.100   9.602
29458SOL     OW90380  10.227   6.746   0.650
29458SOL    HW190381  21.208   6.811  22.691
29458SOL    HW290382  10.202 -26.455  11.648
29459SOL     OW90383   2.557   7.312   4.458
29459SOL    HW190384  13.635  -3.808   4.423
29459SOL    HW290385   2.463   7.303   4.443
29460SOL     OW90386   7.659  11.922   7.150
29460SOL    HW190387   7.684 -32.144  -3.898
29460SOL    HW290388 -14.429  11.891   7.059
29461SOL     OW90389   1.838   6.714   9.574
29461SOL    HW190390   1.851   6.624   9.604
29461SOL    HW290391  12.797   6.711  31.601
29462SOL     OW90392   8.650   4.591   4.102
29462SOL    HW190393   8.634   4.656   4.034
29462SOL    HW290394   8.586  15.650   4.171
29463SOL     OW90395   3.275   4.137   8.829
29463SOL    HW190396  -7.801   4.194   8.897
29463SOL    HW290397   3.236  26.249   8.747
29464SOL     OW90398   3.174   0.173   6.943
29464SOL    HW190399   3.174   0.196   6.850
29464SOL    HW290400   3.263  11.180   6.960
29465SOL     OW90401  10.021   3.490   9.606
29465SOL    HW190402  10.110  -7.572   9.632
29465SOL    HW290403   9.975  14.446  -1.438
29466SOL     OW90404   2.557   3.712   8.504
29466SOL    HW190405   2.524  -7.272   8.574
29466SOL    HW290406  24.665   3.632   8.548
29467SOL     OW90407   3.473   5.463  10.718
29467SOL    HW190408  14.495  38.675  -0.335
29467SOL    HW290409  25.566   5.429  21.669
29468SOL     OW90410   9.780   9.310   3.906
29468SOL    HW190411   9.725   9.259   3.845
29468SOL    HW290412   9.743  31.478   3.902
29469SOL     OW90413   0.822   4.050   0.644
29469SOL    HW190414   0.867  -6.947   0.571
29469SOL    HW290415   0.840   3.957   0.633
29470SOL     OW90416   8.856   0.663   1.032
29470SOL    HW190417   8.824   0.753 -10.005
29470SOL    HW290418   8.881   0.644   1.122
29471SOL     OW90419   3.453   0.868   7.536
29471SOL    HW190420   3.429   0.861  40.562
29471SOL    HW290421  -7.493 -10.190   7.538
29472SOL     OW90422   4.737   5.560  10.790
29472SOL    HW190423   4.704  -5.483  10.880
29472SOL    HW290424  26.751   5.513  10.739
29473SOL     OW90425   1.192   4.955  10.188
29473SOL    HW190426  -9.851   5.027  32.331
29473SOL    HW290427   1.237   4.992  -0.927
29474SOL     OW90428   6.104   0.576   6.026
29474SOL    HW190429   6.130   0.658   6.069
29474SOL    HW290430   6.169   0.512   6.056
29475SOL     OW90431   3.268   7.623   3.755
29475SOL    HW190432   3.222  18.682   3.673
29475SOL    HW290433   3.340  -3.474   3.730
29476SOL     OW90434   8.622   0.854   4.463
29476SOL    HW190435   8.633   0.928   4.523
29476SOL    HW290436   8.529 -10.184   4.440
29477SOL     OW90437   5.267  11.130   7.625
29477SOL    HW190438   5.301  11.216   7.650
29477SOL    HW290439   5.312   0.029   7.683
29478SOL     OW90440  -1.417   1.801   5.670
29478SOL    HW190441  20.714   1.876   5.699
29478SOL    HW290442  20.724   1.747   5.620
29479SOL     OW90443   3.732   3.916   1.266
29479SOL    HW190444   3.675  -7.047   1.258
29479SOL    HW290445   3.811  -7.100   1.217
29480SOL     OW90446   1.298   3.602  10.937
29480SOL    HW190447  -9.835   3.592  10.954
29480SOL    HW290448   1.311   3.697  10.929
29481SOL     OW90449   9.279  10.076  10.814
29481SOL    HW190450   9.286   9.992  -0.180
29481SOL    HW290451  -1.784  10.138  -0.156
29482SOL     OW90452   6.452   3.942   8.138
29482SOL    HW190453  28.602   3.982 -13.891
29482SOL    HW290454  17.500   3.980   8.051
29483SOL     OW90455   6.127   3.093   4.277
29483SOL    HW190456   6.032  14.140   4.266
29483SOL    HW290457  17.202  25.209   4.196
29484SOL     OW90458   5.740   8.252   2.974
29484SOL    HW190459  -5.223   8.201   3.000
29484SOL    HW290460   5.712   8.213 -19.188
29485SOL     OW90461   6.834  10.153   4.047
29485SOL    HW190462   6.914  10.108  15.062
29485SOL    HW290463   6.863  10.239  15.118
29486SOL     OW90464   9.649   1.940   0.174
29486SOL    HW190465   9.622   2.030   0.194
29486SOL    HW290466   9.672  35.060   0.081
29487SOL     OW90467  10.501  11.346   3.197
29487SOL    HW190468  -0.511  11.272  25.330
29487SOL    HW290469  10.580   0.333  14.189
29488SOL     OW90470   2.488   4.680   9.042
29488SOL    HW190471   2.429   4.744   9.002
29488SOL    HW290472   2.438  -6.441  20.082
29489SOL     OW90473   1.892   5.488  10.897
29489SOL    HW190474  12.879   5.417  10.861
29489SOL    HW290475  12.961   5.456  10.982
29490SOL     OW90476   1.020   7.223   3.023
29490SOL    HW190477   0.939   7.173  25.094
29490SOL    HW290478   1.025   7.273   2.942
29491SOL     OW90479  -0.065   1.854  -0.285
29491SOL    HW190480  -0.158  -9.163  10.765
29491SOL    HW290481  11.020 -20.164  -0.228
29492SOL     OW90482   2.211   7.013  10.969
29492SOL    HW190483  24.383   7.036  10.968
29492SOL    HW290484   2.209   6.918  10.964
29493SOL     OW90485   1.421   0.367   4.996
29493SOL    HW190486   1.329  22.424   5.012
29493SOL    HW290487   1.417 -10.588  -6.088
29494SOL     OW90488   5.064   1.115   1.118
29494SOL    HW190489  16.017   1.111   1.077
29494SOL    HW290490   5.053   1.068   1.201
29495SOL     OW90491   8.202   9.345   4.215
29495SOL    HW190492 -24.873  20.414 -40.023
29495SOL    HW290493   8.116  20.354  15.225
29496SOL     OW90494   0.878   5.600   7.653
29496SOL    HW190495   0.949   5.560   7.703
29496SOL    HW290496  11.876  16.567   7.607
29497SOL     OW90497   6.250   6.338   8.989
29497SOL    HW190498   6.339   6.316  20.056
29497SOL    HW290499   6.194  -4.750  20.090
29498SOL     OW90500  11.635   3.840   8.850
29498SOL    HW190501  11.727  -7.215  19.910
29498SOL    HW290502 -10.454   3.935   8.853
29499SOL     OW90503   4.826   8.456   0.702
29499SOL    HW190504   4.913   8.479   0.732
29499SOL    HW290505  -6.201  19.419   0.646
29500SOL     OW90506   3.507   6.604   8.731
29500SOL    HW190507   3.571   6.654 -13.400
29500SOL    HW290508 -18.656  39.740  -2.351
29501SOL     OW90509  11.056   6.091  11.325
29501SOL    HW190510  11.012   6.035  11.259
29501SOL    HW290511  -0.032  -4.866   0.281
29502SOL     OW90512  10.072   6.510   4.327
29502SOL    HW190513  21.165  39.627   4.406
29502SOL    HW290514  10.041  28.499   4.316
29503SOL     OW90515  10.812   6.404   5.035
29503SOL    HW190516  10.785  -4.725   5.056
29503SOL    HW290517  10.763 -15.620   5.097
29504SOL     OW90518   8.684   8.145   1.415
29504SOL    HW190519   8.668  19.192   1.509
29504SOL    HW290520   8.636  19.106   1.389
29505SOL     OW90521   6.519   9.798   4.458
29505SOL    HW190522  50.654   9.709   4.434
29505SOL    HW290523  28.642   9.790   4.543
29506SOL     OW90524   5.103   6.505   3.290
29506SOL    HW190525 -16.985   6.462   3.376
29506SOL    HW290526   5.023   6.482  -7.796
29507SOL     OW90527   2.943   1.949   7.574
29507SOL    HW190528   2.893  12.909   7.560
29507SOL    HW290529   3.010   1.925   7.638
29508SOL     OW90530   4.031  10.345   7.078
29508SOL    HW190531  -7.091  10.364   7.033
29508SOL    HW290532 -18.026  21.296   7.049
29509SOL     OW90533   5.882   2.857   2.393
29509SOL    HW190534 -16.290  24.938   2.369
29509SOL    HW290535   5.883  13.860   2.481
29510SOL     OW90536  -0.549   7.395   6.331
29510SOL    HW190537  10.466   7.308   6.299
29510SOL    HW290538  10.409   7.433   6.363
29511SOL     OW90539   3.538   8.271   9.783
29511SOL    HW190540  -7.478  19.388  -1.207
29511SOL    HW290541 -18.491   8.200   9.824
29512SOL     OW90542   9.089   4.681   8.281
29512SOL    HW190543  -1.883   4.699  19.385
29512SOL    HW290544 -13.020  37.886   8.253
29513SOL     OW90545   9.219   3.811   3.403
29513SOL    HW190546   9.168  -7.258  14.518
29513SOL    HW290547   9.181   3.764   3.328
29514SOL     OW90548   3.299   2.848   1.485
29514SOL    HW190549   3.389  -8.204   1.458
29514SOL    HW290550   3.296   2.816  12.615
29515SOL     OW90551   5.495   4.700   9.787
29515SOL    HW190552   5.413   4.724   9.743
29515SOL    HW290553  -5.503   4.637   9.729
29516SOL     OW90554   2.507   3.560  10.762
29516SOL    HW190555  -8.450  36.680  -0.324
29516SOL    HW290556 -30.622  14.689  -0.244
29517SOL     OW90557   5.485   8.423   0.977
29517SOL    HW190558  -5.579   8.502 -10.111
29517SOL    HW290559   5.579   8.434   0.994
29518SOL     OW90560   9.350   4.140   8.183
29518SOL    HW190561   9.402  48.299   8.103
29518SOL    HW290562   9.415   4.150   8.253
29519SOL     OW90563   2.876   5.514   2.551
29519SOL    HW190564   2.832   5.449   2.496
29519SOL    HW290565   2.967   5.483   2.556
29520SOL     OW90566   3.353  11.008   7.708
29520SOL    HW190567 -29.822  11.033  -3.405
29520SOL    HW290568   3.438  10.988   7.667
29521SOL     OW90569   7.372  10.332   7.439
29521SOL    HW190570   7.342  10.254   7.392
29521SOL    HW290571  -3.590  10.303   7.487
29522SOL     OW90572  10.500   8.223   6.828
29522SOL    HW190573  10.595  19.276   6.830
29522SOL    HW290574  10.489   8.128   6.824
29523SOL     OW90575   9.188   7.017   5.129
29523SOL    HW190576  20.164   6.969   5.183
29523SOL    HW290577   9.265   7.025  -5.855
29524SOL     OW90578   8.994   6.888   1.802
29524SOL    HW190579 -13.048   6.885   1.713
29524SOL    HW290580   8.965   6.978  12.852
29525SOL     OW90581   8.891   3.180   4.171
29525SOL    HW190582   8.958   3.130   4.218
29525SOL    HW290583   8.878   3.132   4.089
29526SOL     OW90584   7.467   4.027  11.022
29526SOL    HW190585   7.449   3.933  11.021
29526SOL    HW290586  18.421  26.148  11.012
29527SOL     OW90587   1.430   7.276   8.586
29527SOL    HW190588  -9.567   7.272   8.671
29527SOL    HW290589   1.499  -3.789   8.524
29528SOL     OW90590   5.191   1.047   8.365
29528SOL    HW190591   5.177  -9.922   8.428
29528SOL    HW290592  16.172   0.977   8.393
29529SOL     OW90593   9.451   5.588   4.471
29529SOL    HW190594   9.469   5.591   4.377
29529SOL    HW290595   9.368   5.540   4.478
29530SOL     OW90596   9.779   0.504   2.579
29530SOL    HW190597   9.761  66.833 -19.480
29530SOL    HW290598   9.717   0.482  -8.530
29531SOL     OW90599  10.853   4.184   0.327
29531SOL    HW190600  10.918 -17.829   0.305
29531SOL    HW290601  10.781  -6.839  11.305
29532SOL     OW90602   9.667   7.123   1.107
29532SOL    HW190603  -1.359   7.029  12.132
29532SOL    HW290604   9.732   7.164  45.208
29533SOL     OW90605   6.412  11.567   6.071
29533SOL    HW190606 -15.712  11.484   6.090
29533SOL    HW290607   6.434   0.563   6.157
29534SOL     OW90608  11.046   9.424   6.892
29534SOL    HW190609  10.950  20.470   6.892
29534SOL    HW290610   0.035   9.485   6.960
29535SOL     OW90611   2.155   5.617   7.424
29535SOL    HW190612   2.151   5.527   7.394
29535SOL    HW290613   2.249   5.639  29.500
29536SOL     OW90614  10.111   3.984  10.352
29536SOL    HW190615  10.060   4.030  10.419
29536SOL    HW290616  -0.875  15.092  10.312
29537SOL     OW90617   4.191   3.307   4.071
29537SOL    HW190618   4.199   3.306  26.055
29537SOL    HW290619   4.161   3.395   4.093
29538SOL     OW90620   9.700   5.474   8.393
29538SOL    HW190621  20.793 -16.624   8.316
29538SOL    HW290622   9.728  -5.478   8.420
29539SOL     OW90623   9.488   5.321   5.509
29539SOL    HW190624  20.603   5.264   5.494
29539SOL    HW290625  -1.554   5.379   5.433
29540SOL     OW90626   3.450   0.132   6.463
29540SOL    HW190627  -7.513   0.165   6.510
29540SOL    HW290628 -18.703   0.182  28.577
29541SOL     OW90629   5.199   7.280   4.300
29541SOL    HW190630 -16.826  18.259   4.250
29541SOL    HW290631 -16.843   7.366  15.322
29542SOL     OW90632   1.875   8.224   3.025
29542SOL    HW190633   1.967   8.201   3.042
29542SOL    HW290634  23.920   8.150   2.976
29543SOL     OW90635   0.010   2.595   6.431
29543SOL    HW190636  55.240  35.631   6.468
29543SOL    HW290637 -11.016   2.659   6.500
29544SOL     OW90638  -0.004   8.510   8.320
29544SOL    HW190639  11.077   8.567   8.255
29544SOL    HW290640  11.108  -2.572   8.365
29545SOL     OW90641   2.915   7.677   4.067
29545SOL    HW190642   2.918  -3.365   4.163
29545SOL    HW290643  24.918 -14.456   4.044
29546SOL     OW90644   5.344   1.539   1.628
29546SOL    HW190645   5.295   1.564  12.589
29546SOL    HW290646  16.442  12.653   1.644
29547SOL     OW90647   6.654   8.412   5.200
29547SOL    HW190648   6.651   8.320  16.213
29547SOL    HW290649   6.690  19.450   5.288
29548SOL     OW90650  10.368  10.304   2.499
29548SOL    HW190651  10.428  10.341  13.474
29548SOL    HW290652  21.323  10.300   2.454
29549SOL     OW90653   0.844   0.368   6.523
29549SOL    HW190654   0.938   0.361   6.504
29549SOL    HW290655   0.820  11.494  17.531
29550SOL     OW90656   5.886   5.994   4.231
29550SOL    HW190657  16.960   5.906  15.285
29550SOL    HW290658  16.877   5.988  15.189
29551SOL     OW90659   0.277   9.852   9.055
29551SOL    HW190660   0.341   9.793   9.014
29551SOL    HW290661   0.267   9.924 -24.126
29552SOL     OW90662   1.914   2.339   2.746
29552SOL    HW190663   1.987  24.417   2.684
29552SOL    HW290664 -20.125   2.318  24.910
29553SOL     OW90665   8.687   3.651   3.555
29553SOL    HW190666  -2.304   3.733   3.546
29553SOL    HW290667   8.595   3.677   3.557
29554SOL     OW90668   7.676   8.863   3.613
29554SOL    HW190669  40.792  -2.271   3.627
29554SOL    HW290670   7.647  -2.139  14.736
29555SOL     OW90671   3.856   3.622   8.901
29555SOL    HW190672   3.808  -7.377 -13.250
29555SOL    HW290673   3.904   3.550   8.860
29556SOL     OW90674  11.376  -0.436   3.356
29556SOL    HW190675  11.412  10.563   3.435
29556SOL    HW290676 -10.650  -0.357   3.344
29557SOL     OW90677  10.622  11.022   4.542
29557SOL    HW190678  10.622  10.994   4.633
29557SOL    HW290679  10.660  11.109   4.543
29558SOL     OW90680  10.453   7.918   6.190
29558SOL    HW190681  10.542   7.892   6.213
29558SOL    HW290682  10.441   8.003   6.233
29559SOL     OW90683   0.876   3.417   2.036
29559SOL    HW190684  11.920  -7.557   1.967
29559SOL    HW290685   0.805  14.398   2.009
29560SOL     OW90686   4.710   9.643   6.691
29560SOL    HW190687  26.730   9.576   6.656
29560SOL    HW290688   4.703   9.716   6.629
29561SOL     OW90689  10.341   4.148  10.192
29561SOL    HW190690  10.415  26.223  10.254
29561SOL    HW290691  10.351   4.069  10.139
29562SOL     OW90692   3.389   7.429   1.673
29562SOL    HW190693  -7.690   7.505   1.631
29562SOL    HW290694  -7.648   7.452   1.766
29563SOL     OW90695   2.746   8.119   7.371
29563SOL    HW190696   2.650  41.246   7.370
29563SOL    HW290697  13.817   8.204   7.342
29564SOL     OW90698   6.632   1.840   1.577
29564SOL    HW190699   6.619   1.859  12.524
29564SOL    HW290700 -15.404   1.918  12.651
29565SOL     OW90701   5.698   2.874   7.535
29565SOL    HW190702   5.678   2.950   7.590
29565SOL    HW290703   5.622   2.817  18.584
29566SOL     OW90704   8.288   1.403   3.036
29566SOL    HW190705   8.286   1.382  14.169
29566SOL    HW290706   8.380   1.395  25.090
29567SOL     OW90707   8.394   7.272   8.835
29567SOL    HW190708   8.385  -3.773   8.740
29567SOL    HW290709 -13.746   7.340  19.901
29568SOL     OW90710   9.845  10.346   8.455
29568SOL    HW190711   9.776  -0.757   8.474
29568SOL    HW290712   9.877  21.360   8.369
29569SOL     OW90713   8.245   5.593   4.968
29569SOL    HW190714   8.191   5.622   5.042
29569SOL    HW290715   8.213  27.724   4.894
29570SOL     OW90716   8.757   7.396   7.396
29570SOL    HW190717   8.731 -14.737   7.470
29570SOL    HW290718   8.852 -14.691   7.393
29571SOL     OW90719   1.787   3.792   3.771
29571SOL    HW190720  -9.244   3.698  -7.256
29571SOL    HW290721   1.803  -7.234 -18.402
29572SOL     OW90722  10.900   8.118   3.313
29572SOL    HW190723  10.826 -13.900   3.319
29572SOL    HW290724  10.974   8.168   3.348
29573SOL     OW90725  10.211   1.408  -1.717
29573SOL    HW190726 -11.798  12.512  20.373
29573SOL    HW290727  32.308   1.366   9.238
29574SOL     OW90728   2.789   1.687   6.111
29574SOL    HW190729   2.862   1.731 -27.052
29574SOL    HW290730  24.905   1.606  -4.895
29575SOL     OW90731   4.197   9.791   2.114
29575SOL    HW190732   4.286   9.792   2.078
29575SOL    HW290733  -6.896   9.754  35.163
29576SOL     OW90734   9.327   0.468   2.580
29576SOL    HW190735   9.302   0.551   2.621
29576SOL    HW290736   9.244   0.426   2.558
29577SOL     OW90737   1.094   6.803   6.074
29577SOL    HW190738   1.144   6.881   6.101
29577SOL    HW290739  12.080  -4.207   6.001
29578SOL     OW90740   9.858   4.364   0.865
29578SOL    HW190741  20.947  15.327   0.834
29578SOL    HW290742   9.911   4.439   0.837
29579SOL     OW90743   7.820   0.325   3.131
29579SOL    HW190744   7.914   0.334   3.115
29579SOL    HW290745  -3.239   0.234 -18.970
29580SOL     OW90746   1.551   8.583   2.005
29580SOL    HW190747   1.549   8.671   1.967
29580SOL    HW290748   1.470   8.541   1.974
29581SOL     OW90749  10.438   3.810   3.724
29581SOL    HW190750  10.347  47.977   3.698
29581SOL    HW290751  10.484   3.876   3.671
29582SOL     OW90752   9.862   2.558   8.396
29582SOL    HW190753   9.917  -8.403  19.427
29582SOL    HW290754   9.874   2.530   8.486
29583SOL     OW90755   1.282   4.393   0.257
29583SOL    HW190756   1.204   4.447  22.326
29583SOL    HW290757   1.284   4.370   0.350
29584SOL     OW90758  10.674   4.574  11.450
29584SOL    HW190759  10.652   4.537  11.365
29584SOL    HW290760  10.765   4.602   0.402
29585SOL     OW90761   6.056  11.846   9.774
29585SOL    HW190762   5.970  11.886   9.760
29585SOL    HW290763  -4.921 -32.244  20.786
29586SOL     OW90764   6.899  11.433   2.733
29586SOL    HW190765   6.830  11.372   2.762
29586SOL    HW290766  -4.068 -10.703   2.709
29587SOL     OW90767   0.284  10.289   0.342
29587SOL    HW190768   0.268  10.306   0.434
29587SOL    HW290769   0.303  10.375   0.304
29588SOL     OW90770   7.898   1.394   6.155
29588SOL    HW190771  -3.055  34.551   6.173
29588SOL    HW290772   7.908  23.381 -26.939
29589SOL     OW90773   0.800   3.556   1.817
29589SOL    HW190774  11.777 -18.451   1.816
29589SOL    HW290775   0.873   3.587   1.764
29590SOL     OW90776   6.054   6.787   0.743
29590SOL    HW190777   6.104   6.706   0.727
29590SOL    HW290778   6.029   6.817 -10.384
29591SOL     OW90779  -0.501   0.638   0.168
29591SOL    HW190780  21.611   0.661   0.255
29591SOL    HW290781  -0.594   0.661   0.170
29592SOL     OW90782  10.799   5.384   2.603
29592SOL    HW190783  10.726   5.345   2.651
29592SOL    HW290784  10.877  27.427   2.645
29593SOL     OW90785   9.529   8.457   7.470
29593SOL    HW190786   9.553   8.438  18.419
29593SOL    HW290787   9.490   8.377  -3.537
29594SOL     OW90788   8.922   9.521   5.079
29594SOL    HW190789  -2.203   9.482   5.060
29594SOL    HW290790  -2.132   9.615  -5.965
29595SOL     OW90791   4.893   5.182   6.098
29595SOL    HW190792   4.894   5.194  28.272
29595SOL    HW290793  15.862   5.239   6.067
29596SOL     OW90794   6.324   7.398  10.516
29596SOL    HW190795   6.308   7.425  10.606
29596SOL    HW290796   6.283   7.311  -0.530
29597SOL     OW90797   6.808   5.144   3.146
29597SOL    HW190798   6.852   5.126   3.063
29597SOL    HW290799   6.879   5.161  36.327
29598SOL     OW90800   1.568   5.181   6.969
29598SOL    HW190801  -9.446   5.133   7.048
29598SOL    HW290802  -9.525 -16.825   7.002
29599SOL     OW90803   9.594   3.160   5.026
29599SOL    HW190804  20.599   3.235   5.074
29599SOL    HW290805   9.559   3.084  16.112
29600SOL     OW90806  14.418   4.648   5.279
29600SOL    HW190807  -7.568  15.701  -5.776
29600SOL    HW290808 -29.782  15.767  16.286
29601SOL     OW90809   7.715  10.392   1.405
29601SOL    HW190810  29.835  10.326   1.460
29601SOL    HW290811   7.788  10.438   1.363
29602SOL     OW90812  10.361   5.368   3.117
29602SOL    HW190813  -0.724   5.310  14.219
29602SOL    HW290814  10.319   5.350   3.033
29603SOL     OW90815   0.699   3.650   1.391
29603SOL    HW190816   0.667   3.561  12.447
29603SOL    HW290817 -10.364  14.707  12.339
29604SOL     OW90818   3.778   5.619   5.919
29604SOL    HW190819   3.690 -16.430  27.975
29604SOL    HW290820   3.836  -5.354  16.924
29605SOL     OW90821   2.863   5.897   6.174
29605SOL    HW190822   2.921   5.913   6.099
29605SOL    HW290823 -30.219   5.821   6.218
29606SOL     OW90824   6.055   3.055  10.200
29606SOL    HW190825   6.109   3.065  10.122
29606SOL    HW290826   6.098  -7.930  21.306
29607SOL     OW90827   1.209   2.143  10.150
29607SOL    HW190828 -20.935   2.073  10.162
29607SOL    HW290829  34.394  13.166  10.217
29608SOL     OW90830   1.539   6.719   7.135
29608SOL    HW190831   1.479 -15.336   7.064
29608SOL    HW290832   1.488   6.732   7.215
29609SOL     OW90833   9.047   2.143   3.314
29609SOL    HW190834   9.085   2.209  -7.783
29609SOL    HW290835   9.094   2.153  14.436
29610SOL     OW90836   4.053   2.783   4.845
29610SOL    HW190837   4.058  13.815   4.749
29610SOL    HW290838  15.001   2.764  15.905
29611SOL     OW90839   9.043   0.733  -0.923
29611SOL    HW190840   9.032   0.828  32.191
29611SOL    HW290841   9.079 -10.322  -0.835
29612SOL     OW90842   8.506   4.139   3.697
29612SOL    HW190843   8.521   4.045   3.692
29612SOL    HW290844  19.614  -6.862  14.682
29613SOL     OW90845   7.582   9.798  11.279
29613SOL    HW190846   7.541   9.780  11.364
29613SOL    HW290847  -3.517  -1.180 -21.883
29614SOL     OW90848   4.373   8.108   5.750
29614SOL    HW190849   4.374   8.201   5.773
29614SOL    HW290850   4.311   8.069   5.811
29615SOL     OW90851   9.126   8.706  10.350
29615SOL    HW190852 -12.879   8.686  -0.747
29615SOL    HW290853   9.110   8.624 -11.682
29616SOL     OW90854   7.383   3.778   1.566
29616SOL    HW190855  18.376  25.930  -9.516
29616SOL    HW290856  18.462   3.730   1.494
29617SOL     OW90857   2.392   3.451   6.716
29617SOL    HW190858   2.361   3.494  -4.403
29617SOL    HW290859   2.395  -7.519   6.782
29618SOL     OW90860   4.024  -0.637   6.588
29618SOL    HW190861   4.097  -0.672 -15.543
29618SOL    HW290862   4.056  21.440 -15.401
29619SOL     OW90863   6.235   9.578   8.315
29619SOL    HW190864  -4.780   9.611   8.229
29619SOL    HW290865  -4.804   9.483  19.346
29620SOL     OW90866   1.758   0.694   6.168
29620SOL    HW190867   1.713   0.774   6.141
29620SOL    HW290868  12.732   0.625   6.156
29621SOL     OW90869   4.361  10.419   3.855
29621SOL    HW190870  26.348 -11.686   3.853
29621SOL    HW290871  15.416 -11.637   3.947
29622SOL     OW90872  12.985   3.284   6.803
29622SOL    HW190873 -31.176   3.342   6.728
29622SOL    HW290874  13.078  14.300  17.851
29623SOL     OW90875   1.957   9.572   4.457
29623SOL    HW190876   1.975   9.491   4.505
29623SOL    HW290877   1.890   9.616   4.508
29624SOL     OW90878   3.886   7.682   8.281
29624SOL    HW190879  15.009  -3.378   8.238
29624SOL    HW290880   3.872   7.609 -13.738
29625SOL     OW90881   4.489   4.762   0.473
29625SOL    HW190882  -6.606  15.729   0.500
29625SOL    HW290883   4.453  -6.202  22.599
29626SOL     OW90884  10.710   3.099   8.466
29626SOL    HW190885  10.618   3.122  -2.570
29626SOL    HW290886 -11.344  -7.953   8.558
29627SOL     OW90887   9.260   1.029  10.995
29627SOL    HW190888   9.197   1.068 -22.063
29627SOL    HW290889   9.294   0.952  11.041
29628SOL     OW90890   3.170   7.240   2.575
29628SOL    HW190891   3.209   7.297   2.510
29628SOL    HW290892   3.203  -3.887  24.634
29629SOL     OW90893   3.270   2.137  11.492
29629SOL    HW190894 -18.883   2.162  11.436
29629SOL    HW290895   3.313   2.066 -21.674
29630SOL     OW90896   2.318   2.809   2.184
29630SOL    HW190897   2.380   2.817   2.256
29630SOL    HW290898  24.369   2.717  24.265
29631SOL     OW90899   6.733   7.336   5.994
29631SOL    HW190900  -4.249   7.292   6.057
29631SOL    HW290901  28.865   7.406  -5.082
29632SOL     OW90902  11.068   8.855   9.378
29632SOL    HW190903   0.039   8.911   9.302
29632SOL    HW290904  10.986   8.885  20.458
29633SOL     OW90905   1.427   3.035   9.383
29633SOL    HW190906   1.392   3.078   9.305
29633SOL    HW290907   1.494  25.056  20.389
29634SOL     OW90908  -0.177   1.681  11.117
29634SOL    HW190909  10.956   1.666  11.133
29634SOL    HW290910  10.855   1.689  -0.017
29635SOL     OW90911   8.070   2.214   8.521
29635SOL    HW190912   8.086  13.256   8.427
29635SOL    HW290913  -3.058  24.330   8.531
29636SOL     OW90914   8.713  10.236   6.864
29636SOL    HW190915   8.685  10.287   6.940
29636SOL    HW290916   8.711  -0.742   6.791
29637SOL     OW90917   6.243   7.502   3.459
29637SOL    HW190918   6.228   7.596   3.454
29637SOL    HW290919   6.247   7.472   3.368
29638SOL     OW90920   5.904   8.960   5.054
29638SOL    HW190921   5.856  -2.064 -17.107
29638SOL    HW290922  16.938 -35.115  -5.939
29639SOL     OW90923   6.072  10.033   2.944
29639SOL    HW190924  17.174 -45.147  25.093
29639SOL    HW290925   5.999  -0.947   2.962
29640SOL     OW90926   3.438   9.044   2.644
29640SOL    HW190927   3.405   8.979   2.706
29640SOL    HW290928   3.375  -1.995  -8.467
29641SOL     OW90929   1.210   1.764   8.057
29641SOL    HW190930   1.285  34.879 -13.963
29641SOL    HW290931  12.268   1.698   7.990
29642SOL     OW90932   2.661   0.606   9.751
29642SOL    HW190933   2.633  11.598   9.830
29642SOL    HW290934   2.610   0.567   9.681
29643SOL     OW90935   2.525   3.936   3.279
29643SOL    HW190936   2.547 -18.174   3.367
29643SOL    HW290937   2.499  -7.012   3.292
29644SOL     OW90938   4.410   1.712   0.136
29644SOL    HW190939   4.363   1.739   0.056
29644SOL    HW290940   4.350   1.651   0.179
29645SOL     OW90941   8.824   0.699   6.400
29645SOL    HW190942  -2.179   0.748   6.474
29645SOL    HW290943   8.880   0.722   6.326
29646SOL     OW90944   4.311   8.802  10.338
29646SOL    HW190945   4.324  -2.152  10.378
29646SOL    HW290946  -6.647 -13.324  10.354
29647SOL     OW90947   4.580   9.110   2.915
29647SOL    HW190948   4.561  20.220   2.977
29647SOL    HW290949   4.567   9.151  24.908
29648SOL     OW90950   8.425   3.942   1.373
29648SOL    HW190951   8.394  -7.187   1.387
29648SOL    HW290952  19.554  14.971   1.339
29649SOL     OW90953   0.497   6.050  10.510
29649SOL    HW190954   0.549   6.130  10.501
29649SOL    HW290955   0.533   5.990  10.444
29650SOL     OW90956  10.351   4.010   2.457
29650SOL    HW190957  -0.608   4.051   2.490
29650SOL    HW290958  -0.740   4.083  13.463
29651SOL     OW90959   8.650   9.663   8.267
29651SOL    HW190960   8.560  -1.353   8.287
29651SOL    HW290961   8.655   9.661  -2.868
29652SOL     OW90962   5.021  10.505  11.365
29652SOL    HW190963  27.105  10.571  11.295
29652SOL    HW290964   5.019  10.556   0.406
29653SOL     OW90965  10.852   8.993   2.328
29653SOL    HW190966  10.818  -2.066   2.240
29653SOL    HW290967  -0.242 -13.013  -8.682
29654SOL     OW90968   6.083   1.347  10.986
29654SOL    HW190969   6.167   1.392  10.975
29654SOL    HW290970   6.056   1.366  11.075
29655SOL     OW90971  10.902   1.800   0.879
29655SOL    HW190972  10.956  12.768  11.885
29655SOL    HW290973  10.851   1.830   0.804
29656SOL     OW90974   6.186   5.797   1.789
29656SOL    HW190975 -15.988   5.800   1.797
29656SOL    HW290976   6.218   5.830   1.872
29657SOL     OW90977   4.464   5.063   0.056
29657SOL    HW190978   4.379  -5.947  22.167
29657SOL    HW290979   4.525   5.132   0.081
29658SOL     OW90980   4.350   9.575   4.396
29658SOL    HW190981   4.426   9.588   4.340
29658SOL    HW290982   4.379   9.599   4.483
29659SOL     OW90983  10.006   4.097   8.845
29659SOL    HW190984  10.078   4.037   8.863
29659SOL    HW290985  20.999   4.058   8.771
29660SOL     OW90986   6.816   4.079   6.133
29660SOL    HW190987  -4.270   4.026   6.068
29660SOL    HW290988  17.875  15.057 -15.875
29661SOL     OW90989   3.412   4.016   1.181
29661SOL    HW190990   3.415   3.926  -9.827
29661SOL    HW290991  -7.706   4.053   1.221
29662SOL     OW90992   9.611  10.370   0.668
29662SOL    HW190993  31.744  10.330  11.775
29662SOL    HW290994   9.584  10.454 -10.334
29663SOL     OW90995   9.267   5.377   5.672
29663SOL    HW190996   9.339   5.338  38.742
29663SOL    HW290997  -1.742   5.381   5.763
29664SOL     OW90998  11.766   9.167   4.648
29664SOL    HW190999  11.856  -1.895  -6.369
29664SOL    HW291000 -10.361  20.202 -17.348
29665SOL     OW91001   5.991   0.938   4.803
29665SOL    HW191002   6.085   0.921   4.800
29665SOL    HW291003  28.034 -10.173   4.856
29666SOL     OW91004   4.529   2.874   9.781
29666SOL    HW191005   4.468   2.947   9.789
29666SOL    HW291006  26.601   2.846   9.690
29667SOL     OW91007   2.045   2.137   0.186
29667SOL    HW191008   2.064   2.109   0.275
29667SOL    HW291009   2.118  13.234  11.202
29668SOL     OW91010   2.993   3.890   5.164
29668SOL    HW191011  -8.039   3.984 -38.978
29668SOL    HW291012   3.083  25.940   5.154
29669SOL     OW91013   7.189  10.958   5.339
29669SOL    HW191014  -3.935  -0.113   5.371
29669SOL    HW291015  -3.828  11.030   5.398
29670SOL     OW91016   3.019  10.662   9.716
29670SOL    HW191017  -7.980  10.737  20.712
29670SOL    HW291018   2.957  -0.338  20.817
29671SOL     OW91019   0.243   1.405   7.781
29671SOL    HW191020   0.159   1.366   7.755
29671SOL    HW291021  11.338   1.330  18.840
29672SOL     OW91022   9.894   3.437   5.115
29672SOL    HW191023  -1.065   3.406   5.156
29672SOL    HW291024 -12.201  14.414   5.044
29673SOL     OW91025   5.015   9.924   4.503
29673SOL    HW191026  27.170   9.932   4.560
29673SOL    HW291027  -5.992   9.945  15.455
29674SOL     OW91028   8.829   4.798  11.807
29674SOL    HW191029  19.935   4.865  11.820
29674SOL    HW291030   8.769   4.808 -10.198
29675SOL     OW91031   5.372   2.317   6.122
29675SOL    HW191032  -5.668   2.412   6.106
29675SOL    HW291033   5.410  -8.732   6.209
29676SOL     OW91034  10.918   7.871   6.758
29676SOL    HW191035  10.872  -3.249   6.734
29676SOL    HW291036  10.937   7.913  -4.366
29677SOL     OW91037   9.630  11.333   2.887
29677SOL    HW191038  -1.466  11.378  -8.090
29677SOL    HW291039   9.719 -10.729  13.958
29678SOL     OW91040   0.807   7.019   9.098
29678SOL    HW191041   0.804  18.108  -2.024
29678SOL    HW291042   0.732   7.050   9.148
29679SOL     OW91043   2.703   3.487   0.931
29679SOL    HW191044   2.758   3.512   1.006
29679SOL    HW291045 -41.392   3.463 -10.176
29680SOL     OW91046   4.429   2.794   4.799
29680SOL    HW191047 -17.583   2.856   4.827
29680SOL    HW291048   4.382   2.840   4.729
29681SOL     OW91049   6.657   6.333   1.427
29681SOL    HW191050   6.652  28.481 -31.757
29681SOL    HW291051   6.569   6.329  23.544
29682SOL     OW91052   8.753   3.143   3.507
29682SOL    HW191053  19.820   3.231  14.571
29682SOL    HW291054   8.827   3.087   3.532
29683SOL     OW91055   5.186   5.665   1.504
29683SOL    HW191056   5.265   5.660   1.557
29683SOL    HW291057  16.170   5.728  -9.489
29684SOL     OW91058   3.616   3.030  10.225
29684SOL    HW191059   3.650   2.951  10.267
29684SOL    HW291060   3.632  -7.940  10.288
29685SOL     OW91061   7.025   3.852   9.442
29685SOL    HW191062  29.059 -18.275   9.372
29685SOL    HW291063  51.209   3.784  20.543
29686SOL     OW91064   2.622   2.228   7.749
29686SOL    HW191065   2.656  13.204   7.686
29686SOL    HW291066   2.597   2.303 -14.384
29687SOL     OW91067   3.409  10.965   3.526
29687SOL    HW191068  36.604  10.915 -51.643
29687SOL    HW291069   3.337  10.930   3.578
29688SOL     OW91070   0.684   8.964   3.012
29688SOL    HW191071   0.682   9.059   3.023
29688SOL    HW291072  11.669  31.009   3.083
29689SOL     OW91073   2.831   8.927   2.979
29689SOL    HW191074 -19.191   8.997  25.026
29689SOL    HW291075   2.768   8.913  13.948
29690SOL     OW91076   9.365   4.980   9.832
29690SOL    HW191077   9.343   5.072   9.818
29690SOL    HW291078 -12.646   4.961   9.767
29691SOL     OW91079   1.673   7.388   8.192
29691SOL    HW191080   1.657  -3.720  30.206
29691SOL    HW291081   1.662   7.470   8.144
29692SOL     OW91082   9.466   3.233   5.780
29692SOL    HW191083   9.526  -7.732   5.781
29692SOL    HW291084  20.535   3.179   5.706
29693SOL     OW91085   2.703   0.279   9.396
29693SOL    HW191086   2.772   0.227  20.477
29693SOL    HW291087   2.737  11.339  20.348
29694SOL     OW91088   9.625  10.156   6.148
29694SOL    HW191089  20.726  10.110   6.092
29694SOL    HW291090  20.582  10.156   6.099
29695SOL     OW91091  10.426   6.062  -1.385
29695SOL    HW191092  10.510  17.070  -1.418
29695SOL    HW291093  10.375   5.983  53.829
29696SOL     OW91094   6.841   1.639  10.785
29696SOL    HW191095   6.861   1.557  10.740
29696SOL    HW291096   6.799   1.694  -0.321
29697SOL     OW91097   7.043   9.014   2.252
29697SOL    HW191098   7.083  -2.035  24.417
29697SOL    HW291099   6.949   9.017  13.309
29698SOL     OW91100   4.603  12.315   0.248
29698SOL    HW191101   4.532 -20.830  11.229
29698SOL    HW291102   4.621   1.366 -10.814
29699SOL     OW91103  11.136   8.435   2.983
29699SOL    HW191104   0.165   8.425  36.167
29699SOL    HW291105  11.180   8.475   2.908
29700SOL     OW91106   7.228   1.341   9.433
29700SOL    HW191107  -3.861  12.308   9.469
29700SOL    HW291108   7.162   1.407   9.412
29701SOL     OW91109   4.848   9.172   2.690
29701SOL    HW191110  -6.189   9.229   2.612
29701SOL    HW291111  26.844  20.232  -8.308
29702SOL     OW91112   0.449   1.214   4.960
29702SOL    HW191113   0.401   1.155  -6.136
29702SOL    HW291114   0.383   1.271  -6.040
29703SOL     OW91115   2.122   3.937   5.265
29703SOL    HW191116  35.270  26.094   5.218
29703SOL    HW291117  13.235  14.955   5.323
29704SOL     OW91118   0.756   9.396   4.052
29704SOL    HW191119  11.706   9.426  -7.001
29704SOL    HW291120   0.751   9.301   4.043
29705SOL     OW91121   4.418   2.921   8.327
29705SOL    HW191122   4.400   2.946   8.417
29705SOL    HW291123   4.341   2.871   8.300
29706SOL     OW91124   4.553  10.362   7.596
29706SOL    HW191125  -6.554  10.300   7.570
29706SOL    HW291126  -6.417  10.308   7.633
29707SOL     OW91127   2.514   6.723  10.863
29707SOL    HW191128  -8.618   6.742  10.875
29707SOL    HW291129   2.546  17.831  10.805
29708SOL     OW91130  -1.244   9.571   7.935
29708SOL    HW191131   9.780   9.478   7.952
29708SOL    HW291132  20.751   9.603  18.940
29709SOL     OW91133   0.099   5.017   7.886
29709SOL    HW191134   0.183 -17.017   7.896
29709SOL    HW291135   0.123  -6.114   7.870
29710SOL     OW91136   4.375   9.090   2.562
29710SOL    HW191137   4.373 -24.103   2.502
29710SOL    HW291138   4.325   9.062   2.638
29711SOL     OW91139   4.615   2.830   8.783
29711SOL    HW191140   4.582  13.870   8.873
29711SOL    HW291141   4.543  13.833  30.811
29712SOL     OW91142   3.605   7.500   4.061
29712SOL    HW191143   3.561   7.582   4.040
29712SOL    HW291144   3.601  18.488   3.980
29713SOL     OW91145   4.976   4.028   1.195
29713SOL    HW191146   4.902 -18.103   1.225
29713SOL    HW291147   4.975 -17.973   1.251
29714SOL     OW91148   6.243   3.275   5.746
29714SOL    HW191149   6.233   3.211  16.856
29714SOL    HW291150   6.227 -40.933  -5.374
29715SOL     OW91151   7.893   8.564   8.577
29715SOL    HW191152   7.813   8.514   8.561
29715SOL    HW291153  18.937   8.575   8.672
29716SOL     OW91154   3.527   9.362   3.928
29716SOL    HW191155   3.484  -1.636   4.003
29716SOL    HW291156   3.484   9.278   3.918
29717SOL     OW91157   2.963  10.733   2.515
29717SOL    HW191158   2.968  10.643   2.481
29717SOL    HW291159   2.870  10.754  -8.527
29718SOL     OW91160   0.135   0.700   6.287
29718SOL    HW191161   0.179   0.771   6.334
29718SOL    HW291162   0.065   0.744  -4.801
29719SOL     OW91163   7.532   1.212   7.285
29719SOL    HW191164   7.454  12.231   7.336
29719SOL    HW291165   7.527  12.346   7.270
29720SOL     OW91166   1.172   8.006   2.469
29720SOL    HW191167   1.243   8.045   2.418
29720SOL    HW291168  23.240  18.959 -19.648
29721SOL     OW91169  -1.487   3.096   7.208
29721SOL    HW191170  31.627  25.237  -3.905
29721SOL    HW291171  -1.563   3.116  -3.778
29722SOL     OW91172   7.244   8.947   5.585
29722SOL    HW191173   7.247   9.003   5.508
29722SOL    HW291174   7.194   8.998   5.649
29723SOL     OW91175   4.202  10.239   7.921
29723SOL    HW191176   4.111  10.258   7.945
29723SOL    HW291177  15.292  10.261  -3.040
29724SOL     OW91178   4.355   8.822   2.976
29724SOL    HW191179   4.445  -2.199   2.947
29724SOL    HW291180  15.390   8.726   2.977
29725SOL     OW91181   9.478   7.309   1.219
29725SOL    HW191182   9.527   7.366   1.279
29725SOL    HW291183   9.542   7.242   1.193
29726SOL     OW91184   6.152   8.222   5.982
29726SOL    HW191185   6.067  19.225   5.958
29726SOL    HW291186   6.213   8.186   5.917
29727SOL     OW91187   1.399   6.974   2.190
29727SOL    HW191188   1.385  17.948   2.258
29727SOL    HW291189  -9.728   6.997   2.160
29728SOL     OW91190   4.711   8.964   7.033
29728SOL    HW191191   4.694   8.895   7.097
29728SOL    HW291192   4.625   8.997   7.009
29729SOL     OW91193   2.825   1.208  12.447
29729SOL    HW191194   2.907   1.221 -20.718
29729SOL    HW291195   2.779   1.292  12.439
29730SOL     OW91196   5.324   4.021   4.926
29730SOL    HW191197   5.347   3.931   4.901
29730SOL    HW291198  16.335  15.101   4.845
29731SOL     OW91199  12.229   6.229   3.507
29731SOL    HW191200   1.167   6.151   3.558
29731SOL    HW291201   1.131  17.337   3.539
29732SOL     OW91202   5.253   5.329   4.444
29732SOL    HW191203   5.237  16.275   4.453
29732SOL    HW291204  16.345   5.352   4.521
29733SOL     OW91205   4.513   4.691   2.292
29733SOL    HW191206   4.568   4.741  13.271
29733SOL    HW291207   4.568   4.677   2.369
29734SOL     OW91208   2.446   9.199   7.159
29734SOL    HW191209 -19.715   9.247  29.224
29734SOL    HW291210   2.473  20.262   7.248
29735SOL     OW91211   8.709   4.979  11.025
29735SOL    HW191212   8.653 -17.174  -0.040
29735SOL    HW291213   8.661  -6.016  11.094
29736SOL     OW91214   7.671   5.935   4.340
29736SOL    HW191215  -3.380   6.002 -17.806
29736SOL    HW291216  -3.414   5.968   4.417
29737SOL     OW91217   7.028   6.948   6.794
29737SOL    HW191218   7.034  17.894   6.810
29737SOL    HW291219  -3.929   6.971   6.751
29738SOL     OW91220   8.693   0.555   1.401
29738SOL    HW191221  -2.276   0.563   1.464
29738SOL    HW291222   8.713   0.474   1.353
29739SOL     OW91223  12.738   4.337   5.647
29739SOL    HW191224  -9.400   4.406  -5.423
29739SOL    HW291225  -9.311   4.367   5.733
29740SOL     OW91226   3.960   6.278   9.842
29740SOL    HW191227   3.973  -4.725   9.754
29740SOL    HW291228   3.903   6.341   9.886
29741SOL     OW91229   0.661   4.098   2.348
29741SOL    HW191230   0.582   4.073   2.397
29741SOL    HW291231   0.631   4.166   2.288
29742SOL     OW91232  -0.587   6.163  10.289
29742SOL    HW191233  10.369  -4.842  10.259
29742SOL    HW291234  10.430   6.112  10.367
29743SOL     OW91235  10.945   6.581   7.070
29743SOL    HW191236  10.937 -26.582  18.193
29743SOL    HW291237  10.878   6.540  18.054
29744SOL     OW91238   7.256   5.319   8.273
29744SOL    HW191239   7.267   5.320   8.178
29744SOL    HW291240  18.287   5.412   8.297
29745SOL     OW91241  10.061  -0.907   3.770
29745SOL    HW191242 -12.106  10.095   3.769
29745SOL    HW291243  -0.993  21.265 -18.327
29746SOL     OW91244  10.208   7.767   8.715
29746SOL    HW191245  10.156   7.698   8.755
29746SOL    HW291246  10.146   7.837   8.698
29747SOL     OW91247   5.601   6.786  10.642
29747SOL    HW191248   5.642   6.873  10.648
29747SOL    HW291249  16.608   6.781  10.552
29748SOL     OW91250   6.041   3.015   9.277
29748SOL    HW191251   5.950 -19.075   9.305
29748SOL    HW291252   6.090   3.024  -1.681
29749SOL     OW91253   9.792   1.833   4.996
29749SOL    HW191254   9.738   1.760   4.966
29749SOL    HW291255   9.738  12.918  27.139
29750SOL     OW91256   0.012   4.719   1.418
29750SOL    HW191257 -10.953   4.743   1.363
29750SOL    HW291258  33.156   4.747  -9.533
29751SOL     OW91259   7.714   3.841   9.119
29751SOL    HW191260   7.665 -29.266   9.038
29751SOL    HW291261   7.688 -29.364   9.151
29752SOL     OW91262   3.288   8.645   8.118
29752SOL    HW191263   3.318   8.719   8.064
29752SOL    HW291264   3.211   8.611   8.072
29753SOL     OW91265  10.421   0.362   9.118
29753SOL    HW191266  10.365  11.429  20.230
29753SOL    HW291267  10.400   0.424   9.048
29754SOL     OW91268   8.858   6.725   8.870
29754SOL    HW191269  19.836   6.781 -13.161
29754SOL    HW291270   8.873   6.650 -13.152
29755SOL     OW91271   8.576   8.651   5.168
29755SOL    HW191272   8.623  19.751   5.111
29755SOL    HW291273   8.483   8.665   5.148
29756SOL     OW91274  10.652   1.949   6.843
29756SOL    HW191275  10.617   2.030 -26.312
29756SOL    HW291276  10.724   1.977  -4.140
29757SOL     OW91277  11.518  10.246   9.465
29757SOL    HW191278   0.556  10.298  -1.552
29757SOL    HW291279  11.449  10.279 -12.558
29758SOL     OW91280   1.578  11.526   6.087
29758SOL    HW191281   1.514  11.505   6.155
29758SOL    HW291282   1.643   0.416  17.131
29759SOL     OW91283   4.551  10.264   5.005
29759SOL    HW191284  15.655 -22.878  15.978
29759SOL    HW291285   4.590  -0.701   5.051
29760SOL     OW91286   5.032   9.265   0.832
29760SOL    HW191287   5.095  -1.776  22.839
29760SOL    HW291288   4.972 -12.743   0.810
29761SOL     OW91289   1.585   2.125   0.590
29761SOL    HW191290  12.565   2.056   0.620
29761SOL    HW291291  -9.374   2.078   0.565
29762SOL     OW91292   2.915   1.853  10.737
29762SOL    HW191293   2.924   1.799  10.815
29762SOL    HW291294   2.999  -9.141  10.731
29763SOL     OW91295   6.996   5.446   4.984
29763SOL    HW191296  29.037 -16.604   5.067
29763SOL    HW291297   6.922   5.442   4.923
29764SOL     OW91298   4.823   7.943   3.526
29764SOL    HW191299 -61.479   7.936   3.457
29764SOL    HW291300   4.796   8.019 -29.541
29765SOL     OW91301   5.728   4.789  10.627
29765SOL    HW191302   5.650   4.740  -0.436
29765SOL    HW291303   5.704   4.834  10.708
29766SOL     OW91304   2.114   0.211   6.946
29766SOL    HW191305   2.033  11.300   6.937
29766SOL    HW291306   2.119 -10.851   7.039
29767SOL     OW91307   4.816   5.385   8.044
29767SOL    HW191308   4.758   5.428  -3.059
29767SOL    HW291309   4.766   5.383  19.164
29768SOL     OW91310   2.004   5.079   5.290
29768SOL    HW191311  24.082   4.999   5.343
29768SOL    HW291312   1.912   5.103   5.281
29769SOL     OW91313   7.527   9.063   0.647
29769SOL    HW191314   7.622   9.066   0.658
29769SOL    HW291315  29.574   9.137   0.699
29770SOL     OW91316   2.164   7.170   1.583
29770SOL    HW191317  -8.867   7.132   1.496
29770SOL    HW291318   2.242   7.140   1.630
29771SOL     OW91319   3.307  10.962   8.864
29771SOL    HW191320   3.310  -0.022   8.942
29771SOL    HW291321   3.224  10.914   8.872
29772SOL     OW91322   0.166  10.778   3.053
29772SOL    HW191323  11.278  10.715   3.052
29772SOL    HW291324   0.208  10.863   3.036
29773SOL     OW91325   8.144   2.255   8.813
29773SOL    HW191326   8.239  13.298 -13.266
29773SOL    HW291327   8.119  13.307 -24.397
29774SOL     OW91328   0.619   6.512   8.114
29774SOL    HW191329   0.563   6.511   8.191
29774SOL    HW291330   0.569  39.679  -2.991
29775SOL     OW91331   7.615   7.962   6.799
29775SOL    HW191332   7.710   7.970   6.808
29775SOL    HW291333   7.586  -2.990   6.772
29776SOL     OW91334  10.704  -0.290   5.387
29776SOL    HW191335 -33.484 -11.239   5.375
29776SOL    HW291336  10.781  21.797   5.443
29777SOL     OW91337   9.282   2.671   4.019
29777SOL    HW191338 -12.824   2.618   3.945
29777SOL    HW291339  -1.829   2.733  26.111
29778SOL     OW91340   3.830   2.272   0.756
29778SOL    HW191341   3.917   2.298 -10.255
29778SOL    HW291342   3.782   2.252   0.836
29779SOL     OW91343   5.062   7.929   5.672
29779SOL    HW191344   4.969   7.931 -16.430
29779SOL    HW291345  38.182   7.918   5.767
29780SOL     OW91346   1.878   2.430   9.962
29780SOL    HW191347   1.820   2.354  -1.078
29780SOL    HW291348   1.873   2.464  10.052
29781SOL     OW91349   4.370   2.408   4.330
29781SOL    HW191350   4.427 -19.600   4.359
29781SOL    HW291351   4.419   2.328   4.349
29782SOL     OW91352   3.233   7.175   1.672
29782SOL    HW191353  -7.775 -14.814   1.675
29782SOL    HW291354 -18.770   7.124   1.642
29783SOL     OW91355   7.114   5.697   8.012
29783SOL    HW191356  -3.949   5.683  18.960
29783SOL    HW291357   7.201   5.659   8.021
29784SOL     OW91358   6.861   9.479   1.849
29784SOL    HW191359   6.817 -12.537   1.906
29784SOL    HW291360   6.838 -12.571   1.760
29785SOL     OW91361   3.272   1.132   3.400
29785SOL    HW191362  14.231  -9.949   3.429
29785SOL    HW291363  25.419   1.095   3.456
29786SOL     OW91364  -1.341   5.209   0.331
29786SOL    HW191365  31.850   5.201   0.269
29786SOL    HW291366  -1.394   5.281   0.298
29787SOL     OW91367   8.352   8.815   8.135
29787SOL    HW191368   8.344  -2.269 -24.899
29787SOL    HW291369  19.327 -13.306   8.079
29788SOL     OW91370   6.526   5.432   1.851
29788SOL    HW191371   6.521   5.359   1.789
29788SOL    HW291372   6.484   5.505   1.805
29789SOL     OW91373   0.264  13.443   1.018
29789SOL    HW191374  22.358   2.348   0.942
29789SOL    HW291375   0.168 -30.709   1.025
29790SOL     OW91376   7.293   5.616   4.099
29790SOL    HW191377   7.263   5.602   4.189
29790SOL    HW291378   7.345   5.538  -6.961
29791SOL     OW91379   1.426   5.507   5.545
29791SOL    HW191380  12.428  16.607   5.609
29791SOL    HW291381  23.577   5.464   5.592
29792SOL     OW91382   5.097   3.410   0.577
29792SOL    HW191383   5.075  36.610   0.622
29792SOL    HW291384  -5.847  36.531   0.568
29793SOL     OW91385  -0.785   1.398   4.820
29793SOL    HW191386  -0.717   1.395   4.753
29793SOL    HW291387  32.312   1.306   4.836
29794SOL     OW91388   1.370  10.423   7.924
29794SOL    HW191389   1.281  10.391   7.941
29794SOL    HW291390   1.424  10.344  52.085
29795SOL     OW91391   1.449   5.249   3.336
29795SOL    HW191392 -20.551   5.197   3.325
29795SOL    HW291393  12.520  16.374   3.367
29796SOL     OW91394   3.669   3.941   2.034
29796SOL    HW191395   3.648   3.915 -31.174
29796SOL    HW291396  -7.359   3.859   2.082
29797SOL     OW91397   3.295   2.519   5.552
29797SOL    HW191398   3.321   2.519  27.724
29797SOL    HW291399  -7.710   2.602   5.518
29798SOL     OW91400   5.415   9.657   5.967
29798SOL    HW191401   5.436 -12.436   5.875
29798SOL    HW291402   5.472 -23.522   6.015
29799SOL     OW91403   4.102   3.943   0.905
29799SOL    HW191404   4.056   3.982 -10.209
29799SOL    HW291405  -6.845  14.996   0.885
29800SOL     OW91406   1.966   9.744   5.565
29800SOL    HW191407   2.004   9.716   5.648
29800SOL    HW291408   1.904   9.813 -27.530
29801SOL     OW91409   7.070   4.153   8.364
29801SOL    HW191410   7.037 -17.871   8.293
29801SOL    HW291411  29.244   4.167   8.363
29802SOL     OW91412   6.481   1.236   4.957
29802SOL    HW191413   6.478  23.313  27.131
29802SOL    HW291414 -15.675  12.225  15.969
29803SOL     OW91415   9.773   7.918   5.305
29803SOL    HW191416   9.730  18.877   5.275
29803SOL    HW291417   9.861   7.913   5.267
29804SOL     OW91418   8.623   0.034  10.174
29804SOL    HW191419   8.529  11.091  -0.870
29804SOL    HW291420   8.629  10.978  -0.856
29805SOL     OW91421   0.217  11.222   4.008
29805SOL    HW191422   0.301 -21.940  -7.020
29805SOL    HW291423   0.153  11.151  15.052
29806SOL     OW91424   0.681   2.253   7.662
29806SOL    HW191425   0.730   2.209  18.632
29806SOL    HW291426   0.599   2.204   7.668
29807SOL     OW91427   1.247   9.426   4.593
29807SOL    HW191428   1.183 -34.687   4.538
29807SOL    HW291429   1.204   9.418   4.678
29808SOL     OW91430   4.349   4.085   1.127
29808SOL    HW191431   4.333   4.174   1.161
29808SOL    HW291432 -17.744   4.093   1.033
29809SOL     OW91433  10.416   1.562   3.679
29809SOL    HW191434  10.365   1.522   3.609
29809SOL    HW291435  10.499   1.587   3.638
29810SOL     OW91436   5.510   8.944   2.393
29810SOL    HW191437   5.490   8.908   2.307
29810SOL    HW291438   5.605   8.957   2.393
29811SOL     OW91439   3.856   7.636   4.393
29811SOL    HW191440   3.808   7.683   4.461
29811SOL    HW291441   3.828   7.678   4.311
29812SOL     OW91442   9.712   4.154  11.474
29812SOL    HW191443   9.699   4.217  11.544
29812SOL    HW291444   9.643   4.089   0.447
29813SOL     OW91445   6.097   3.298  -0.607
29813SOL    HW191446   6.188  -7.710  -0.606
29813SOL    HW291447   6.066  -7.719  10.345
29814SOL     OW91448   2.275   8.260   2.212
29814SOL    HW191449   2.272  -2.842   2.140
29814SOL    HW291450   2.293  19.245   2.290
29815SOL     OW91451   0.310   3.093   2.832
29815SOL    HW191452  11.416   3.057   2.773
29815SOL    HW291453  11.284   3.024   2.840
29816SOL     OW91454   3.447   2.356  10.188
29816SOL    HW191455   3.465   2.262 -11.899
29816SOL    HW291456   3.463  13.415  10.280
29817SOL     OW91457   1.022  10.969   0.151
29817SOL    HW191458   1.105  10.988   0.107
29817SOL    HW291459  12.072  10.880   0.185
29818SOL     OW91460   8.163   8.438   2.283
29818SOL    HW191461   8.091   8.376   2.273
29818SOL    HW291462  19.252 -13.674   2.359
29819SOL     OW91463   5.473  10.110   6.344
29819SOL    HW191464   5.504  10.123   6.433
29819SOL    HW291465   5.445  -0.842   6.315
29820SOL     OW91466   9.641   2.749   2.419
29820SOL    HW191467   9.717  -8.316 -19.713
29820SOL    HW291468   9.603  13.706  13.488
29821SOL     OW91469   1.437   2.267  12.142
29821SOL    HW191470   1.511   2.289   1.159
29821SOL    HW291471   1.417  -8.690   1.057
29822SOL     OW91472   9.544   2.784   4.572
29822SOL    HW191473   9.625  13.779   4.599
29822SOL    HW291474 -12.605   2.736   4.616
29823SOL     OW91475  10.146   0.796   5.468
29823SOL    HW191476  10.114   0.853   5.539
29823SOL    HW291477 -23.003  11.748  -5.547
29824SOL     OW91478   0.201   5.721   8.402
29824SOL    HW191479  11.333  16.782   8.415
29824SOL    HW291480   0.159   5.805  19.422
29825SOL     OW91481   0.346   7.239   3.951
29825SOL    HW191482   0.424   7.290   3.930
29825SOL    HW291483  11.315   7.304   3.960
29826SOL     OW91484   1.290   5.155   7.113
29826SOL    HW191485   1.257   5.153   7.023
29826SOL    HW291486  12.303   5.070  18.188
29827SOL     OW91487   2.589   2.306   8.662
29827SOL    HW191488   2.535   2.333   8.736
29827SOL    HW291489  13.570   2.255   8.607
29828SOL     OW91490   7.705   7.279   1.421
29828SOL    HW191491  18.650   7.289   1.422
29828SOL    HW291492  18.776   7.354   1.369
29829SOL     OW91493   5.004  11.512   1.932
29829SOL    HW191494   5.015   0.434  13.059
29829SOL    HW291495 -16.987  11.516  35.015
29830SOL     OW91496  -0.266   8.693  10.294
29830SOL    HW191497  21.781   8.776 -33.899
29830SOL    HW291498  -0.180   8.682  21.293
29831SOL     OW91499   7.353   2.422   9.905
29831SOL    HW191500   7.362  13.524   9.977
29831SOL    HW291501   7.280   2.366  -1.109
29832SOL     OW91502   4.020   6.737   1.885
29832SOL    HW191503  -6.985  28.905  -9.148
29832SOL    HW291504 -17.982  17.721 -20.181
29833SOL     OW91505   6.266   4.507   3.398
29833SOL    HW191506   6.323   4.488   3.324
29833SOL    HW291507   6.209   4.577   3.367
29834SOL     OW91508   7.555   3.473   2.225
29834SOL    HW191509   7.528   3.434  24.221
29834SOL    HW291510   7.549   3.567   2.211
29835SOL     OW91511   7.522   4.430   2.198
29835SOL    HW191512  -3.506   4.515   2.242
29835SOL    HW291513  18.636   4.423   2.139
29836SOL     OW91514   8.215   6.608   2.602
29836SOL    HW191515   8.189   6.638  -8.350
29836SOL    HW291516   8.263   6.682   2.565
29837SOL     OW91517   2.000   7.797   2.217
29837SOL    HW191518   1.913   7.835   2.202
29837SOL    HW291519   2.009   7.796  13.352
29838SOL     OW91520   1.400  10.170  -1.188
29838SOL    HW191521 -20.662  10.165  20.797
29838SOL    HW291522   1.486  21.207  -1.147
29839SOL     OW91523   0.291   9.746   8.043
29839SOL    HW191524   0.265  31.759   8.108
29839SOL    HW291525   0.374   9.714   8.008
29840SOL     OW91526   8.468   6.725   1.105
29840SOL    HW191527  19.439  28.801  12.212
29840SOL    HW291528  19.565   6.652 -20.953
29841SOL     OW91529   6.854   3.654   1.015
29841SOL    HW191530  17.818   3.712   1.003
29841SOL    HW291531   6.901  25.736   0.933
29842SOL     OW91532  10.625   5.986   3.549
29842SOL    HW191533  10.657   5.926  14.522
29842SOL    HW291534  10.702   6.033   3.580
29843SOL     OW91535   7.131  11.889   9.973
29843SOL    HW191536   7.080   0.916   9.927
29843SOL    HW291537 -14.999   0.769   9.964
29844SOL     OW91538   6.063  11.554   0.909
29844SOL    HW191539   6.054  11.459   0.915
29844SOL    HW291540   5.985   0.543   0.862
29845SOL     OW91541   7.830   5.064   9.526
29845SOL    HW191542   7.850   4.970   9.526
29845SOL    HW291543   7.779  16.117   9.605
29846SOL     OW91544  11.275   3.314   4.635
29846SOL    HW191545  11.302   3.314   4.543
29846SOL    HW291546 -10.724   3.337   4.683
29847SOL     OW91547   9.726   4.220   1.767
29847SOL    HW191548   9.643  15.262   1.720
29847SOL    HW291549   9.744   4.127   1.780
29848SOL     OW91550   6.918  10.136   8.105
29848SOL    HW191551   6.984 -11.912   8.044
29848SOL    HW291552   6.843  10.194   8.092
29849SOL     OW91553   4.486   0.690   0.347
29849SOL    HW191554  15.506   0.738  11.467
29849SOL    HW291555   4.492   0.758   0.280
29850SOL     OW91556   6.390   7.014   0.841
29850SOL    HW191557  -4.641   6.919  11.867
29850SOL    HW291558 -26.821   7.032   0.829
29851SOL     OW91559   7.624  10.400   4.801
29851SOL    HW191560   7.658 -11.596   4.767
29851SOL    HW291561   7.549 -44.773   4.855
29852SOL     OW91562  10.458   7.627  10.750
29852SOL    HW191563  10.393   7.650  10.684
29852SOL    HW291564  10.482   7.711  10.790
29853SOL     OW91565   2.588   2.181   1.358
29853SOL    HW191566   2.606   2.088   1.340
29853SOL    HW291567   2.665 -19.852   1.325
29854SOL     OW91568   6.273   3.501   5.165
29854SOL    HW191569   6.260   3.557   5.089
29854SOL    HW291570  28.335   3.413  38.252
29855SOL     OW91571   0.126   8.960   4.666
29855SOL    HW191572   0.187   8.920   4.604
29855SOL    HW291573  11.119  20.066  -6.425
29856SOL     OW91574   5.679   6.429   5.499
29856SOL    HW191575   5.743  -4.670 -27.581
29856SOL    HW291576   5.706   6.516   5.527
29857SOL     OW91577   1.545   3.324   1.620
29857SOL    HW191578   1.626   3.374   1.633
29857SOL    HW291579   1.493   3.378   1.561
29858SOL     OW91580   9.211   5.281   4.960
29858SOL    HW191581   9.247   5.333   4.888
29858SOL    HW291582   9.160   5.343   5.011
29859SOL     OW91583   5.153   5.020   4.020
29859SOL    HW191584   5.227   4.988  -6.968
29859SOL    HW291585  27.261   5.011  37.048
29860SOL     OW91586   3.402   4.717   6.995
29860SOL    HW191587  -7.702 -61.588  -4.067
29860SOL    HW291588   3.382   4.789   6.935
29861SOL     OW91589   7.517   9.755   9.716
29861SOL    HW191590   7.427 -34.432   9.703
29861SOL    HW291591   7.512   9.851  -1.321
29862SOL     OW91592   9.697   2.346   5.563
29862SOL    HW191593   9.735  -8.681   5.650
29862SOL    HW291594   9.616   2.297   5.580
29863SOL     OW91595  12.053   3.600   1.280
29863SOL    HW191596   0.975  14.708   1.335
29863SOL    HW291597   0.956  25.674   1.204
29864SOL     OW91598   9.829   7.263   0.286
29864SOL    HW191599   9.791  29.346   0.198
29864SOL    HW291600   9.818   7.172  11.352
29865SOL     OW91601   2.337   0.266   6.621
29865SOL    HW191602   2.349   0.304  28.788
29865SOL    HW291603   2.339  33.291   6.635
29866SOL     OW91604   0.407   5.312   8.846
29866SOL    HW191605   0.434   5.389   8.795
29866SOL    HW291606   0.408   5.342  19.976
29867SOL     OW91607   9.756   4.950   5.035
29867SOL    HW191608   9.727   4.952  15.983
29867SOL    HW291609  20.716   4.966  16.125
29868SOL     OW91610   6.517   5.094   5.405
29868SOL    HW191611   6.484  -5.885   5.339
29868SOL    HW291612   6.455 -39.056   5.477
29869SOL     OW91613   0.445   2.399   3.790
29869SOL    HW191614  22.611   2.409  -7.211
29869SOL    HW291615   0.396  24.426  -7.185
29870SOL     OW91616   0.916   4.832  10.233
29870SOL    HW191617  23.079   4.864  10.198
29870SOL    HW291618  11.964  -6.195 -11.751
29871SOL     OW91619   4.785   4.222  11.901
29871SOL    HW191620  26.808  -6.782  11.832
29871SOL    HW291621   4.868   4.268 -21.229
29872SOL     OW91622   4.557  10.050  10.165
29872SOL    HW191623   4.490  10.118  10.163
29872SOL    HW291624   4.569  21.065  10.073
29873SOL     OW91625   6.745   1.443   1.564
29873SOL    HW191626  17.872   1.420  12.573
29873SOL    HW291627  17.728   1.429   1.488
29874SOL     OW91628   3.875   6.420   6.744
29874SOL    HW191629   3.966  17.474   6.769
29874SOL    HW291630   3.842  17.398   6.810
29875SOL     OW91631   8.218   4.132   0.027
29875SOL    HW191632   8.279   4.062   0.049
29875SOL    HW291633   8.146   4.088  -0.016
29876SOL     OW91634   2.076   6.159   9.292
29876SOL    HW191635   2.155   6.210   9.308
29876SOL    HW291636   2.096   6.073  20.369
29877SOL     OW91637   0.688   7.896   4.772
29877SOL    HW191638   0.715   7.986  26.866
29877SOL    HW291639 -10.434 -14.192   4.820
29878SOL     OW91640   0.345  11.323   5.802
29878SOL    HW191641 -10.619  11.264   5.796
29878SOL    HW291642  11.377   0.301   5.896
29879SOL     OW91643   2.185   8.351   7.140
29879SOL    HW191644   2.174   8.444  -3.878
29879SOL    HW291645   2.183   8.348  18.084
29880SOL     OW91646   3.041  11.897   8.516
29880SOL    HW191647  14.174  11.888   8.533
29880SOL    HW291648  47.192 -10.178   8.421
29881SOL     OW91649   7.650   0.302   7.666
29881SOL    HW191650   7.713   0.374  18.699
29881SOL    HW291651   7.627   0.283   7.575
29882SOL     OW91652   5.350   9.126   8.305
29882SOL    HW191653   5.412   9.197  30.397
29882SOL    HW291654   5.371  31.143   8.375
29883SOL     OW91655  11.119   6.160   4.251
29883SOL    HW191656   0.153   6.183   4.308
29883SOL    HW291657  11.053   6.228  15.308
29884SOL     OW91658  10.958   8.687   2.147
29884SOL    HW191659  -0.146 -13.440   2.200
29884SOL    HW291660  -0.098   8.658   2.058
29885SOL     OW91661  -0.322   7.003   6.360
29885SOL    HW191662  10.730  40.215  17.418
29885SOL    HW291663  10.642  -4.062   6.413
29886SOL     OW91664   5.641   4.313   4.697
29886SOL    HW191665   5.652   4.397   4.653
29886SOL    HW291666   5.718   4.262   4.671
29887SOL     OW91667   3.963   1.428   1.353
29887SOL    HW191668  -7.119   1.378   1.423
29887SOL    HW291669   4.019 -20.715  12.348
29888SOL     OW91670  11.293   2.604   5.763
29888SOL    HW191671 -10.839  24.637   5.698
29888SOL    HW291672  11.260  -8.466   5.847
29889SOL     OW91673   2.560   4.557   8.315
29889SOL    HW191674   2.645   4.601   8.309
29889SOL    HW291675   2.569  -6.559   8.257
29890SOL     OW91676   2.034   7.551   8.610
29890SOL    HW191677  13.095   7.474 -24.560
29890SOL    HW291678   2.089   7.544   8.688
29891SOL     OW91679   0.205   5.936   5.399
29891SOL    HW191680   0.283   5.889   5.368
29891SOL    HW291681   0.241 -38.147   5.446
29892SOL     OW91682   2.740  10.806   0.733
29892SOL    HW191683   2.696  10.855   0.803
29892SOL    HW291684  24.777  10.836  11.692
29893SOL     OW91685   3.103  -0.151   9.355
29893SOL    HW191686   3.172  43.996 -12.789
29893SOL    HW291687   3.034  -0.103  -1.730
29894SOL     OW91688   0.442   4.873   4.923
29894SOL    HW191689   0.362   4.926   4.925
29894SOL    HW291690   0.512 -17.143   4.907
29895SOL     OW91691   4.978  14.062   7.298
29895SOL    HW191692   4.942 -18.997   7.232
29895SOL    HW291693   4.946  -8.103   7.272
29896SOL     OW91694  -0.446   1.047   7.903
29896SOL    HW191695  10.521   1.068   7.961
29896SOL    HW291696  -0.487   1.029   7.818
29897SOL     OW91697   4.690  10.806   0.421
29897SOL    HW191698   4.597  10.824   0.436
29897SOL    HW291699  15.736  10.710   0.425
29898SOL     OW91700   9.122   7.191   1.912
29898SOL    HW191701   9.150  18.227  -9.219
29898SOL    HW291702   9.190  29.322   1.956
29899SOL     OW91703   9.593   0.550   1.925
29899SOL    HW191704   9.588   0.495   2.004
29899SOL    HW291705   9.610   0.488   1.854
29900SOL     OW91706   3.187   6.161   7.420
29900SOL    HW191707   3.214  17.277   7.369
29900SOL    HW291708   3.126  28.274   7.485
29901SOL     OW91709   6.519  10.549   4.819
29901SOL    HW191710   6.554  10.570   4.732
29901SOL    HW291711   6.596  10.550  15.916
29902SOL     OW91712   7.500   0.170  10.999
29902SOL    HW191713   7.458  22.167  11.024
29902SOL    HW291714  18.631   0.161  11.026
29903SOL     OW91715   0.490   1.833   7.187
29903SOL    HW191716   0.516  34.926   7.099
29903SOL    HW291717   0.572   1.857   7.230
29904SOL     OW91718   0.593   9.399   4.860
29904SOL    HW191719   0.667   9.427   4.805
29904SOL    HW291720   0.516 -12.664   4.805
29905SOL     OW91721   6.436   1.615   2.843
29905SOL    HW191722   6.492  12.646  24.845
29905SOL    HW291723 -15.601   1.684   2.895
29906SOL     OW91724  13.995   9.829   2.830
29906SOL    HW191725 -41.177  20.893   2.742
29906SOL    HW291726  14.004   9.909  13.921
29907SOL     OW91727   7.085  -2.337   8.647
29907SOL    HW191728  -3.906   8.627   8.615
29907SOL    HW291729   7.129  30.805 -13.349
29908SOL     OW91730   6.049   3.017   0.155
29908SOL    HW191731  17.135   3.068   0.088
29908SOL    HW291732   5.985   3.079   0.191
29909SOL     OW91733   7.413   2.531   8.022
29909SOL    HW191734   7.404   2.445   8.065
29909SOL    HW291735   7.325   2.568  -3.013
29910SOL     OW91736  10.077  -0.470   5.771
29910SOL    HW191737 -12.021  43.599   5.741
29910SOL    HW291738  10.013  10.585   5.840
29911SOL     OW91739  10.358  11.057   4.481
29911SOL    HW191740  10.368  -0.041   4.407
29911SOL    HW291741  21.478   0.007   4.531
29912SOL     OW91742  10.654   3.905   4.208
29912SOL    HW191743  10.747   3.902   4.232
29912SOL    HW291744  10.655   3.918   4.113
29913SOL     OW91745   4.459   6.906   8.825
29913SOL    HW191746   4.440   6.951  -2.132
29913SOL    HW291747 -17.675  17.990   8.760
29914SOL     OW91748   2.356   8.019   8.133
29914SOL    HW191749  13.443   8.049  -2.829
29914SOL    HW291750  13.319  30.052   8.168
29915SOL     OW91751   4.153   0.758   4.686
29915SOL    HW191752  15.150 -21.371   4.756
29915SOL    HW291753   4.231  11.746  15.704
29916SOL     OW91754   3.215   4.566   9.513
29916SOL    HW191755  14.243   4.472   9.528
29916SOL    HW291756   3.129   4.596   9.485
29917SOL     OW91757   9.709   9.115   9.048
29917SOL    HW191758  -1.364   9.202   9.068
29917SOL    HW291759   9.756  20.128   9.127
29918SOL     OW91760   5.738  10.683  10.999
29918SOL    HW191761   5.744  10.779  -0.042
29918SOL    HW291762   5.823  10.654  10.965
29919SOL     OW91763   1.497   8.710   4.947
29919SOL    HW191764   1.499   8.631  15.933
29919SOL    HW291765   1.587   8.719  16.019
29920SOL     OW91766   1.300   3.086  10.808
29920SOL    HW191767   1.312   3.170  10.851
29920SOL    HW291768  12.364 -19.058  10.874
29921SOL     OW91769   6.258   3.228   2.664
29921SOL    HW191770   6.301  25.222  -8.364
29921SOL    HW291771 -15.881   3.214   2.591
29922SOL     OW91772   6.232   7.489   5.395
29922SOL    HW191773   6.138 -14.593   5.413
29922SOL    HW291774   6.248  -3.627   5.341
29923SOL     OW91775  -0.402   6.439   6.528
29923SOL    HW191776  10.630   6.428   6.434
29923SOL    HW291777  -0.315 -15.675  -4.490
29924SOL     OW91778   7.841   6.902   9.812
29924SOL    HW191779   7.916 -37.220   9.859
29924SOL    HW291780  18.817   6.882  -1.158
29925SOL     OW91781   3.786   7.355   3.792
29925SOL    HW191782  14.877   7.390   3.864
29925SOL    HW291783  14.882   7.363   3.715
29926SOL     OW91784   8.901   9.489   5.827
29926SOL    HW191785   8.914  20.476  16.788
29926SOL    HW291786  -2.064  -1.573  -5.156
29927SOL     OW91787   5.681   5.948  -0.088
29927SOL    HW191788  60.895   5.901  -0.006
29927SOL    HW291789   5.661  16.918  10.889
29928SOL     OW91790   6.016   0.144   0.641
29928SOL    HW191791   6.007  22.133   0.609
29928SOL    HW291792   6.099   0.174 -10.436
29929SOL     OW91793  11.890   5.162   7.047
29929SOL    HW191794 -21.250   5.180   7.139
29929SOL    HW291795  11.867   5.242   7.001
29930SOL     OW91796   6.679   1.792  -0.410
29930SOL    HW191797   6.627  12.901  -0.370
29930SOL    HW291798   6.631   1.767  10.551
29931SOL     OW91799   7.124   6.878  -1.730
29931SOL    HW191800   7.097  17.982  20.414
29931SOL    HW291801   7.076   6.799   9.334
29932SOL     OW91802   2.487   9.957   3.208
29932SOL    HW191803  24.497   9.891   3.197
29932SOL    HW291804  13.485  21.079  14.223
29933SOL     OW91805   3.550   4.235   9.768
29933SOL    HW191806  -7.519   4.185   9.844
29933SOL    HW291807   3.543  15.213   9.695
29934SOL     OW91808   2.775   3.774   6.983
29934SOL    HW191809   2.836   3.702  -4.042
29934SOL    HW291810  13.735   3.748   7.028
29935SOL     OW91811   5.602   9.873   3.403
29935SOL    HW191812   5.642   9.953   3.437
29935SOL    HW291813   5.511   9.896   3.387
29936SOL     OW91814   1.854   1.295   1.274
29936SOL    HW191815   1.915   1.228  12.283
29936SOL    HW291816   1.789   1.303   1.204
29937SOL     OW91817  10.062   0.582   6.083
29937SOL    HW191818  -1.062  11.661   6.060
29937SOL    HW291819  10.049 -10.551   6.069
29938SOL     OW91820   3.803   5.803   9.621
29938SOL    HW191821   3.731   5.750   9.656
29938SOL    HW291822   3.882   5.762  20.695
29939SOL     OW91823   1.102   1.419   7.966
29939SOL    HW191824   1.079   1.450   7.879
29939SOL    HW291825   1.198 -20.664  19.005
29940SOL     OW91826   5.442   4.927   0.723
29940SOL    HW191827   5.382   4.884   0.784
29940SOL    HW291828   5.527  -6.154   0.740
29941SOL     OW91829   2.517   4.278   2.429
29941SOL    HW191830   2.507   4.191   2.468
29941SOL    HW291831   2.576  -6.775   2.355
29942SOL     OW91832   0.310   9.125   2.196
29942SOL    HW191833   0.328  20.253   2.164
29942SOL    HW291834   0.314   9.133   2.291
29943SOL     OW91835   7.838   5.337   1.888
29943SOL    HW191836   7.930   5.362  -9.143
29943SOL    HW291837 -14.241   5.273   1.816
29944SOL     OW91838   3.818   4.342  10.285
29944SOL    HW191839  36.895   4.270  10.332
29944SOL    HW291840   3.763  -6.622  10.303
29945SOL     OW91841   4.278   2.988  -1.013
29945SOL    HW191842   4.252  -8.028  10.115
29945SOL    HW291843  -6.710   2.908  21.077
29946SOL     OW91844   7.545  10.354   6.525
29946SOL    HW191845   7.585  -0.754   6.471
29946SOL    HW291846   7.619  10.394   6.572
29947SOL     OW91847   9.127   2.476   6.363
29947SOL    HW191848   9.128   2.380  28.442
29947SOL    HW291849   9.092   2.500  28.528
29948SOL     OW91850   9.627   2.335   6.482
29948SOL    HW191851   9.615   2.426  17.547
29948SOL    HW291852   9.713   2.333  50.598
29949SOL     OW91853   0.527   3.937   6.030
29949SOL    HW191854   0.592   3.961   6.096
29949SOL    HW291855  11.607  14.904   5.982
29950SOL     OW91856   6.490   8.558   4.848
29950SOL    HW191857   6.495  19.507   4.880
29950SOL    HW291858   6.555  19.645   4.899
29951SOL     OW91859  10.702   6.890  10.899
29951SOL    HW191860  10.764   6.818  10.893
29951SOL    HW291861  10.726   6.936  10.980
29952SOL     OW91862   9.462   2.261   3.028
29952SOL    HW191863  20.531   2.208   2.955
29952SOL    HW291864  -1.667   2.230  14.085
29953SOL     OW91865   2.040   4.413   2.829
29953SOL    HW191866   2.104  26.491   2.900
29953SOL    HW291867   1.973   4.475  13.898
29954SOL     OW91868   0.777   5.491   5.767
29954SOL    HW191869   0.864   5.498   5.728
29954SOL    HW291870  11.765   5.442   5.704
29955SOL     OW91871   6.747   4.655   3.310
29955SOL    HW191872   6.666   4.702   3.332
29955SOL    HW291873   6.816   4.702   3.356
29956SOL     OW91874   6.047  10.194   5.770
29956SOL    HW191875   6.047  10.113   5.718
29956SOL    HW291876  -4.906  10.232  16.795
29957SOL     OW91877  -1.250   7.916   2.779
29957SOL    HW191878  31.920   7.859   2.722
29957SOL    HW291879  -1.335   7.873   2.786
29958SOL     OW91880   5.062   7.516   3.705
29958SOL    HW191881   5.051   7.423  -7.314
29958SOL    HW291882  -5.924  -3.489   3.777
29959SOL     OW91883   6.148   9.785   8.487
29959SOL    HW191884   6.177   9.718   8.424
29959SOL    HW291885   6.053   9.775   8.490
29960SOL     OW91886   7.961   4.201   8.282
29960SOL    HW191887   8.011   4.146   8.342
29960SOL    HW291888   7.980  26.244   8.195
29961SOL     OW91889   2.960   4.382   9.791
29961SOL    HW191890   3.037 -17.640   9.799
29961SOL    HW291891  24.985  -6.635   9.867
29962SOL     OW91892   7.563   6.565   6.416
29962SOL    HW191893  29.685   6.522   6.341
29962SOL    HW291894   7.512   6.636  28.455
29963SOL     OW91895   0.682   7.975   0.045
29963SOL    HW191896  22.848   8.008   0.071
29963SOL    HW291897   0.698  -3.155   0.017
29964SOL     OW91898   2.824   9.192   3.813
29964SOL    HW191899   2.755   9.216   3.752
29964SOL    HW291900   2.886  -1.775 -18.270
29965SOL     OW91901   9.680   7.637   8.325
29965SOL    HW191902  -1.420   7.565   8.309
29965SOL    HW291903   9.737  -3.434   8.395
29966SOL     OW91904   6.852   8.655  10.107
29966SOL    HW191905 -15.200   8.615  10.024
29966SOL    HW291906   6.934 -24.437  10.149
29967SOL     OW91907   0.594   5.535   7.193
29967SOL    HW191908   0.643   5.576   7.264
29967SOL    HW291909  11.624   5.604   7.127
29968SOL     OW91910   9.747   1.459   1.955
29968SOL    HW191911  -1.234   1.387 -20.145
29968SOL    HW291912   9.748   1.464  -8.989
29969SOL     OW91913   1.773   6.225   5.500
29969SOL    HW191914   1.848   6.177   5.464
29969SOL    HW291915  12.739   6.164   5.492
29970SOL     OW91916   8.695   1.728  12.183
29970SOL    HW191917  -2.324  12.794  12.273
29970SOL    HW291918   8.780  12.763 -20.979
29971SOL     OW91919   2.583   3.241  10.647
29971SOL    HW191920  -8.515  -7.847  10.705
29971SOL    HW291921  -8.505  -7.789  10.566
29972SOL     OW91922   8.478   5.306   5.088
29972SOL    HW191923   8.408   5.282   5.148
29972SOL    HW291924  19.565   5.223   5.072
29973SOL     OW91925   2.898   8.303   7.759
29973SOL    HW191926   2.934  19.404   7.695
29973SOL    HW291927  24.890  19.377  -3.260
29974SOL     OW91928   6.240  11.026   8.709
29974SOL    HW191929  -4.837  11.103   8.666
29974SOL    HW291930   6.210  11.032 -13.280
29975SOL     OW91931   9.599  10.922   7.091
29975SOL    HW191932  -1.435  -0.064   7.012
29975SOL    HW291933   9.552  10.976   7.154
29976SOL     OW91934   1.373   5.070   3.931
29976SOL    HW191935  -9.647   5.111  26.094
29976SOL    HW291936   1.335  16.180  -7.162
29977SOL     OW91937   6.565   2.230   8.541
29977SOL    HW191938   6.476   2.239   8.575
29977SOL    HW291939   6.621   2.263   8.611
29978SOL     OW91940   0.818   5.722   8.807
29978SOL    HW191941   0.766   5.700   8.729
29978SOL    HW291942  22.963   5.783  30.855
29979SOL     OW91943   2.755   5.006   5.787
29979SOL    HW191944  24.923   5.028   5.760
29979SOL    HW291945   2.733   5.072   5.853
29980SOL     OW91946   5.976   2.811   1.216
29980SOL    HW191947  39.147  -8.254   1.141
29980SOL    HW291948   5.904  13.902  12.218
29981SOL     OW91949   3.334   3.464   8.567
29981SOL    HW191950   3.370  -7.578  -2.561
29981SOL    HW291951  -7.765   3.539   8.566
29982SOL     OW91952   3.699   5.835   0.908
29982SOL    HW191953  -7.413   5.777   0.885
29982SOL    HW291954   3.741   5.854   0.824
29983SOL     OW91955  10.624   2.598   5.364
29983SOL    HW191956  10.542   2.599   5.314
29983SOL    HW291957  10.687   2.556  16.345
29984SOL     OW91958   8.562   0.599   7.477
29984SOL    HW191959   8.484   0.545   7.462
29984SOL    HW291960   8.626   0.540   7.516
29985SOL     OW91961  12.613   3.361   9.759
29985SOL    HW191962  12.554   3.303   9.710
29985SOL    HW291963 -20.515   3.334   9.850
29986SOL     OW91964   1.205   3.983   2.853
29986SOL    HW191965   1.168  15.000   2.768
29986SOL    HW291966  12.229   4.077  13.902
29987SOL     OW91967   1.826   2.950   2.988
29987SOL    HW191968   1.886   3.011   3.030
29987SOL    HW291969   1.771   2.917   3.059
29988SOL     OW91970   6.396   6.539   4.889
29988SOL    HW191971  -4.732   6.567  -6.174
29988SOL    HW291972  -4.630   6.573   4.977
29989SOL     OW91973   3.302   1.354   3.695
29989SOL    HW191974   3.368  23.364   3.692
29989SOL    HW291975   3.298  -9.660 -18.292
29990SOL     OW91976   1.162   9.257  11.741
29990SOL    HW191977   1.081 -12.845 -10.292
29990SOL    HW291978   1.172  20.391  11.755
29991SOL     OW91979   6.414   7.959   8.212
29991SOL    HW191980   6.410   7.948  -2.923
29991SOL    HW291981   6.432  19.091   8.225
29992SOL     OW91982   8.724  10.239   3.452
29992SOL    HW191983 -13.445  10.266   3.466
29992SOL    HW291984   8.720  10.143   3.448
29993SOL     OW91985   9.585  -0.531   5.910
29993SOL    HW191986   9.552  -0.549  -5.041
29993SOL    HW291987 -12.480  21.462 -38.287
29994SOL     OW91988   6.756   1.215  -0.190
29994SOL    HW191989   6.664   1.215  32.955
29994SOL    HW291990   6.762   1.148  -0.257
29995SOL     OW91991   1.146   9.375   9.114
29995SOL    HW191992  12.204   9.463   9.148
29995SOL    HW291993   1.196   9.317   9.171
29996SOL     OW91994   0.893   1.996   1.530
29996SOL    HW191995   0.966  -8.983   1.518
29996SOL    HW291996 -10.216 -20.048   1.474
29997SOL     OW91997   0.097  12.047   4.681
29997SOL    HW191998  11.145  11.978  26.826
29997SOL    HW291999   0.006 -10.002   4.689
29998SOL     OW92000   6.574   2.725   8.219
29998SOL    HW192001   6.625   2.789 -24.850
29998SOL    HW292002 -15.520   2.653   8.281
29999SOL     OW92003   5.134   0.629   2.486
29999SOL    HW192004   5.047 -10.448   2.501
29999SOL    HW292005   5.147   0.688  35.679
30000SOL     OW92006   6.646   0.945   9.262
30000SOL    HW192007  -4.307   0.916   9.291
30000SOL    HW292008   6.611 -10.170  20.254
30001SOL     OW92009   3.160   3.260   6.769
30001SOL    HW192010   3.153  14.251  17.726
30001SOL    HW292011   3.253   3.277   6.780
30002SOL     OW92012   9.377  10.792   0.937
30002SOL    HW192013  20.452 -11.199   0.928
30002SOL    HW292014   9.336  -0.249   1.024
30003SOL     OW92015   9.942   5.843   3.415
30003SOL    HW192016   9.907  16.795   3.427
30003SOL    HW292017  10.029   5.841   3.453
30004SOL     OW92018   2.970   6.580   4.364
30004SOL    HW192019  13.929 -26.496  15.375
30004SOL    HW292020   3.039   6.620   4.311
30005SOL     OW92021   4.062   8.709   5.264
30005SOL    HW192022   4.135 -24.398   5.203
30005SOL    HW292023   4.101   8.667   5.340
30006SOL     OW92024   0.643  10.831   5.442
30006SOL    HW192025   0.657  10.823   5.348
30006SOL    HW292026   0.642  10.741   5.474
30007SOL     OW92027   4.847   2.729   7.372
30007SOL    HW192028 -17.241   2.706  -3.760
30007SOL    HW292029  -6.223   2.651   7.419
30008SOL     OW92030   0.098   5.581   7.697
30008SOL    HW192031   0.086   5.665   7.653
30008SOL    HW292032  11.049  16.594   7.723
30009SOL     OW92033  11.521   9.620  10.438
30009SOL    HW192034   0.520   9.535  10.415
30009SOL    HW292035   0.520   9.642  10.522
30010SOL     OW92036   0.175   6.007  10.966
30010SOL    HW192037   0.247   6.035  10.910
30010SOL    HW292038   0.183  -5.128  -0.069
30011SOL     OW92039   6.940   2.489   3.895
30011SOL    HW192040   6.853   2.456  -7.121
30011SOL    HW292041   6.979   2.419 -40.316
30012SOL     OW92042   8.211   0.951   7.105
30012SOL    HW192043   8.133   0.991   7.144
30012SOL    HW292044   8.219   0.994   7.020
30013SOL     OW92045   8.823   9.507   9.211
30013SOL    HW192046  30.841   9.553 -12.924
30013SOL    HW292047   8.874   9.576   9.253
30014SOL     OW92048   9.504   8.272   3.727
30014SOL    HW192049   9.528   8.358   3.692
30014SOL    HW292050   9.573   8.252   3.791
30015SOL     OW92051   6.034   7.207   6.860
30015SOL    HW192052   5.939  29.294   6.857
30015SOL    HW292053  -4.988   7.153   6.937
30016SOL     OW92054   4.006   0.868   7.115
30016SOL    HW192055   3.990   0.850   7.022
30016SOL    HW292056   4.061  22.874   7.144
30017SOL     OW92057   1.841   5.842   9.589
30017SOL    HW192058  -9.260   5.915  31.674
30017SOL    HW292059  -9.112  -5.157 -12.491
30018SOL     OW92060   0.017   0.894   2.332
30018SOL    HW192061  -0.007   0.969   2.276
30018SOL    HW292062  22.133   0.830   2.271
30019SOL     OW92063   7.606   6.088   9.800
30019SOL    HW192064  29.655  39.279   9.855
30019SOL    HW292065   7.665  39.157  -1.183
30020SOL     OW92066   2.713   9.508   3.990
30020SOL    HW192067   2.795   9.482   3.949
30020SOL    HW292068   2.645   9.462   3.940
30021SOL     OW92069  10.411   9.293  10.538
30021SOL    HW192070  10.336   9.264  10.589
30021SOL    HW292071  10.470   9.217  10.535
30022SOL     OW92072  -0.113   0.598   3.777
30022SOL    HW192073  -0.041   0.659   3.760
30022SOL    HW292074  10.851   0.637  14.772
30023SOL     OW92075  11.569   6.637   3.679
30023SOL    HW192076  11.606  17.684   3.591
30023SOL    HW292077   0.484   6.720 -18.386
30024SOL     OW92078   5.316  10.460  10.511
30024SOL    HW192079   5.406 -11.649  -0.519
30024SOL    HW292080   5.295 -11.632  10.419
30025SOL     OW92081   4.344   6.604  10.185
30025SOL    HW192082   4.391   6.666  10.128
30025SOL    HW292083   4.376  17.558  10.158
30026SOL     OW92084   9.196  -0.578   0.623
30026SOL    HW192085  -1.794  21.438  11.714
30026SOL    HW292086   9.136  -0.537   0.685
30027SOL     OW92087   2.249   1.588   9.789
30027SOL    HW192088  -8.761   1.549   9.871
30027SOL    HW292089   2.233   1.514  -1.309
30028SOL     OW92090   1.786   6.875   4.564
30028SOL    HW192091  -9.204   6.793   4.576
30028SOL    HW292092  12.738   6.846   4.540
30029SOL     OW92093   4.997   4.297   8.522
30029SOL    HW192094   4.910   4.282  19.525
30029SOL    HW292095 -28.108  -6.815  19.622
30030SOL     OW92096   6.470   3.103   9.187
30030SOL    HW192097  17.543 -30.025   9.097
30030SOL    HW292098   6.376   3.087  20.218
30031SOL     OW92099   0.899  -0.534  10.851
30031SOL    HW192100   0.970  32.539  -0.145
30031SOL    HW292101 -10.098  -0.477  10.787
30032SOL     OW92102   5.994   9.302   5.940
30032SOL    HW192103   5.985   9.237   6.010
30032SOL    HW292104   5.964   9.258  -5.178
30033SOL     OW92105   8.106   3.873   5.284
30033SOL    HW192106   8.095   3.844   5.193
30033SOL    HW292107   8.153   3.956   5.277
30034SOL     OW92108   7.571   9.987  11.941
30034SOL    HW192109 -25.471   9.971  11.886
30034SOL    HW292110 -14.583  -1.064 -21.236
30035SOL     OW92111   6.852  10.013   1.874
30035SOL    HW192112   6.798  10.001   1.952
30035SOL    HW292113   6.929  10.061   1.905
30036SOL     OW92114   4.403   0.769   9.259
30036SOL    HW192115   4.312  22.873   9.276
30036SOL    HW292116   4.442   0.757   9.345
30037SOL     OW92117   7.019   0.710  11.400
30037SOL    HW192118   6.928   0.731  11.418
30037SOL    HW292119   7.060   0.794   0.342
30038SOL     OW92120   1.136   1.368   4.054
30038SOL    HW192121  -9.829   1.402  15.143
30038SOL    HW292122   1.132  12.465   3.977
30039SOL     OW92123   2.300  10.671   7.463
30039SOL    HW192124   2.335  -0.451   7.498
30039SOL    HW292125 -19.859  10.686  18.553
30040SOL     OW92126   0.883  10.885  11.645
30040SOL    HW192127  11.938  10.973 -21.508
30040SOL    HW292128   0.964  10.837  11.630
30041SOL     OW92129   5.376  10.300   9.972
30041SOL    HW192130  16.493 -11.833   9.957
30041SOL    HW292131   5.366  10.301  10.067
30042SOL     OW92132   6.326   2.037  11.307
30042SOL    HW192133   6.399   1.983   0.239
30042SOL    HW292134   6.334  -8.922   0.216
30043SOL     OW92135   6.211   3.590   6.764
30043SOL    HW192136  -4.894   3.659   6.774
30043SOL    HW292137   6.256   3.612   6.682
30044SOL     OW92138   4.192  12.489   5.715
30044SOL    HW192139   4.251 -20.669   5.650
30044SOL    HW292140  -6.825  12.447   5.797
30045SOL     OW92141   7.416   0.777   1.303
30045SOL    HW192142   7.458  22.846   1.218
30045SOL    HW292143  -3.700  11.759  12.339
30046SOL     OW92144   4.731   2.429   7.354
30046SOL    HW192145   4.712 -30.696  -3.592
30046SOL    HW292146   4.771   2.345  -3.708
30047SOL     OW92147   0.339   8.240   2.350
30047SOL    HW192148   0.375   8.326  -8.709
30047SOL    HW292149   0.245  -2.789   2.336
30048SOL     OW92150   7.483   4.705   3.253
30048SOL    HW192151   7.530  37.826   3.170
30048SOL    HW292152  18.530  15.654 -18.797
30049SOL     OW92153   3.629   9.779   1.169
30049SOL    HW192154   3.538   9.796   1.191
30049SOL    HW292155 -18.447   9.686   1.147
30050SOL     OW92156   3.677   2.572   8.544
30050SOL    HW192157   3.678   2.479 -46.678
30050SOL    HW292158  25.753   2.618 -68.817
30051SOL     OW92159   7.316   4.435   6.725
30051SOL    HW192160  -3.679   4.495  -4.255
30051SOL    HW292161   7.347   4.348   6.752
30052SOL     OW92162   9.936   3.797   3.138
30052SOL    HW192163   9.934  14.811   3.045
30052SOL    HW292164   9.858  -7.189   3.149
30053SOL     OW92165   4.800  10.408   9.300
30053SOL    HW192166   4.717  10.361   9.294
30053SOL    HW292167   4.854  10.370   9.231
30054SOL     OW92168   7.828  10.263   6.620
30054SOL    HW192169  -3.200  10.285   6.712
30054SOL    HW292170   7.783  21.218   6.621
30055SOL     OW92171   8.340   4.817   4.514
30055SOL    HW192172   8.261   4.868   4.498
30055SOL    HW292173 -13.671   4.883   4.527
30056SOL     OW92174   8.797   6.675   2.720
30056SOL    HW192175   8.816   6.750  13.815
30056SOL    HW292176  -2.235  17.748   2.630
30057SOL     OW92177   3.776  11.972   4.628
30057SOL    HW192178   3.820   0.963   4.708
30057SOL    HW292179  -7.207 -10.077   4.557
30058SOL     OW92180   6.115   1.200   3.787
30058SOL    HW192181  -4.902   1.281   3.833
30058SOL    HW292182  17.061   1.206  -7.268
30059SOL     OW92183   6.598   1.779   7.709
30059SOL    HW192184 -26.502  -9.351   7.734
30059SOL    HW292185   6.513   1.775  40.783
30060SOL     OW92186   2.979   4.355   1.662
30060SOL    HW192187  13.955   4.296   1.702
30060SOL    HW292188   2.996   4.316   1.576
30061SOL     OW92189   3.173   4.304   8.623
30061SOL    HW192190  -7.948 -17.750   8.666
30061SOL    HW292191  -7.799   4.353  19.710
30062SOL     OW92192   4.959  12.161   3.434
30062SOL    HW192193   4.968 -31.910   3.397
30062SOL    HW292194  16.074  12.113  14.438
30063SOL     OW92195   5.296   6.901   4.496
30063SOL    HW192196  -5.693   6.840   4.550
30063SOL    HW292197  16.246   6.867   4.500
30064SOL     OW92198   0.082   6.833   7.372
30064SOL    HW192199  11.111 -15.322  18.354
30064SOL    HW292200   0.126 -15.281  -3.590
30065SOL     OW92201   5.151   0.943   9.567
30065SOL    HW192202   5.217   0.953 -12.581
30065SOL    HW292203   5.188   0.876  -1.415
30066SOL     OW92204   6.932   1.329   1.879
30066SOL    HW192205   6.895   1.247  -9.194
30066SOL    HW292206  -4.182  34.506 -20.189
30067SOL     OW92207   7.680   7.299   4.500
30067SOL    HW192208   7.699   7.390   4.523
30067SOL    HW292209  -3.421   7.305 -17.652
30068SOL     OW92210   6.820   8.399   6.114
30068SOL    HW192211  17.854   8.495   6.113
30068SOL    HW292212   6.752   8.372   6.175
30069SOL     OW92213   4.915  13.078   9.774
30069SOL    HW192214   5.002   2.003 -12.288
30069SOL    HW292215   4.921 -20.001   9.688
30070SOL     OW92216   9.726   6.143   7.942
30070SOL    HW192217   9.705 -27.017   7.858
30070SOL    HW292218   9.782   6.079   7.987
30071SOL     OW92219   6.305   6.735  -1.154
30071SOL    HW192220 -26.736   6.775  -1.194
30071SOL    HW292221   6.331  28.724  31.982
30072SOL     OW92222   9.689   7.554   9.711
30072SOL    HW192223   9.675   7.459   9.719
30072SOL    HW292224   9.614  29.672   9.755
30073SOL     OW92225   3.999   3.889   2.489
30073SOL    HW192226  15.016  -7.058   2.478
30073SOL    HW292227  -6.974   3.873   2.423
30074SOL     OW92228   5.558   9.390   6.365
30074SOL    HW192229  16.634   9.393   6.454
30074SOL    HW292230  16.537  20.504   6.362
30075SOL     OW92231  10.659   2.565   8.934
30075SOL    HW192232  10.611  24.565 -24.159
30075SOL    HW292233  10.751  -8.498   8.944
30076SOL     OW92234   1.275   1.038   4.618
30076SOL    HW192235 -20.830   1.003  15.573
30076SOL    HW292236   1.201   1.018   4.676
30077SOL     OW92237   5.398   7.720   1.488
30077SOL    HW192238   5.431   7.748   1.402
30077SOL    HW292239   5.445  -3.400   1.507
30078SOL     OW92240   6.876   8.269   7.559
30078SOL    HW192241  28.861   8.277 -14.535
30078SOL    HW292242   6.884   8.195   7.620
30079SOL     OW92243   7.489   7.398   5.526
30079SOL    HW192244   7.555  -3.710  16.558
30079SOL    HW292245   7.513   7.462   5.459
30080SOL     OW92246   7.564   6.230   3.845
30080SOL    HW192247  -3.432   6.238   3.760
30080SOL    HW292248  -3.493   6.136   3.855
30081SOL     OW92249   5.881   9.464  10.643
30081SOL    HW192250   5.829  20.510  -0.477
30081SOL    HW292251   5.819   9.437  10.710
30082SOL     OW92252   9.574  10.686   7.366
30082SOL    HW192253   9.516  10.617  29.479
30082SOL    HW292254  31.725  10.690   7.429
30083SOL     OW92255   7.300   8.957  10.313
30083SOL    HW192256   7.362  20.045  10.257
30083SOL    HW292257   7.251  31.103  10.359
30084SOL     OW92258   6.149   7.030   7.853
30084SOL    HW192259   6.196 -15.120  18.849
30084SOL    HW292260  17.098   7.001  18.894
30085SOL     OW92261   2.189   5.050   5.687
30085SOL    HW192262   2.222  -5.908  -5.391
30085SOL    HW292263   2.132   5.079   5.758
30086SOL     OW92264   2.361   6.560   1.423
30086SOL    HW192265   2.351   6.465   1.416
30086SOL    HW292266   2.308  -4.455   1.498
30087SOL     OW92267   2.142   1.875   2.420
30087SOL    HW192268  13.116   1.931  -8.577
30087SOL    HW292269  -8.948  12.842   2.383
30088SOL     OW92270  10.424   4.067   5.172
30088SOL    HW192271  10.485   4.126   5.216
30088SOL    HW292272  10.362   4.041   5.240
30089SOL     OW92273   1.612   7.134  -0.314
30089SOL    HW192274  -9.498  -3.968  10.745
30089SOL    HW292275   1.685  -3.959  -0.344
30090SOL     OW92276  12.970   3.646   8.111
30090SOL    HW192277   1.996   3.709   8.081
30090SOL    HW292278 -20.194   3.619   8.031
30091SOL     OW92279   2.022   7.084   9.420
30091SOL    HW192280  -9.111  -3.976  20.453
30091SOL    HW292281   2.060 -15.071   9.465
30092SOL     OW92282   9.892   5.235   1.750
30092SOL    HW192283   9.868   5.243   1.658
30092SOL    HW292284   9.909   5.141   1.762
30093SOL     OW92285   1.073   0.283   8.541
30093SOL    HW192286   0.982  33.394   8.511
30093SOL    HW292287   1.093   0.376   8.531
30094SOL     OW92288   5.272   7.505   6.574
30094SOL    HW192289   5.358   7.534 -15.475
30094SOL    HW292290   5.242  18.615   6.516
30095SOL     OW92291   6.541   1.138   6.576
30095SOL    HW192292   6.601   1.072  28.621
30095SOL    HW292293   6.456   1.094   6.578
30096SOL     OW92294   9.294   7.208  10.899
30096SOL    HW192295  20.360   7.300  -0.151
30096SOL    HW292296   9.274  -3.840  -0.048
30097SOL     OW92297  10.672   9.067   7.961
30097SOL    HW192298  10.699   9.159 -14.113
30097SOL    HW292299  10.751  42.137   7.985
30098SOL     OW92300   7.222   2.069   7.972
30098SOL    HW192301  -3.762   2.111  -3.133
30098SOL    HW292302   7.174   2.141   8.013
30099SOL     OW92303   5.473   9.988   2.584
30099SOL    HW192304   5.468  10.082  13.609
30099SOL    HW292305   5.397 -12.111   2.639
30100SOL     OW92306   8.748   8.368   3.323
30100SOL    HW192307  -2.333  30.481   3.243
30100SOL    HW292308   8.789  -2.595   3.363
30101SOL     OW92309   1.016   3.328   0.533
30101SOL    HW192310   1.057  -7.797   0.520
30101SOL    HW292311   0.964  14.382   0.454
30102SOL     OW92312   4.125   7.251   9.089
30102SOL    HW192313  26.130   7.311  20.122
30102SOL    HW292314  15.147  18.224  20.062
30103SOL     OW92315   7.876   5.852   4.117
30103SOL    HW192316  18.836   5.851   4.170
30103SOL    HW292317 -14.140  16.840   4.166
30104SOL     OW92318   9.247   3.563   6.649
30104SOL    HW192319  -1.866  36.694   6.588
30104SOL    HW292320   9.311   3.629   6.622
30105SOL     OW92321  11.042   5.323   6.214
30105SOL    HW192322   0.021   5.407   6.256
30105SOL    HW292323 -11.019  -5.782   6.281
30106SOL     OW92324   4.756   1.548   9.918
30106SOL    HW192325  -6.210  12.551   9.869
30106SOL    HW292326  -6.243   1.587   9.996
30107SOL     OW92327   8.631   9.287   5.044
30107SOL    HW192328   8.688  -1.794 -16.970
30107SOL    HW292329   8.543   9.282 -28.036
30108SOL     OW92330   6.902   0.444  10.240
30108SOL    HW192331   6.854   0.365  10.262
30108SOL    HW292332  17.875   0.503  10.204
30109SOL     OW92333   0.437   5.443  10.855
30109SOL    HW192334   0.422   5.519  10.911
30109SOL    HW292335   0.375  16.417  10.887
30110SOL     OW92336   4.343   9.976   4.426
30110SOL    HW192337   4.434  10.004   4.422
30110SOL    HW292338   4.304  10.010  -6.694
30111SOL     OW92339  10.242  10.359   1.325
30111SOL    HW192340  10.279  10.294   1.385
30111SOL    HW292341  21.239  -0.616   1.382
30112SOL     OW92342   7.640   6.589   6.680
30112SOL    HW192343  -3.336   6.518   6.691
30112SOL    HW292344   7.614   6.584   6.588
30113SOL     OW92345   2.235   8.999   3.576
30113SOL    HW192346   2.177 -13.083   3.500
30113SOL    HW292347  13.348   8.943  -7.487
30114SOL     OW92348   5.900   9.420   1.533
30114SOL    HW192349 -16.152  -1.711   1.542
30114SOL    HW292350   5.921 -23.659  12.657
30115SOL     OW92351   2.749   9.263   2.818
30115SOL    HW192352   2.730   9.256   2.912
30115SOL    HW292353   2.839   9.232   2.810
30116SOL     OW92354  11.339   8.894  -0.965
30116SOL    HW192355   0.271  -2.110  -1.050
30116SOL    HW292356  11.422   8.939  21.132
30117SOL     OW92357   5.802   9.621   2.938
30117SOL    HW192358  -5.279   9.629   3.024
30117SOL    HW292359   5.797   9.527   2.918
30118SOL     OW92360  11.499   1.651   9.241
30118SOL    HW192361  11.426   1.591 -23.894
30118SOL    HW292362   0.523   1.598 -12.790
30119SOL     OW92363  10.770   4.688  -1.454
30119SOL    HW192364  10.817   4.612  31.699
30119SOL    HW292365  10.731  15.697  -1.536
30120SOL     OW92366  10.799   9.367   6.566
30120SOL    HW192367  10.783   9.413   6.483
30120SOL    HW292368 -33.446  31.439   6.606
30121SOL     OW92369   6.845   4.637   0.823
30121SOL    HW192370   6.856  -6.347   0.900
30121SOL    HW292371   6.933 -17.448   0.785
30122SOL     OW92372   8.469  11.974   9.164
30122SOL    HW192373  19.442 -10.038   9.179
30122SOL    HW292374   8.443  11.933 -12.997
30123SOL     OW92375   5.068   3.104   4.235
30123SOL    HW192376  16.189   3.114  37.304
30123SOL    HW292377   5.094   3.113   4.326
30124SOL     OW92378   4.172   8.360   1.416
30124SOL    HW192379   4.130   8.342   1.500
30124SOL    HW292380   4.201  41.570   1.423
30125SOL     OW92381   3.707   8.119  -0.330
30125SOL    HW192382   3.752   8.036  10.725
30125SOL    HW292383  25.761   8.150  -0.243
30126SOL     OW92384   2.963  -0.446   7.177
30126SOL    HW192385  -7.997  -0.492   7.151
30126SOL    HW292386   2.962  10.673  -3.915
30127SOL     OW92387   5.176   8.823   9.655
30127SOL    HW192388   5.206   8.752   9.598
30127SOL    HW292389 -16.836   8.891   9.645
30128SOL     OW92390   9.408   5.541   3.270
30128SOL    HW192391   9.354  27.594 -18.734
30128SOL    HW292392   9.437  16.669  -7.749
30129SOL     OW92393   5.756   8.516   7.059
30129SOL    HW192394   5.724   8.496   6.971
30129SOL    HW292395   5.849  19.577   7.046
30130SOL     OW92396  10.018   9.786   1.468
30130SOL    HW192397   9.970  31.789  -9.538
30130SOL    HW292398   9.962  -1.219   1.398
30131SOL     OW92399   5.695   0.043   3.482
30131SOL    HW192400   5.673  -0.050  -7.554
30131SOL    HW292401  38.753   0.084 -29.574
30132SOL     OW92402   1.984   7.396   9.431
30132SOL    HW192403   1.990   7.302  20.486
30132SOL    HW292404   1.917  -3.635  20.402
30133SOL     OW92405   3.375   2.278   2.032
30133SOL    HW192406  -7.709  13.329   2.116
30133SOL    HW292407   3.323   2.328   1.970
30134SOL     OW92408   5.632   9.110   0.117
30134SOL    HW192409  -5.467  20.147   0.192
30134SOL    HW292410 -16.485   9.176   0.058
30135SOL     OW92411   2.113   4.919   2.171
30135SOL    HW192412   2.182 -17.101   2.201
30135SOL    HW292413   2.142   4.832   2.197
30136SOL     OW92414  10.205   5.533   2.032
30136SOL    HW192415  10.227   5.456   2.084
30136SOL    HW292416  10.139   5.502  13.009
30137SOL     OW92417   2.763   2.730   0.333
30137SOL    HW192418 -41.453  24.862   0.278
30137SOL    HW292419  13.862   2.687  11.312
30138SOL     OW92420   2.355   1.001   4.733
30138SOL    HW192421  13.439   0.918   4.754
30138SOL    HW292422  13.344  12.021   4.655
30139SOL     OW92423   6.505  10.187   0.142
30139SOL    HW192424   6.477  10.256   0.082
30139SOL    HW292425   6.459  -0.833  11.263
30140SOL     OW92426   7.633   9.785   9.125
30140SOL    HW192427  -3.337   9.756   9.184
30140SOL    HW292428  18.612   9.711  20.160
30141SOL     OW92429   6.215  12.246   5.353
30141SOL    HW192430  -4.826  12.256   5.449
30141SOL    HW292431   6.216  -9.743  16.360
30142SOL     OW92432   6.114   5.607   6.180
30142SOL    HW192433   6.175  16.588 -26.895
30142SOL    HW292434   6.150  16.658   6.092
30143SOL     OW92435  10.056  10.604   5.059
30143SOL    HW192436  10.034  10.543   5.129
30143SOL    HW292437  10.075  10.548   4.983
30144SOL     OW92438   4.205   7.337   2.227
30144SOL    HW192439   4.178  40.466   2.135
30144SOL    HW292440   4.151   7.265   2.260
30145SOL     OW92441   9.823   2.014   2.159
30145SOL    HW192442   9.797   2.074   2.089
30145SOL    HW292443   9.900   2.055   2.198
30146SOL     OW92444   2.936   7.598   7.890
30146SOL    HW192445   2.956   7.660  18.860
30146SOL    HW292446   2.845  18.654   7.914
30147SOL     OW92447   5.755   3.807  10.877
30147SOL    HW192448  -5.330  25.970  10.874
30147SOL    HW292449  -5.201   3.822  10.832
30148SOL     OW92450   5.541  10.165   1.701
30148SOL    HW192451  -5.451 -22.981   1.779
30148SOL    HW292452   5.509  10.083   1.663
30149SOL     OW92453  10.004   4.350   4.513
30149SOL    HW192454   9.936   4.397   4.560
30149SOL    HW292455   9.974 -17.820   4.511
30150SOL     OW92456   6.330   1.654   8.947
30150SOL    HW192457   6.361   1.622   9.032
30150SOL    HW292458  17.275 -20.413   8.959
30151SOL     OW92459   3.388   0.260   4.842
30151SOL    HW192460   3.461  11.289  38.021
30151SOL    HW292461   3.407   0.200   4.770
30152SOL     OW92462   3.165   2.730   9.096
30152SOL    HW192463   3.177   2.740 -13.078
30152SOL    HW292464   3.132   2.815   9.125
30153SOL     OW92465   5.735   6.214   1.902
30153SOL    HW192466   5.818  17.298  12.926
30153SOL    HW292467   5.759  17.168  12.975
30154SOL     OW92468   1.402   7.214  10.028
30154SOL    HW192469   1.351  18.284 -23.016
30154SOL    HW292470   1.410   7.119  10.042
30155SOL     OW92471   4.517   5.440   2.519
30155SOL    HW192472   4.424   5.420   2.507
30155SOL    HW292473   4.532   5.430   2.613
30156SOL     OW92474   7.333   1.173   0.165
30156SOL    HW192475   7.328   1.081   0.137
30156SOL    HW292476   7.308   1.223   0.087
30157SOL     OW92477  -0.568   5.511  10.810
30157SOL    HW192478  10.503   5.428  10.845
30157SOL    HW292479  -0.489 -16.513  10.803
30158SOL     OW92480   1.988   0.637   9.418
30158SOL    HW192481  -9.096   0.709   9.463
30158SOL    HW292482 -20.045   0.678  20.385
30159SOL     OW92483   1.714  -0.406  10.766
30159SOL    HW192484   1.749  10.606  10.681
30159SOL    HW292485   1.619  -0.419  10.757
30160SOL     OW92486   3.904  10.802   6.777
30160SOL    HW192487   3.926  10.783   6.868
30160SOL    HW292488   3.872  10.893   6.779
30161SOL     OW92489   9.678   7.232   5.560
30161SOL    HW192490   9.690 -14.790   5.485
30161SOL    HW292491  -1.444   7.260   5.599
30162SOL     OW92492   4.962   3.251   1.081
30162SOL    HW192493   5.016 -18.848   1.005
30162SOL    HW292494   4.989  -7.853  -9.892
30163SOL     OW92495   7.186   2.255  -0.968
30163SOL    HW192496  18.131  -8.796  10.070
30163SOL    HW292497   7.217   2.190  10.135
30164SOL     OW92498   2.105   6.772  10.165
30164SOL    HW192499   2.028   6.790 -11.968
30164SOL    HW292500  13.159   6.678  10.155
30165SOL     OW92501  11.013   1.391   6.349
30165SOL    HW192502  10.924   1.375   6.318
30165SOL    HW292503  11.062  -9.724  -4.722
30166SOL     OW92504   7.182  -1.592   8.222
30166SOL    HW192505  40.337  -1.503   8.227
30166SOL    HW292506  18.294  31.470  -2.790
30167SOL     OW92507   4.200   8.684   2.165
30167SOL    HW192508   4.160  19.647   2.125
30167SOL    HW292509   4.294   8.666  13.201
30168SOL     OW92510   2.432   1.796   2.700
30168SOL    HW192511  -8.611   1.820   2.608
30168SOL    HW292512   2.513  -9.205  13.772
30169SOL     OW92513   5.745  10.485   2.823
30169SOL    HW192514   5.774  10.403   2.782
30169SOL    HW292515  -5.324  -0.501   2.749
30170SOL     OW92516   1.024   5.317   0.870
30170SOL    HW192517   1.090 -38.797   0.925
30170SOL    HW292518  12.115  -5.767   0.803
30171SOL     OW92519   3.947   5.122   9.581
30171SOL    HW192520 -18.141  27.137   9.651
30171SOL    HW292521   4.003   5.079   9.516
30172SOL     OW92522   6.286   7.125   5.639
30172SOL    HW192523  28.310   7.203  16.686
30172SOL    HW292524   6.263   7.087   5.554
30173SOL     OW92525   7.916   7.575  10.730
30173SOL    HW192526  -3.062   7.618  10.670
30173SOL    HW292527   7.906   7.487  10.695
30174SOL     OW92528   5.130   8.251   1.677
30174SOL    HW192529   5.205 -13.886 -20.417
30174SOL    HW292530   5.054   8.194   1.671
30175SOL     OW92531   4.259   6.994   6.451
30175SOL    HW192532   4.273   7.011   6.358
30175SOL    HW292533  -6.700   6.950   6.480
30176SOL     OW92534   6.666   7.041   5.839
30176SOL    HW192535   6.731  -4.066   5.859
30176SOL    HW292536   6.631   7.067   5.924
30177SOL     OW92537   1.039   1.418  10.509
30177SOL    HW192538   1.027   1.389  10.419
30177SOL    HW292539   1.008   1.344  -0.477
30178SOL     OW92540   0.818   7.756   4.404
30178SOL    HW192541  22.909   7.663   4.383
30178SOL    HW292542   0.877   7.771   4.478
30179SOL     OW92543  10.652   6.261   2.163
30179SOL    HW192544  10.687  17.332   2.080
30179SOL    HW292545  -0.317  17.316   2.226
30180SOL     OW92546   4.931   5.671   0.719
30180SOL    HW192547   4.970   5.644   0.636
30180SOL    HW292548  -6.132   5.589  11.803
30181SOL     OW92549   2.676   0.125  10.826
30181SOL    HW192550   2.705   0.045  10.871
30181SOL    HW292551   2.729   0.195  10.864
30182SOL     OW92552   5.239   2.239   1.550
30182SOL    HW192553   5.293   2.179   1.601
30182SOL    HW292554  16.193   2.197   1.546
30183SOL     OW92555   4.126   5.643   9.173
30183SOL    HW192556   4.090   5.567   9.218
30183SOL    HW292557  -6.961   5.718   9.210
30184SOL     OW92558  10.786   0.660   5.337
30184SOL    HW192559  10.769   0.571   5.365
30184SOL    HW292560  10.704   0.706   5.352
30185SOL     OW92561   9.060   3.189   2.159
30185SOL    HW192562   9.109   3.136   2.097
30185SOL    HW292563  20.136   3.277   2.151
30186SOL     OW92564  -0.055   7.721  11.180
30186SOL    HW192565  -0.142   7.684   0.124
30186SOL    HW292566  10.972   7.816   0.135
30187SOL     OW92567   7.144   8.531   1.167
30187SOL    HW192568   7.096  30.662  23.182
30187SOL    HW292569  18.251  19.631   1.200
30188SOL     OW92570   9.717   4.457   6.595
30188SOL    HW192571  -1.244  37.600   6.545
30188SOL    HW292572 -12.401  -6.500   6.621
30189SOL     OW92573   8.952   7.307   4.689
30189SOL    HW192574   9.026  18.292   4.664
30189SOL    HW292575  -2.057  18.436   4.678
30190SOL     OW92576   5.982   6.520   8.071
30190SOL    HW192577   5.886   6.527  -2.975
30190SOL    HW292578   6.011  28.589   7.981
30191SOL     OW92579  -0.109   9.997   4.489
30191SOL    HW192580  10.836   9.989   4.482
30191SOL    HW292581  -0.095  10.072  15.586
30192SOL     OW92582   6.697   5.135  10.638
30192SOL    HW192583 -15.396   5.146 -11.347
30192SOL    HW292584   6.621   5.086  10.608
30193SOL     OW92585  10.843   4.675   4.184
30193SOL    HW192586 -11.217   4.652   4.275
30193SOL    HW292587  10.830   4.591   4.140
30194SOL     OW92588   3.629   2.901   6.223
30194SOL    HW192589   3.692   2.874  28.235
30194SOL    HW292590   3.658   2.856   6.302
30195SOL     OW92591   0.030   2.246   6.700
30195SOL    HW192592   0.075   2.233  -4.423
30195SOL    HW292593  -0.057   2.276  17.715
30196SOL     OW92594   6.713   8.180   3.596
30196SOL    HW192595 -15.347   8.123  -7.369
30196SOL    HW292596   6.684 -13.959   3.528
30197SOL     OW92597  10.388   9.565  -0.567
30197SOL    HW192598  10.371   9.471  32.561
30197SOL    HW292599  10.483   9.574  -0.555
30198SOL     OW92600   3.575   3.315  11.018
30198SOL    HW192601  14.651 -40.788  11.087
30198SOL    HW292602   3.533  -7.663 -11.121
30199SOL     OW92603   2.805   8.325   3.707
30199SOL    HW192604   2.833   8.344  -7.422
30199SOL    HW292605   2.848  -2.648  14.801
30200SOL     OW92606   0.454   3.981   4.315
30200SOL    HW192607   0.421   4.027   4.392
30200SOL    HW292608   0.511   4.045   4.272
30201SOL     OW92609   7.133   0.698   8.063
30201SOL    HW192610  18.237  11.711 -36.161
30201SOL    HW292611   7.079   0.620   8.076
30202SOL     OW92612   1.413   7.051   2.605
30202SOL    HW192613  12.459  -3.936   2.685
30202SOL    HW292614 -20.617  18.010   2.626
30203SOL     OW92615   2.789   4.499   9.950
30203SOL    HW192616  13.794   4.580   9.910
30203SOL    HW292617   2.711  -6.590   9.974
30204SOL     OW92618   1.206   2.385   7.452
30204SOL    HW192619   1.254   2.393   7.369
30204SOL    HW292620  23.225  -8.580   7.452
30205SOL     OW92621   4.628   4.106  10.987
30205SOL    HW192622  -6.409   4.024  10.938
30205SOL    HW292623   4.641  26.160  11.078
30206SOL     OW92624   2.669   8.654   6.822
30206SOL    HW192625   2.726   8.714   6.871
30206SOL    HW292626  13.625  19.697   6.868
30207SOL     OW92627   2.527   7.981  11.032
30207SOL    HW192628  -8.564  -2.978   0.001
30207SOL    HW292629   2.617   8.011  11.019
30208SOL     OW92630   8.917   6.713  10.429
30208SOL    HW192631  42.001   6.798  10.403
30208SOL    HW292632   8.864   6.649  10.381
30209SOL     OW92633   2.523   1.832   9.923
30209SOL    HW192634  13.548  -9.159  10.004
30209SOL    HW292635   2.443   1.847  20.912
30210SOL     OW92636   7.029   0.269   2.512
30210SOL    HW192637  18.147   0.241   2.559
30210SOL    HW292638   7.061   0.297   2.427
30211SOL     OW92639   1.733   9.377   0.754
30211SOL    HW192640   1.655   9.359   0.702
30211SOL    HW292641 -20.374   9.365   0.844
30212SOL     OW92642   5.943   8.525   9.157
30212SOL    HW192643  16.910  19.616   9.121
30212SOL    HW292644  28.016   8.440   9.114
30213SOL     OW92645   9.759   4.604   1.966
30213SOL    HW192646   9.803   4.626   1.884
30213SOL    HW292647   9.826   4.617  24.112
30214SOL     OW92648   9.054  11.634   5.214
30214SOL    HW192649   9.030 -10.486   5.297
30214SOL    HW292650   8.978  11.619   5.157
30215SOL     OW92651  10.643  -0.036   7.180
30215SOL    HW192652  32.810  10.996   7.143
30215SOL    HW292653 -11.469   0.048   7.147
30216SOL     OW92654   1.154  10.283   0.602
30216SOL    HW192655  -9.885  -0.821   0.531
30216SOL    HW292656   1.247  10.290   0.627
30217SOL     OW92657   5.630   9.550   3.933
30217SOL    HW192658   5.721   9.525   3.947
30217SOL    HW292659   5.582  20.507   3.927
30218SOL     OW92660   7.483   3.842   2.261
30218SOL    HW192661  -3.551  -7.124  13.240
30218SOL    HW292662   7.506  14.805  13.248
30219SOL     OW92663  10.471   0.993   2.662
30219SOL    HW192664  10.388   0.995   2.615
30219SOL    HW292665  -0.590   1.025  13.789
30220SOL     OW92666   4.797   0.931   3.525
30220SOL    HW192667   4.724   0.960 -18.610
30220SOL    HW292668   4.866   0.994   3.508
30221SOL     OW92669   4.026   4.924  10.947
30221SOL    HW192670   3.994  16.027  10.882
30221SOL    HW292671  -6.922   4.912  10.925
30222SOL     OW92672   2.154   7.254   3.504
30222SOL    HW192673   2.097  18.367   3.482
30222SOL    HW292674   2.095   7.187 -18.539
30223SOL     OW92675   1.721   3.379   9.336
30223SOL    HW192676   1.775   3.433  20.318
30223SOL    HW292677   1.674   3.321  20.316
30224SOL     OW92678   0.206  10.963   3.678
30224SOL    HW192679   0.258 -22.213   3.734
30224SOL    HW292680   0.269  11.000  -7.423
30225SOL     OW92681   0.105   1.847   8.507
30225SOL    HW192682   0.113   1.925  19.492
30225SOL    HW292683   0.040 -20.208   8.573
30226SOL     OW92684   1.557   5.441   1.358
30226SOL    HW192685   1.534   5.376   1.425
30226SOL    HW292686   1.533   5.525   1.397
30227SOL     OW92687   2.288  13.434   6.259
30227SOL    HW192688  13.330  13.378 -15.743
30227SOL    HW292689  -8.761 -30.635   6.293
30228SOL     OW92690  -0.726   4.947   4.539
30228SOL    HW192691  -0.707   4.961   4.446
30228SOL    HW292692  21.427   4.895   4.571
30229SOL     OW92693   9.866   2.885  -1.732
30229SOL    HW192694   9.956   2.867  -1.706
30229SOL    HW292695  -1.222   2.888  31.469
30230SOL     OW92696   7.001   3.399   8.381
30230SOL    HW192697   6.947  -7.582 -13.751
30230SOL    HW292698   7.068   3.455   8.419
30231SOL     OW92699   8.088   7.290   6.138
30231SOL    HW192700   8.170   7.245   6.120
30231SOL    HW292701   8.093  18.410   6.086
30232SOL     OW92702   7.779   8.767   6.138
30232SOL    HW192703   7.692   8.732   6.159
30232SOL    HW292704   7.830   8.691  17.152
30233SOL     OW92705   1.287   9.712   7.317
30233SOL    HW192706  12.420  -1.333   7.339
30233SOL    HW292707  -9.791   9.634   7.357
30234SOL     OW92708   9.780   8.192   5.712
30234SOL    HW192709  31.880   8.285   5.708
30234SOL    HW292710   9.721   8.177   5.639
30235SOL     OW92711  10.664   7.659   2.805
30235SOL    HW192712  -0.412   7.731   2.856
30235SOL    HW292713  21.798   7.666   2.819
30236SOL     OW92714   0.215  10.699   6.842
30236SOL    HW192715  22.376  10.725   6.800
30236SOL    HW292716   0.204  -0.279   6.914
30237SOL     OW92717   5.226   9.351   9.515
30237SOL    HW192718   5.271   9.268   9.530
30237SOL    HW292719  -5.850   9.342   9.427
30238SOL     OW92720   9.007   1.052   4.613
30238SOL    HW192721   8.983   1.144   4.604
30238SOL    HW292722   9.102   1.051  -6.438
30239SOL     OW92723   4.820  11.437   4.788
30239SOL    HW192724  15.819  11.417   4.704
30239SOL    HW292725   4.865   0.316  -6.227
30240SOL     OW92726  10.323   7.674   8.108
30240SOL    HW192727  10.319   7.692   8.202
30240SOL    HW292728  10.416   7.667   8.088
30241SOL     OW92729  -1.029   6.927   2.117
30241SOL    HW192730  -0.995   6.860  13.097
30241SOL    HW292731  21.010   6.878   2.188
30242SOL     OW92732   7.057   5.969   8.756
30242SOL    HW192733   6.981   6.023   8.733
30242SOL    HW292734  -4.021   5.888   8.790
30243SOL     OW92735   1.496   8.435   2.830
30243SOL    HW192736   1.432  19.535   2.868
30243SOL    HW292737   1.581   8.472   2.854
30244SOL     OW92738   0.188  10.300   0.638
30244SOL    HW192739   0.131  10.375   0.654
30244SOL    HW292740   0.194  10.255  11.762
30245SOL     OW92741   6.334   3.651   1.285
30245SOL    HW192742   6.285  14.609   1.273
30245SOL    HW292743   6.279   3.705  -9.699
30246SOL     OW92744   8.644   5.684  10.964
30246SOL    HW192745   8.706   5.687  10.892
30246SOL    HW292746 -13.400   5.746  11.028
30247SOL     OW92747   6.212  -3.546   9.807
30247SOL    HW192748   6.123  40.637   9.829
30247SOL    HW292749   6.266  29.646   9.838
30248SOL     OW92750   7.827   8.945   5.286
30248SOL    HW192751   7.847   8.900  -5.835
30248SOL    HW292752   7.897   8.919   5.346
30249SOL     OW92753  -0.845   7.245  10.890
30249SOL    HW192754  32.344   7.187  10.858
30249SOL    HW292755  -0.826  18.296  10.983
30250SOL     OW92756   2.284   7.958  10.555
30250SOL    HW192757   2.360  18.995  10.614
30250SOL    HW292758   2.265  40.984  -0.502
30251SOL     OW92759  10.242  -0.391   4.340
30251SOL    HW192760  10.160  32.742   4.294
30251SOL    HW292761  -0.818  32.660  15.444
30252SOL     OW92762   7.874   5.172   1.618
30252SOL    HW192763   7.819  -5.930  12.706
30252SOL    HW292764   7.825   5.190   1.538
30253SOL     OW92765   9.849   3.109   5.396
30253SOL    HW192766   9.817   3.070   5.477
30253SOL    HW292767   9.817   3.051   5.326
30254SOL     OW92768   7.094   3.713   3.758
30254SOL    HW192769   7.107   3.618   3.753
30254SOL    HW292770   7.146   3.749   3.686
30255SOL     OW92771   8.655   1.866   8.634
30255SOL    HW192772  -2.386   1.960   8.653
30255SOL    HW292773   8.747   1.845   8.622
30256SOL     OW92774   8.135  10.751   2.803
30256SOL    HW192775  -2.999  10.732  35.922
30256SOL    HW292776   8.170 -22.426   2.735
30257SOL     OW92777   6.554   7.993   3.887
30257SOL    HW192778   6.547  30.064   3.982
30257SOL    HW292779   6.516  -3.127   3.853
30258SOL     OW92780   8.479  11.075   4.592
30258SOL    HW192781 -24.603  10.986   4.592
30258SOL    HW292782   8.423 -22.042  -6.525
30259SOL     OW92783   9.624   3.329   8.920
30259SOL    HW192784   9.710   3.339  -2.161
30259SOL    HW292785   9.600   3.238   8.902
30260SOL     OW92786  10.857   0.340   8.279
30260SOL    HW192787  10.798   0.325   8.353
30260SOL    HW292788  10.858   0.435   8.268
30261SOL     OW92789  10.671   5.147   0.490
30261SOL    HW192790  -0.444  -5.835   0.479
30261SOL    HW292791  10.734   5.176  11.464
30262SOL     OW92792   3.107   6.528   1.542
30262SOL    HW192793   3.182   6.504   1.487
30262SOL    HW292794   3.031   6.520  12.524
30263SOL     OW92795   8.713   5.718   1.483
30263SOL    HW192796   8.704  16.686  -9.620
30263SOL    HW292797   8.709  16.714   1.568
30264SOL     OW92798   9.764   6.275   9.274
30264SOL    HW192799   9.804   6.207   9.219
30264SOL    HW292800   9.702   6.319   9.216
30265SOL     OW92801   4.344   6.236   7.696
30265SOL    HW192802   4.337   6.253   7.790
30265SOL    HW292803  48.426   6.182  29.755
30266SOL     OW92804   6.785   2.418   1.229
30266SOL    HW192805   6.839  -8.699   1.212
30266SOL    HW292806   6.740  -8.640   1.311
30267SOL     OW92807   1.426  -0.554   7.670
30267SOL    HW192808   1.424  10.451 -14.320
30267SOL    HW292809   1.335  -0.532   7.650
30268SOL     OW92810   7.262   0.373   7.917
30268SOL    HW192811  18.310   0.326  -3.206
30268SOL    HW292812   7.349   0.411   7.931
30269SOL     OW92813   1.512   2.324  10.043
30269SOL    HW192814   1.558   2.390  10.094
30269SOL    HW292815 -20.500   2.261  21.057
30270SOL     OW92816   2.441   5.641  -0.296
30270SOL    HW192817   2.511   5.625  -0.360
30270SOL    HW292818   2.456 -16.502  10.813
30271SOL     OW92819   0.773   6.083   1.141
30271SOL    HW192820   0.826   6.005  34.244
30271SOL    HW292821   0.684   6.050  12.192
30272SOL     OW92822   5.314   9.214   9.985
30272SOL    HW192823   5.271  20.170   9.967
30272SOL    HW292824  -5.634   9.191 -23.120
30273SOL     OW92825   2.428   4.355   5.810
30273SOL    HW192826   2.477   4.287   5.855
30273SOL    HW292827   2.341  -6.723   5.795
30274SOL     OW92828  -0.245   7.272   5.956
30274SOL    HW192829  21.750  18.294   5.914
30274SOL    HW292830  -0.185   7.290  16.924
30275SOL     OW92831   2.367   4.307   8.412
30275SOL    HW192832   2.304   4.379   8.413
30275SOL    HW292833   2.398  -6.735   8.321
30276SOL     OW92834   4.961  -1.016   7.196
30276SOL    HW192835   4.898  -1.064 -14.937
30276SOL    HW292836   4.947  21.030   7.284
30277SOL     OW92837   0.577  10.955   4.159
30277SOL    HW192838   0.512  10.896   4.198
30277SOL    HW292839   0.653  10.898   4.142
30278SOL     OW92840   6.638   9.640   4.024
30278SOL    HW192841   6.603  -1.486   4.048
30278SOL    HW292842  -4.460   9.702   4.067
30279SOL     OW92843   3.471   8.836   0.009
30279SOL    HW192844   3.467   8.758   0.065
30279SOL    HW292845   3.394  19.869  -0.047
30280SOL     OW92846   0.593   3.444   8.518
30280SOL    HW192847   0.665   3.445  -2.584
30280SOL    HW292848   0.591  14.572   8.554
30281SOL     OW92849   3.256   0.263   8.203
30281SOL    HW192850   3.250   0.329   8.134
30281SOL    HW292851   3.319  11.338   8.266
30282SOL     OW92852   8.596   3.855  -0.905
30282SOL    HW192853  30.672  -7.109  54.235
30282SOL    HW292854   8.541   3.880  21.249
30283SOL     OW92855  11.297   7.949   8.920
30283SOL    HW192856  11.366   7.884  19.943
30283SOL    HW292857   0.287  -3.044   8.998
30284SOL     OW92858  10.895   5.347   2.947
30284SOL    HW192859  -0.194  -5.624  -8.048
30284SOL    HW292860 -11.244   5.313   2.881
30285SOL     OW92861   3.332   2.191   8.560
30285SOL    HW192862   3.401  -8.871   8.622
30285SOL    HW292863   3.290   2.267   8.599
30286SOL     OW92864   7.525   3.842   1.062
30286SOL    HW192865  18.581  -7.207   1.156
30286SOL    HW292866   7.466   3.916   1.055
30287SOL     OW92867   6.419   9.151   5.183
30287SOL    HW192868   6.354   9.155   5.253
30287SOL    HW292869   6.409   9.233   5.136
30288SOL     OW92870   1.478   4.053   3.486
30288SOL    HW192871   1.408  15.045  -7.509
30288SOL    HW292872   1.493   4.130   3.541
30289SOL     OW92873   3.154   5.153   7.014
30289SOL    HW192874   3.154   5.073   7.067
30289SOL    HW292875   3.071   5.196  18.075
30290SOL     OW92876   2.687  10.184   8.617
30290SOL    HW192877   2.777  10.180   8.585
30290SOL    HW292878   2.689  10.135   8.699
30291SOL     OW92879   1.103   1.671   4.439
30291SOL    HW192880   1.097   1.673   4.344
30291SOL    HW292881   1.055  -9.291   4.468
30292SOL     OW92882   2.298   9.452   7.185
30292SOL    HW192883   2.308   9.441   7.280
30292SOL    HW292884   2.240  31.607   7.176
30293SOL     OW92885  10.729   3.301   9.905
30293SOL    HW192886  10.649  25.328   9.907
30293SOL    HW292887  10.773  14.319  -1.053
30294SOL     OW92888   0.029   4.273   9.505
30294SOL    HW192889   0.119   4.304   9.507
30294SOL    HW292890   0.028   4.195   9.560
30295SOL     OW92891   3.528   5.030   5.199
30295SOL    HW192892   3.436  -6.014  16.211
30295SOL    HW292893   3.529  -5.939  27.343
30296SOL     OW92894   0.026   5.407   1.978
30296SOL    HW192895   0.037  16.476   2.069
30296SOL    HW292896  -0.068   5.395   1.967
30297SOL     OW92897   4.862   6.519   9.511
30297SOL    HW192898  15.869  17.483   9.462
30297SOL    HW292899  -6.133  -4.559   9.587
30298SOL     OW92900   4.619   1.927   0.739
30298SOL    HW192901  26.644   2.005  22.829
30298SOL    HW292902   4.591  -9.150   0.655
30299SOL     OW92903   7.561  10.297  10.138
30299SOL    HW192904  -3.417  10.303  -0.828
30299SOL    HW292905   7.512  10.379  10.141
30300SOL     OW92906  -0.151   9.438   3.449
30300SOL    HW192907  -0.076   9.453  25.585
30300SOL    HW292908  21.866   9.391  14.543
30301SOL     OW92909   6.419   8.880   7.586
30301SOL    HW192910   6.383   8.888   7.675
30301SOL    HW292911  -4.615   8.785   7.571
30302SOL     OW92912   7.593   8.930   7.165
30302SOL    HW192913   7.643   8.967   7.092
30302SOL    HW292914  18.657   8.838 -14.913
30303SOL     OW92915   9.476  10.410   1.966
30303SOL    HW192916  -1.576  10.428  23.952
30303SOL    HW292917   9.478  10.314   1.972
30304SOL     OW92918   6.779   1.956   5.793
30304SOL    HW192919   6.736   1.939   5.877
30304SOL    HW292920  17.881   2.026   5.812
30305SOL     OW92921  10.513   2.918   4.768
30305SOL    HW192922  10.582   2.981  15.785
30305SOL    HW292923  10.558   2.850   4.818
30306SOL     OW92924   8.170   1.172   8.800
30306SOL    HW192925  -2.882   1.248   8.858
30306SOL    HW292926   8.108   1.107 -13.246
30307SOL     OW92927   2.182   2.593   2.305
30307SOL    HW192928  -8.910  13.642  -8.655
30307SOL    HW292929 -19.834  35.643  -8.713
30308SOL     OW92930   7.767   3.548   3.391
30308SOL    HW192931   7.819   3.477   3.354
30308SOL    HW292932   7.684   3.545  -7.696
30309SOL     OW92933   2.714   7.387   7.702
30309SOL    HW192934  -8.315   7.481   7.718
30309SOL    HW292935  -8.401   7.362  18.795
30310SOL     OW92936   1.175  -1.529  11.355
30310SOL    HW192937  12.276  31.589  11.429
30310SOL    HW292938   1.093  20.584   0.353
30311SOL     OW92939   1.455   2.872   5.434
30311SOL    HW192940   1.495   2.959   5.430
30311SOL    HW292941  12.403   2.886   5.410
30312SOL     OW92942   1.966   2.353   4.778
30312SOL    HW192943   1.881   2.376   4.741
30312SOL    HW292944   1.970  -8.782  -6.269
30313SOL     OW92945   2.916   5.855   7.000
30313SOL    HW192946   2.976  16.915   6.928
30313SOL    HW292947   2.957   5.893  -3.962
30314SOL     OW92948   0.727   6.578   6.235
30314SOL    HW192949 -10.391   6.619  17.238
30314SOL    HW292950   0.776   6.651   6.274
30315SOL     OW92951   5.235   1.020   5.175
30315SOL    HW192952  16.189   1.062 -27.930
30315SOL    HW292953  16.288   0.965   5.253
30316SOL     OW92954   2.195   5.394   3.556
30316SOL    HW192955   2.255  -5.719   3.567
30316SOL    HW292956   2.125   5.378   3.620
30317SOL     OW92957   3.438   9.313   6.761
30317SOL    HW192958   3.445  20.361   6.666
30317SOL    HW292959   3.529   9.299   6.789
30318SOL     OW92960   1.961   7.955   1.650
30318SOL    HW192961   1.906   7.877   1.641
30318SOL    HW292962  24.045  19.009  12.784
30319SOL     OW92963   2.916   1.587   2.026
30319SOL    HW192964   2.949   1.676   2.026
30319SOL    HW292965  13.863   1.596  13.040
30320SOL     OW92966   6.920   3.981   2.908
30320SOL    HW192967   6.849   3.920   2.929
30320SOL    HW292968   6.953   3.952   2.823
30321SOL     OW92969   5.390   0.781   9.265
30321SOL    HW192970   5.383   0.692  20.340
30321SOL    HW292971 -16.712   0.772  -1.867
30322SOL     OW92972  12.578   1.404   0.891
30322SOL    HW192973   1.463 -20.732   0.904
30322SOL    HW292974  -9.442   1.354   0.835
30323SOL     OW92975   0.674   6.912   8.555
30323SOL    HW192976   0.585   6.941   8.534
30323SOL    HW292977   0.717   6.991   8.588
30324SOL     OW92978   4.110   3.906   8.901
30324SOL    HW192979   4.019   3.879  -2.155
30324SOL    HW292980   4.152  -7.212   8.936
30325SOL     OW92981   7.413   9.893   5.775
30325SOL    HW192982   7.356   9.921   5.703
30325SOL    HW292983   7.439   9.804  -5.288
30326SOL     OW92984   6.551   4.732   6.464
30326SOL    HW192985   6.479   4.796   6.463
30326SOL    HW292986   6.510  15.688   6.443
30327SOL     OW92987   1.995   5.321   9.374
30327SOL    HW192988   2.038  16.396  -1.743
30327SOL    HW292989 -20.087   5.394  -1.604
30328SOL     OW92990   1.698   4.452   0.379
30328SOL    HW192991   1.651   4.469   0.297
30328SOL    HW292992   1.730   4.362   0.370
30329SOL     OW92993  -1.640  12.960   9.703
30329SOL    HW192994   9.394   1.996   9.645
30329SOL    HW292995  42.471 -20.228  20.697
30330SOL     OW92996   5.933   9.484   4.014
30330SOL    HW192997  -5.090   9.408 -18.009
30330SOL    HW292998   5.987   9.470  -7.103
30331SOL     OW92999   3.943   2.147   7.676
30331SOL    HW193000   3.922  13.280   7.680
30331SOL    HW293001  -7.078   2.123  18.807
30332SOL     OW93002   1.533   0.064   8.845
30332SOL    HW193003   1.626  44.226   8.824
30332SOL    HW293004   1.502  22.232   8.828
30333SOL     OW93005  10.383   8.894   7.800
30333SOL    HW193006  10.330   8.935  -3.307
30333SOL    HW293007 -22.789   8.821   7.831
30334SOL     OW93008   7.344   2.827   0.256
30334SOL    HW193009   7.287   2.794   0.325
30334SOL    HW293010  18.344  24.989   0.229
30335SOL     OW93011   6.414   4.080   8.977
30335SOL    HW193012   6.325   4.089  20.051
30335SOL    HW293013  -4.624   4.139  19.941
30336SOL     OW93014  10.910   8.224   5.996
30336SOL    HW193015  10.904 -24.825   6.061
30336SOL    HW293016  10.997   8.186  39.128
30337SOL     OW93017   3.648   3.803   5.473
30337SOL    HW193018   3.669   3.804   5.566
30337SOL    HW293019  14.648  -7.151   5.456
30338SOL     OW93020   7.904   9.145   9.248
30338SOL    HW193021   7.823   9.191   9.226
30338SOL    HW293022 -14.107   9.192   9.200
30339SOL     OW93023   3.720   4.140  10.713
30339SOL    HW193024   3.791   4.118 -22.466
30339SOL    HW293025  -7.278   4.193  10.780
30340SOL     OW93026   3.332  -0.417   6.243
30340SOL    HW193027   3.409  10.628   6.187
30340SOL    HW293028   3.258  -0.403   6.184
30341SOL     OW93029   1.396   4.661   9.575
30341SOL    HW193030  -9.672   4.725   9.510
30341SOL    HW293031   1.342   4.584   9.558
30342SOL     OW93032   9.861   2.633   6.673
30342SOL    HW193033   9.876   2.589   6.757
30342SOL    HW293034  20.806   2.636   6.664
30343SOL     OW93035   0.872  10.167   4.627
30343SOL    HW193036   0.822  10.248   4.624
30343SOL    HW293037 -10.092  10.183   4.569
30344SOL     OW93038   0.313   3.777   4.540
30344SOL    HW193039   0.273   3.843   4.597
30344SOL    HW293040   0.403   3.769   4.572
30345SOL     OW93041   9.891   7.186   6.652
30345SOL    HW193042   9.796   7.193   6.664
30345SOL    HW293043   9.923 -14.803  -4.379
30346SOL     OW93044   2.204   5.903   5.943
30346SOL    HW193045  13.324   5.918   5.895
30346SOL    HW293046   2.232   5.874   6.030
30347SOL     OW93047   6.549   5.567   5.042
30347SOL    HW193048   6.611   5.576   5.114
30347SOL    HW293049 -15.508   5.638  27.061
30348SOL     OW93050  -0.163   4.127   4.092
30348SOL    HW193051  -0.135  15.125   4.011
30348SOL    HW293052  10.938  -6.840   4.104
30349SOL     OW93053  10.501   3.729   0.691
30349SOL    HW193054  10.524  36.872   0.602
30349SOL    HW293055  10.546  14.835   0.745
30350SOL     OW93056   0.702   7.424   5.863
30350SOL    HW193057  11.826 -14.690   5.891
30350SOL    HW293058  22.790  18.559  16.914
30351SOL     OW93059   4.018   2.010   2.173
30351SOL    HW193060  15.088   2.027   2.084
30351SOL    HW293061   4.027   2.093   2.219
30352SOL     OW93062   4.687   3.621   8.208
30352SOL    HW193063   4.698  58.846  19.338
30352SOL    HW293064   4.618  14.593   8.211
30353SOL     OW93065   1.565   6.463   1.864
30353SOL    HW193066   1.484  17.482  12.949
30353SOL    HW293067   1.579   6.556   1.881
30354SOL     OW93068   5.264   3.297   4.751
30354SOL    HW193069   5.181   3.253   4.769
30354SOL    HW293070 -16.840 -18.701  15.745
30355SOL     OW93071   3.856   2.840   9.572
30355SOL    HW193072   3.818   2.847  -1.555
30355SOL    HW293073   3.799   2.894   9.627
30356SOL     OW93074   5.740   8.147   9.340
30356SOL    HW193075   5.761  19.094   9.348
30356SOL    HW293076  -5.323  30.253   9.429
30357SOL     OW93077   1.155   5.241   4.939
30357SOL    HW193078   1.163   5.157   4.893
30357SOL    HW293079   1.089   5.289   4.890
30358SOL     OW93080   8.351   0.253   1.674
30358SOL    HW193081   8.335   0.225   1.764
30358SOL    HW293082  30.523   0.273   1.670
30359SOL     OW93083   3.715   7.740   6.999
30359SOL    HW193084   3.646  -3.248   7.041
30359SOL    HW293085   3.796   7.776  -4.006
30360SOL     OW93086  11.523   2.513   2.993
30360SOL    HW193087  11.599   2.459   2.972
30360SOL    HW293088 -10.625  13.523  -8.105
30361SOL     OW93089   1.110   1.392   9.255
30361SOL    HW193090  12.211   1.439   9.198
30361SOL    HW293091  12.064   1.427   9.232
30362SOL     OW93092   7.349  10.844   1.916
30362SOL    HW193093   7.299  10.771   1.952
30362SOL    HW293094   7.423  10.803   1.871
30363SOL     OW93095   1.715   0.976   4.028
30363SOL    HW193096   1.774   1.024  26.049
30363SOL    HW293097  12.766  23.096   4.113
30364SOL     OW93098   6.124   4.234   2.375
30364SOL    HW193099   6.131  -6.715 -19.733
30364SOL    HW293100   6.193   4.188  24.405
30365SOL     OW93101   8.379   3.203   0.663
30365SOL    HW193102   8.319  14.202  44.759
30365SOL    HW293103   8.450  14.178  11.712
30366SOL     OW93104   5.456   2.608   6.218
30366SOL    HW193105   5.518 -30.471   6.157
30366SOL    HW293106   5.417   2.682   6.265
30367SOL     OW93107   8.761  -0.415   1.405
30367SOL    HW193108   8.701  21.620  -9.574
30367SOL    HW293109   8.834  10.564  12.434
30368SOL     OW93110   4.712   3.430   7.789
30368SOL    HW193111   4.744   3.352   7.743
30368SOL    HW293112   4.689   3.491   7.719
30369SOL     OW93113   0.234   2.663   0.509
30369SOL    HW193114   0.161   2.715  11.517
30369SOL    HW293115   0.264   2.708   0.588
30370SOL     OW93116   6.274   9.383   0.101
30370SOL    HW193117  -4.799   9.472   0.114
30370SOL    HW293118   6.214   9.345   0.037
30371SOL     OW93119   0.231   6.560   4.240
30371SOL    HW193120   0.210 -48.576   4.310
30371SOL    HW293121   0.325   6.546  15.288
30372SOL     OW93122   3.069   6.421   2.481
30372SOL    HW193123  25.240   6.444   2.495
30372SOL    HW293124   3.020  -4.547 -19.556
30373SOL     OW93125   5.680  10.117   7.647
30373SOL    HW193126  49.897  21.138 -25.545
30373SOL    HW293127   5.737  -0.919   7.724
30374SOL     OW93128   0.257   4.785   0.417
30374SOL    HW193129   0.344  -6.220   0.398
30374SOL    HW293130  11.244  -6.229  44.500
30375SOL     OW93131   7.139   0.203   6.842
30375SOL    HW193132   7.094  11.325  -4.177
30375SOL    HW293133   7.068   0.140   6.830
30376SOL     OW93134   4.365  10.956   3.213
30376SOL    HW193135   4.390  10.997   3.296
30376SOL    HW293136  26.526  10.918 -18.899
30377SOL     OW93137   4.688   2.459   9.702
30377SOL    HW193138   4.777  -8.576   9.736
30377SOL    HW293139   4.691   2.388  20.678
30378SOL     OW93140   1.324  10.068   2.055
30378SOL    HW193141   1.388  -0.975  -9.055
30378SOL    HW293142  -9.751  -1.061  13.099
30379SOL     OW93143   4.156   4.186   6.079
30379SOL    HW193144  26.330   4.185   6.088
30379SOL    HW293145  15.162   4.146   6.159
30380SOL     OW93146  11.412   6.688   3.057
30380SOL    HW193147  11.506  50.864   3.052
30380SOL    HW293148 -10.709  17.804   3.018
30381SOL     OW93149   6.423   6.744   0.867
30381SOL    HW193150   6.513   6.719   0.888
30381SOL    HW293151  17.413   6.726   0.947
30382SOL     OW93152  10.399   2.000   4.549
30382SOL    HW193153  10.317   2.049   4.557
30382SOL    HW293154  10.398  24.046   4.460
30383SOL     OW93155   8.089   4.183  10.169
30383SOL    HW193156   8.015  15.188  10.119
30383SOL    HW293157   8.119   4.259  21.159
30384SOL     OW93158   1.602   6.007   5.390
30384SOL    HW193159   1.606   6.027  -5.743
30384SOL    HW293160   1.597   5.911   5.393
30385SOL     OW93161   2.855   2.601   8.396
30385SOL    HW193162   2.806   2.520 -13.690
30385SOL    HW293163   2.797  -8.380   8.447
30386SOL     OW93164   1.291   9.915   8.760
30386SOL    HW193165   1.249   9.991   8.721
30386SOL    HW293166   1.370   9.950  19.841
30387SOL     OW93167   3.689   0.183   2.604
30387SOL    HW193168   3.686  22.214  24.600
30387SOL    HW293169   3.606   0.232  13.646
30388SOL     OW93170   6.022   9.315   8.457
30388SOL    HW193171   6.061 -23.786   8.543
30388SOL    HW293172   6.086   9.262   8.411
30389SOL     OW93173   2.854   9.652   6.453
30389SOL    HW193174   2.928 -12.461   6.504
30389SOL    HW293175   2.805  -1.465  17.466
30390SOL     OW93176   8.258   4.526   9.086
30390SOL    HW193177   8.191   4.588   9.055
30390SOL    HW293178 -24.778  15.613   9.076
30391SOL     OW93179   1.181   9.242   5.879
30391SOL    HW193180   1.133   9.315   5.842
30391SOL    HW293181   1.226  20.318  28.034
30392SOL     OW93182   1.245   2.795   7.004
30392SOL    HW193183   1.299   2.858   7.053
30392SOL    HW293184   1.178  35.968   6.962
30393SOL     OW93185   3.223   3.534   6.573
30393SOL    HW193186 -29.808 -18.563   6.608
30393SOL    HW293187   3.223  -7.543  28.565
30394SOL     OW93188  10.338   8.591   4.112
30394SOL    HW193189  21.331  30.740   4.066
30394SOL    HW293190  10.414   8.635 -17.928
30395SOL     OW93191  -0.236   9.301   1.704
30395SOL    HW193192  -0.243   9.239 -20.447
30395SOL    HW293193  10.876   9.269   1.758
30396SOL     OW93194   1.124   6.859   8.916
30396SOL    HW193195   1.214  17.866  -2.132
30396SOL    HW293196   1.070   6.780 -13.164
30397SOL     OW93197   3.138   6.256   3.676
30397SOL    HW193198  25.240   6.294   3.591
30397SOL    HW293199  -7.920   6.164   3.656
30398SOL     OW93200   1.731   0.429   3.605
30398SOL    HW193201   1.782  11.527   3.661
30398SOL    HW293202   1.642  22.512   3.641
30399SOL     OW93203   7.262   7.057   9.159
30399SOL    HW193204   7.236  -4.055   9.214
30399SOL    HW293205  18.354   7.017   9.089
30400SOL     OW93206   2.266   5.216   8.169
30400SOL    HW193207   2.173   5.235   8.178
30400SOL    HW293208   2.299  16.325   8.111
30401SOL     OW93209   8.467   7.249   2.226
30401SOL    HW193210   8.540 -14.855   2.170
30401SOL    HW293211   8.410 -25.818  35.289
30402SOL     OW93212   8.549   5.926   1.398
30402SOL    HW193213   8.602   5.854 -20.646
30402SOL    HW293214   8.473   5.931   1.457
30403SOL     OW93215   6.915   8.628   5.762
30403SOL    HW193216   6.926   8.534  -5.264
30403SOL    HW293217   6.990   8.653   5.708
30404SOL     OW93218  11.138   9.337   9.886
30404SOL    HW193219  11.114   9.376   9.802
30404SOL    HW293220   0.194   9.348   9.892
30405SOL     OW93221   4.325  -0.453   9.059
30405SOL    HW193222   4.262  10.515   9.047
30405SOL    HW293223  15.363  -0.405   8.976
30406SOL     OW93224   7.986   9.319   9.464
30406SOL    HW193225  -3.103   9.375  -1.634
30406SOL    HW293226   8.028   9.255   9.407
30407SOL     OW93227   4.167   5.668   4.031
30407SOL    HW193228   4.207   5.584   4.007
30407SOL    HW293229  26.302   5.703   4.101
30408SOL     OW93230  10.039   2.374   1.103
30408SOL    HW193231  -1.052   2.388   1.023
30408SOL    HW293232  10.065   2.462   1.130
30409SOL     OW93233   6.417   0.469   7.319
30409SOL    HW193234  17.367 -10.601   7.301
30409SOL    HW293235  17.459  33.600   7.413
30410SOL     OW93236   9.050   9.800   5.835
30410SOL    HW193237  20.012   9.748  16.896
30410SOL    HW293238  31.198   9.735  16.858
30411SOL     OW93239   6.823   5.884  10.949
30411SOL    HW193240  -4.272   5.840  11.012
30411SOL    HW293241   6.800   5.977  10.958
30412SOL     OW93242  10.154   3.726   0.278
30412SOL    HW193243  10.076   3.674   0.300
30412SOL    HW293244  10.144  -7.294  22.264
30413SOL     OW93245   2.801   3.900   2.602
30413SOL    HW193246  -8.167   3.859   2.553
30413SOL    HW293247   2.844   3.942   2.676
30414SOL     OW93248   3.116   7.738   4.893
30414SOL    HW193249  -8.011  -3.340   4.886
30414SOL    HW293250   3.174   7.663   4.904
30415SOL     OW93251   3.735   6.622   7.801
30415SOL    HW193252 -18.435  17.632   7.803
30415SOL    HW293253  14.820   6.554   7.750
30416SOL     OW93254   5.630   1.102  10.026
30416SOL    HW193255   5.546  -9.922   9.982
30416SOL    HW293256   5.655   1.187  10.061
30417SOL     OW93257   2.053   2.063   5.851
30417SOL    HW193258  -8.909   2.028   5.808
30417SOL    HW293259   2.084   2.094   5.936
30418SOL     OW93260   3.437   6.839   7.813
30418SOL    HW193261   3.518   6.875   7.778
30418SOL    HW293262   3.454   6.827   7.906
30419SOL     OW93263  -2.157  -0.447  10.543
30419SOL    HW193264  31.021  -0.423 -11.608
30419SOL    HW293265  19.949  10.649  10.616
30420SOL     OW93266   5.932   5.323   5.072
30420SOL    HW193267  16.889   5.274  16.120
30420SOL    HW293268  -5.089   5.353  16.201
30421SOL     OW93269   4.996   2.883   9.440
30421SOL    HW193270  16.031   2.964   9.389
30421SOL    HW293271  -5.985  13.943   9.513
30422SOL     OW93272   8.697   2.322   7.898
30422SOL    HW193273   8.658  -8.651   7.842
30422SOL    HW293274 -24.380  13.411  19.008
30423SOL     OW93275   6.908   4.050  -0.000
30423SOL    HW193276   6.894  -7.016   0.091
30423SOL    HW293277   6.844   4.119  -0.016
30424SOL     OW93278  10.539   3.337   9.001
30424SOL    HW193279  -0.411   3.342   9.035
30424SOL    HW293280  10.549   3.335   8.906
30425SOL     OW93281   5.932   3.045   6.472
30425SOL    HW193282 -38.213   2.952   6.453
30425SOL    HW293283   5.932   3.087   6.386
30426SOL     OW93284  10.229   8.583   3.651
30426SOL    HW193285  -0.861  30.595   3.604
30426SOL    HW293286  -0.721   8.551  14.690
30427SOL     OW93287   6.570   9.516   7.346
30427SOL    HW193288   6.611   9.430   7.334
30427SOL    HW293289  -4.444   9.566 -25.851
30428SOL     OW93290   4.749  10.500   3.248
30428SOL    HW193291  15.865  10.470   3.199
30428SOL    HW293292   4.715  10.421   3.290
30429SOL     OW93293   4.750   7.903   8.285
30429SOL    HW193294   4.681   7.926  -2.691
30429SOL    HW293295 -17.257   7.871   8.339
30430SOL     OW93296   1.290   2.026   0.652
30430SOL    HW193297   1.280  13.055   0.746
30430SOL    HW293298  -9.710   1.944   0.622
30431SOL     OW93299   4.393   2.032   2.091
30431SOL    HW193300   4.400   1.937  46.259
30431SOL    HW293301   4.467   2.067   2.141
30432SOL     OW93302   8.833  10.485   2.156
30432SOL    HW193303   8.752  -0.600   2.179
30432SOL    HW293304   8.815  -0.516   2.070
30433SOL     OW93305   2.323   4.833   5.573
30433SOL    HW193306  -8.686   4.792   5.654
30433SOL    HW293307   2.278   4.913 -16.477
30434SOL     OW93308   7.477   6.276   6.614
30434SOL    HW193309  -3.472   6.306   6.609
30434SOL    HW293310  -3.564   6.214  28.766
30435SOL     OW93311   6.362  10.682   9.851
30435SOL    HW193312 -26.829  10.696   9.789
30435SOL    HW293313   6.320  10.676   9.937
30436SOL     OW93314   2.713   2.821   3.354
30436SOL    HW193315   2.636   2.869   3.323
30436SOL    HW293316   2.780  -8.202   3.287
30437SOL     OW93317  -3.037   0.010   6.041
30437SOL    HW193318   7.950  -0.065   6.012
30437SOL    HW293319  41.174  -0.023   6.113
30438SOL     OW93320   6.745   4.379   2.419
30438SOL    HW193321   6.835   4.347   2.413
30438SOL    HW293322   6.753   4.461   2.467
30439SOL     OW93323   8.920   6.459   5.482
30439SOL    HW193324  20.034  -4.617   5.433
30439SOL    HW293325  19.997   6.529   5.535
30440SOL     OW93326   8.508   2.077  10.551
30440SOL    HW193327   8.413 -19.997  10.545
30440SOL    HW293328   8.538   2.084  10.460
30441SOL     OW93329   1.440   6.613   5.570
30441SOL    HW193330   1.384   6.690   5.574
30441SOL    HW293331  12.563   6.646  -5.505
30442SOL     OW93332   2.884   2.317   8.628
30442SOL    HW193333   2.793  -8.703  -2.391
30442SOL    HW293334   2.928   2.402   8.630
30443SOL     OW93335   1.756   0.899   5.951
30443SOL    HW193336  -9.332   0.919 -16.208
30443SOL    HW293337  12.829 -10.057   5.981
30444SOL     OW93338  10.570   1.401   9.327
30444SOL    HW193339  10.659   1.434  -1.725
30444SOL    HW293340  10.517   1.456   9.270
30445SOL     OW93341   1.618  10.330   6.671
30445SOL    HW193342  23.680 -22.722   6.738
30445SOL    HW293343   1.649  10.254   6.721
30446SOL     OW93344  -0.319   5.198  10.691
30446SOL    HW193345  10.744   5.258  10.620
30446SOL    HW293346  -0.259   5.220  10.762
30447SOL     OW93347   1.058  11.985   1.837
30447SOL    HW193348   1.050 -21.226   1.815
30447SOL    HW293349   1.045  11.988   1.932
30448SOL     OW93350   4.562  11.832   4.226
30448SOL    HW193351  -6.553  11.863   4.175
30448SOL    HW293352   4.610 -10.304   4.165
30449SOL     OW93353   9.059   2.507   2.129
30449SOL    HW193354   8.979  13.560  13.218
30449SOL    HW293355  20.169   2.533   2.188
30450SOL     OW93356   0.685  10.605  -2.788
30450SOL    HW193357   0.649  10.518  19.308
30450SOL    HW293358   0.623  10.665  30.373
30451SOL     OW93359   0.975   1.577   9.518
30451SOL    HW193360   0.906   1.605 -12.502
30451SOL    HW293361   0.962   1.631   9.439
30452SOL     OW93362   6.013   8.215   6.838
30452SOL    HW193363   6.057  30.369   6.877
30452SOL    HW293364   6.018   8.146  -4.136
30453SOL     OW93365   7.075   5.390   1.445
30453SOL    HW193366  -3.931   5.447   1.514
30453SOL    HW293367   7.145   5.388   1.379
30454SOL     OW93368   3.490   6.793   8.082
30454SOL    HW193369   3.546   6.727  -2.916
30454SOL    HW293370   3.428   6.819   8.150
30455SOL     OW93371   1.637   1.656   0.813
30455SOL    HW193372   1.588   1.575   0.832
30455SOL    HW293373   1.633   1.705  11.934
30456SOL     OW93374   4.536   0.787   9.877
30456SOL    HW193375  15.651   0.804   9.821
30456SOL    HW293376   4.486   0.869   9.875
30457SOL     OW93377   7.562   9.814   5.423
30457SOL    HW193378   7.475   9.800   5.385
30457SOL    HW293379 -14.459  -1.223   5.347
30458SOL     OW93380   8.721  10.084   1.495
30458SOL    HW193381  -2.286  10.024   1.429
30458SOL    HW293382  19.714  10.151  -9.594
30459SOL     OW93383   2.349   7.693  10.775
30459SOL    HW193384   2.438   7.726  10.771
30459SOL    HW293385  35.477   7.600  10.795
30460SOL     OW93386   4.901   6.327   3.596
30460SOL    HW193387   4.933   6.262   3.533
30460SOL    HW293388   4.839  17.420   3.546
30461SOL     OW93389   6.354   8.931   6.025
30461SOL    HW193390   6.352   8.906   5.933
30461SOL    HW293391  -4.647  -2.184  -4.969
30462SOL     OW93392  10.526   2.433   9.712
30462SOL    HW193393  -0.514   2.518   9.669
30462SOL    HW293394  10.607  13.431   9.682
30463SOL     OW93395  10.545   6.946   7.813
30463SOL    HW193396  10.568   7.012   7.748
30463SOL    HW293397  10.591   6.867   7.785
30464SOL     OW93398  10.717   0.467   7.384
30464SOL    HW193399  -0.398   0.482  -3.599
30464SOL    HW293400  10.747  11.419   7.406
30465SOL     OW93401   7.880   3.489   4.625
30465SOL    HW193402   7.936  -7.616   4.585
30465SOL    HW293403   7.920   3.573   4.603
30466SOL     OW93404   3.742   8.703   5.624
30466SOL    HW193405   3.818   8.732  16.715
30466SOL    HW293406   3.732   8.610   5.647
30467SOL     OW93407   8.968   4.301   8.131
30467SOL    HW193408   9.019   4.249   8.070
30467SOL    HW293409   8.926 -39.921  -2.851
30468SOL     OW93410   0.792   8.072   5.757
30468SOL    HW193411   0.789   8.143   5.822
30468SOL    HW293412   0.880  19.117   5.720
30469SOL     OW93413   2.779   0.606   8.052
30469SOL    HW193414   2.843   0.569   8.113
30469SOL    HW293415   2.704   0.548  19.097
30470SOL     OW93416   8.032   3.528   2.743
30470SOL    HW193417   8.005  -7.603  13.774
30470SOL    HW293418   8.124  -7.511  24.797
30471SOL     OW93419   5.827  -0.894   1.571
30471SOL    HW193420   5.788  43.346   1.600
30471SOL    HW293421   5.845  -0.942  12.692
30472SOL     OW93422   8.677   6.194   9.674
30472SOL    HW193423   8.728   6.197   9.755
30472SOL    HW293424   8.597   6.147   9.698
30473SOL     OW93425   3.043   9.056  -1.854
30473SOL    HW193426   3.012  20.137  31.345
30473SOL    HW293427   2.963  -2.016  20.182
30474SOL     OW93428   5.236   0.093   1.266
30474SOL    HW193429   5.263   0.106 -20.722
30474SOL    HW293430  16.327   0.157   1.217
30475SOL     OW93431   6.705   2.233   2.018
30475SOL    HW193432  -4.259   2.174  -9.024
30475SOL    HW293433  28.723   2.196   1.954
30476SOL     OW93434   8.443   6.701   3.647
30476SOL    HW193435   8.370  -4.376   3.696
30476SOL    HW293436   8.403  -4.276  36.706
30477SOL     OW93437   4.826   3.160   3.230
30477SOL    HW193438   4.849   3.253   3.222
30477SOL    HW293439   4.802   3.134   3.141
30478SOL     OW93440   6.531   6.764   9.462
30478SOL    HW193441 -15.562 -15.300   9.556
30478SOL    HW293442   6.444  -4.264   9.423
30479SOL     OW93443  11.055  10.290  10.012
30479SOL    HW193444   0.050  10.220  10.066
30479SOL    HW293445   0.063  10.283   9.929
30480SOL     OW93446   6.452  10.906  -0.087
30480SOL    HW193447   6.366  10.945  44.087
30480SOL    HW293448   6.495  10.965  21.930
30481SOL     OW93449   0.336   3.601   3.007
30481SOL    HW193450   0.304   3.569   2.922
30481SOL    HW293451   0.257   3.610   3.061
30482SOL     OW93452   8.801   8.454   0.580
30482SOL    HW193453   8.763   8.515   0.643
30482SOL    HW293454   8.866  30.585   0.532
30483SOL     OW93455   2.670   0.702   2.384
30483SOL    HW193456   2.679   0.764   2.457
30483SOL    HW293457   2.597   0.737   2.332
30484SOL     OW93458   3.746   6.187   4.778
30484SOL    HW193459   3.666 -15.896   4.830
30484SOL    HW293460  14.857   6.182   4.842
30485SOL     OW93461   1.590   8.743   0.700
30485SOL    HW193462   1.517   8.764   0.759
30485SOL    HW293463  12.659   8.657   0.729
30486SOL     OW93464   1.167   9.140   2.012
30486SOL    HW193465  12.176   9.101  12.970
30486SOL    HW293466  12.279   9.084   2.041
30487SOL     OW93467   1.174   5.486   9.512
30487SOL    HW193468   1.079   5.481   9.502
30487SOL    HW293469   1.189   5.571   9.555
30488SOL     OW93470  10.184   3.879   1.119
30488SOL    HW193471  10.202   3.790   1.148
30488SOL    HW293472  21.173   3.918   1.191
30489SOL     OW93473  -1.385   8.717   1.384
30489SOL    HW193474  31.804   8.669   1.341
30489SOL    HW293475  20.632   8.737   1.314
30490SOL     OW93476   0.219   3.950   8.484
30490SOL    HW193477   0.155  14.933   8.527
30490SOL    HW293478   0.269   3.989   8.556
30491SOL     OW93479   5.959   6.741   2.170
30491SOL    HW193480   5.973  28.790   2.081
30491SOL    HW293481   5.892   6.809   2.162
30492SOL     OW93482   5.055   3.396   6.418
30492SOL    HW193483  16.006   3.396   6.454
30492SOL    HW293484   5.043  14.432  28.402
30493SOL     OW93485   5.079  10.365   7.521
30493SOL    HW193486   5.053  10.394   7.434
30493SOL    HW293487   5.131  -0.754   7.505
30494SOL     OW93488   2.274   4.632   3.757
30494SOL    HW193489   2.304  -6.342   3.693
30494SOL    HW293490  13.301   4.552  25.785
30495SOL     OW93491   2.079   0.782  10.690
30495SOL    HW193492   2.050   0.857  10.742
30495SOL    HW293493   2.126   0.821  10.617
30496SOL     OW93494   3.611   3.668   2.721
30496SOL    HW193495   3.654   3.622  35.767
30496SOL    HW293496   3.528  -7.340   2.684
30497SOL     OW93497   0.535   8.661  10.612
30497SOL    HW193498   0.469   8.645  -0.361
30497SOL    HW293499   0.594  30.804  10.652
30498SOL     OW93500   8.122   6.494   5.659
30498SOL    HW193501  41.213   6.513   5.748
30498SOL    HW293502  19.108   6.418   5.633
30499SOL     OW93503  -1.436   3.666   1.375
30499SOL    HW193504  20.575  14.643   1.355
30499SOL    HW293505   9.614  25.797   1.296
30500SOL     OW93506   5.392   3.585   1.156
30500SOL    HW193507   5.465   3.582   1.218
30500SOL    HW293508  -5.644   3.500   1.110
30501SOL     OW93509   8.231   1.798  10.105
30501SOL    HW193510   8.287   1.810  21.222
30501SOL    HW293511   8.261   1.717  10.066
30502SOL     OW93512   6.286   4.010  -0.370
30502SOL    HW193513  17.397   4.013  21.646
30502SOL    HW293514  17.300  15.141  -0.359
30503SOL     OW93515   3.172  10.921   3.762
30503SOL    HW193516  14.162  10.874   3.694
30503SOL    HW293517   3.105  10.946   3.826
30504SOL     OW93518   0.421   8.553   0.176
30504SOL    HW193519   0.363  -2.418   0.143
30504SOL    HW293520   0.413   8.558   0.271
30505SOL     OW93521   7.594   4.186   1.347
30505SOL    HW193522  -3.403   4.103   1.366
30505SOL    HW293523 -14.543   4.201  12.461
30506SOL     OW93524   0.656   9.315   8.478
30506SOL    HW193525  11.747   9.309   8.398
30506SOL    HW293526   0.577   9.263   8.460
30507SOL     OW93527   0.462   3.464   9.727
30507SOL    HW193528   0.553   3.490  20.753
30507SOL    HW293529   0.445   3.398   9.661
30508SOL     OW93530  -0.500   7.661   0.863
30508SOL    HW193531  -0.542   7.690   0.944
30508SOL    HW293532  21.672   7.656  11.925
30509SOL     OW93533   2.484   1.132  10.307
30509SOL    HW193534  13.481   1.215  10.332
30509SOL    HW293535   2.435   1.103  10.230
30510SOL     OW93536   0.944  10.487   3.904
30510SOL    HW193537  22.954  10.423   3.888
30510SOL    HW293538  11.957  10.565   3.856
30511SOL     OW93539   2.364   4.922   2.644
30511SOL    HW193540   2.438   4.930 -19.375
30511SOL    HW293541   2.369 -17.247   2.611
30512SOL     OW93542   0.743   6.933   2.185
30512SOL    HW193543   0.661   6.919   2.139
30512SOL    HW293544   0.723   6.911   2.276
30513SOL     OW93545   5.303   1.097   3.194
30513SOL    HW193546   5.251   1.089   3.114
30513SOL    HW293547   5.366  12.206  14.214
30514SOL     OW93548   0.603   9.975   7.832
30514SOL    HW193549   0.649  -1.037   7.753
30514SOL    HW293550   0.526  10.032  18.875
30515SOL     OW93551   7.532   3.395   3.657
30515SOL    HW193552  18.558   3.443  14.615
30515SOL    HW293553  29.523   3.382 -18.387
30516SOL     OW93554   7.688   5.435   9.079
30516SOL    HW193555   7.663   5.460   9.168
30516SOL    HW293556   7.623  -5.563   9.022
30517SOL     OW93557   4.172   9.912   5.443
30517SOL    HW193558   4.095   9.898   5.499
30517SOL    HW293559  26.214   9.924   5.356
30518SOL     OW93560   0.673   8.770   5.838
30518SOL    HW193561   0.769  19.814  -5.210
30518SOL    HW293562  33.759   8.834   5.775
30519SOL     OW93563   2.795   7.096  10.716
30519SOL    HW193564   2.760   7.185  10.708
30519SOL    HW293565   2.819  18.128  10.808
30520SOL     OW93566   4.024  -1.732  -0.400
30520SOL    HW193567   4.063   9.388  -0.433
30520SOL    HW293568   4.063  20.334  10.726
30521SOL     OW93569   1.805   7.396   8.528
30521SOL    HW193570  -9.198   7.460   8.590
30521SOL    HW293571   1.718  18.470  -2.533
30522SOL     OW93572   5.529  -0.101  10.799
30522SOL    HW193573   5.610  10.977  10.832
30522SOL    HW293574   5.466  -0.029  10.800
30523SOL     OW93575   3.159   0.781   0.793
30523SOL    HW193576  47.345   0.848   0.855
30523SOL    HW293577   3.220   0.789   0.720
30524SOL     OW93578   1.492   2.614   2.466
30524SOL    HW193579   1.528  13.565   2.462
30524SOL    HW293580   1.549  13.700  13.567
30525SOL     OW93581   2.279   5.114   5.347
30525SOL    HW193582   2.185  16.139   5.345
30525SOL    HW293583   2.297   5.136  -5.601
30526SOL     OW93584   1.916   7.208   8.815
30526SOL    HW193585  -9.140   7.253 -13.182
30526SOL    HW293586  -9.123   7.115   8.837
30527SOL     OW93587   2.598   2.938   5.339
30527SOL    HW193588  -8.386   2.998   5.290
30527SOL    HW293589   2.509   2.974   5.329
30528SOL     OW93590   4.424   6.893   5.386
30528SOL    HW193591   4.364   6.899 -16.767
30528SOL    HW293592   4.414   6.804   5.418
30529SOL     OW93593   7.457   4.589   5.123
30529SOL    HW193594  18.507   4.499   5.153
30529SOL    HW293595   7.386   4.585  -5.981
30530SOL     OW93596   5.189   2.257   9.462
30530SOL    HW193597   5.173   2.208   9.381
30530SOL    HW293598  -5.764  -8.743   9.450
30531SOL     OW93599   3.765   8.453   5.730
30531SOL    HW193600   3.844  -2.591  -5.363
30531SOL    HW293601  14.750   8.381   5.698
30532SOL     OW93602  -0.793  10.449   8.814
30532SOL    HW193603  21.256  10.539  -2.234
30532SOL    HW293604  -0.861  10.397   8.771
30533SOL     OW93605   7.857   8.248  -0.931
30533SOL    HW193606   7.918  19.214  21.155
30533SOL    HW293607  18.810  19.248  -0.924
30534SOL     OW93608  -0.371   4.984   2.496
30534SOL    HW193609  -0.434  16.080   2.452
30534SOL    HW293610  10.748   5.037   2.503
30535SOL     OW93611   7.298   4.358   8.628
30535SOL    HW193612  -3.755  -6.764  19.714
30535SOL    HW293613   7.335   4.332   8.544
30536SOL     OW93614   8.810   8.277   4.405
30536SOL    HW193615   8.723   8.236   4.414
30536SOL    HW293616   8.838   8.291   4.496
30537SOL     OW93617   0.567   1.440   2.910
30537SOL    HW193618  22.660   1.345   2.912
30537SOL    HW293619   0.620  12.513   2.982
30538SOL     OW93620   8.577   5.191   3.628
30538SOL    HW193621  -2.543   5.205   3.677
30538SOL    HW293622   8.593   5.274 -18.496
30539SOL     OW93623   2.118   6.077  -0.342
30539SOL    HW193624  -8.887   6.035  10.777
30539SOL    HW293625   2.091   6.004  -0.398
30540SOL     OW93626  10.526   9.307   8.721
30540SOL    HW193627  10.620   9.293   8.711
30540SOL    HW293628  -0.528   9.306   8.815
30541SOL     OW93629   2.838   6.530   7.464
30541SOL    HW193630   2.842   6.609  -3.629
30541SOL    HW293631   2.761   6.483   7.433
30542SOL     OW93632   1.013  10.598   7.516
30542SOL    HW193633   1.103  10.631   7.506
30542SOL    HW293634   1.023  10.503   7.521
30543SOL     OW93635   2.278   7.529   9.142
30543SOL    HW193636  24.277   7.580  20.196
30543SOL    HW293637   2.342   7.568  -1.838
30544SOL     OW93638   7.424   3.061   3.946
30544SOL    HW193639   7.442   3.121   4.019
30544SOL    HW293640   7.411  14.015   3.988
30545SOL     OW93641   2.033   2.248   4.028
30545SOL    HW193642   1.980  -8.767  15.144
30545SOL    HW293643 -19.956 -19.812  26.132
30546SOL     OW93644   0.712  10.853   5.862
30546SOL    HW193645   0.652  -0.150   5.797
30546SOL    HW293646   0.665  10.780   5.902
30547SOL     OW93647   7.602  10.257   0.948
30547SOL    HW193648   7.566  10.296   0.869
30547SOL    HW293649   7.586  21.203   0.938
30548SOL     OW93650   5.348   6.280   9.356
30548SOL    HW193651   5.307   6.255 -12.806
30548SOL    HW293652   5.348   6.199   9.408
30549SOL     OW93653   6.283   8.717   8.054
30549SOL    HW193654   6.316   8.739  30.221
30549SOL    HW293655   6.189 -13.374   8.066
30550SOL     OW93656   0.624   5.433   2.650
30550SOL    HW193657  11.727   5.420  13.760
30550SOL    HW293658   0.654  38.495  13.618
30551SOL     OW93659   6.759   1.696   8.525
30551SOL    HW193660 -15.392   1.747   8.562
30551SOL    HW293661  -4.202   1.731   8.567
30552SOL     OW93662   4.866   5.892   4.009
30552SOL    HW193663 -17.236   5.984   3.994
30552SOL    HW293664   4.872   5.884  -6.935
30553SOL     OW93665   5.227   5.187   8.982
30553SOL    HW193666   5.316   5.189   9.017
30553SOL    HW293667   5.219  -5.940 -13.136
30554SOL     OW93668   0.306   8.300   1.641
30554SOL    HW193669   0.273  -2.652   1.661
30554SOL    HW293670   0.266   8.244   1.708
30555SOL     OW93671   5.586   5.784  11.510
30555SOL    HW193672  -5.359  16.809   0.467
30555SOL    HW293673   5.576   5.868  11.554
30556SOL     OW93674   9.484   5.807  10.650
30556SOL    HW193675  20.567   5.767  -0.315
30556SOL    HW293676  20.587  16.911  10.617
30557SOL     OW93677   6.203   5.371   7.995
30557SOL    HW193678   6.201   5.444   7.932
30557SOL    HW293679   6.113  -5.699   7.999
30558SOL     OW93680   2.093   9.363   0.962
30558SOL    HW193681   2.046  -1.594  23.054
30558SOL    HW293682   2.165  -1.655  11.944
30559SOL     OW93683   7.408   2.373   7.638
30559SOL    HW193684   7.374  -8.582  29.687
30559SOL    HW293685   7.383  35.430   7.569
30560SOL     OW93686   5.264  11.467   1.899
30560SOL    HW193687   5.282  11.500   1.811
30560SOL    HW293688   5.350   0.420  12.979
30561SOL     OW93689   2.898   7.457   8.244
30561SOL    HW193690 -19.117   7.520   8.212
30561SOL    HW293691  36.004   7.396   8.170
30562SOL     OW93692   3.514  11.651   2.620
30562SOL    HW193693   3.507   0.679   2.553
30562SOL    HW293694   3.608  11.640   2.635
30563SOL     OW93695   7.137   2.424  10.689
30563SOL    HW193696   7.100  -8.530 -11.409
30563SOL    HW293697   7.229   2.431 -22.456
30564SOL     OW93698   1.817   0.787  11.425
30564SOL    HW193699   1.745  11.870  11.471
30564SOL    HW293700  -9.158  11.809 -10.586
30565SOL     OW93701  10.645   7.781   3.414
30565SOL    HW193702  -0.445   7.722   3.471
30565SOL    HW293703  -0.335   7.826   3.474
30566SOL     OW93704   6.387   8.507  10.173
30566SOL    HW193705   6.467   8.543  10.137
30566SOL    HW293706  -4.710   8.493  10.097
30567SOL     OW93707  10.414   4.302   7.678
30567SOL    HW193708  10.463   4.321  18.638
30567SOL    HW293709  10.433   4.211   7.698
30568SOL     OW93710   6.309   2.521   1.176
30568SOL    HW193711   6.389  -8.550   1.133
30568SOL    HW293712  -4.699   2.588  -9.803
30569SOL     OW93713   9.495   2.976  11.326
30569SOL    HW193714   9.428   3.033  11.362
30569SOL    HW293715   9.571   2.990 -10.697
30570SOL     OW93716   3.450   6.783   8.986
30570SOL    HW193717   3.531   6.733 -24.121
30570SOL    HW293718  -7.629   6.747 -13.173
30571SOL     OW93719   6.220   8.979   0.396
30571SOL    HW193720  -4.737  -2.106   0.412
30571SOL    HW293721   6.187   9.000   0.484
30572SOL     OW93722  -0.963   8.960   7.762
30572SOL    HW193723   9.997  -2.027   7.771
30572SOL    HW293724  10.065   8.888  -3.215
30573SOL     OW93725   0.338  10.153   9.946
30573SOL    HW193726   0.384  10.069   9.945
30573SOL    HW293727  11.431  10.209 -23.116
30574SOL     OW93728   6.479   4.145   1.397
30574SOL    HW193729   6.525  15.266   1.378
30574SOL    HW293730   6.493   4.132  12.531
30575SOL     OW93731   9.007   0.408   5.417
30575SOL    HW193732 -24.095   0.332   5.360
30575SOL    HW293733  -1.946   0.432   5.450
30576SOL     OW93734   7.462  10.314   6.207
30576SOL    HW193735   7.552  10.316   6.176
30576SOL    HW293736  -3.576  -0.673   6.287
30577SOL     OW93737   8.144   1.654   7.194
30577SOL    HW193738   8.061   1.685  -3.881
30577SOL    HW293739   8.199 -20.439   7.117
30578SOL     OW93740   7.676   7.785   2.137
30578SOL    HW193741  29.741  18.917   2.156
30578SOL    HW293742   7.613   7.765  -8.971
30579SOL     OW93743   2.954   8.110   3.119
30579SOL    HW193744   2.914   8.026  25.176
30579SOL    HW293745 -30.083  30.166   3.164
30580SOL     OW93746  11.043   1.513   1.583
30580SOL    HW193747  11.095   1.504   1.663
30580SOL    HW293748 -10.971   1.514  23.592
30581SOL     OW93749   7.080  10.804   9.093
30581SOL    HW193750  -3.971  -0.269   9.182
30581SOL    HW293751   7.135  10.882   9.103
30582SOL     OW93752   8.385   6.287   9.171
30582SOL    HW193753   8.379   6.338  -1.949
30582SOL    HW293754   8.453  -4.709   9.223
30583SOL     OW93755   7.131   4.679   6.748
30583SOL    HW193756  -3.947   4.634   6.673
30583SOL    HW293757   7.223  37.811   6.724
30584SOL     OW93758   8.411   6.938   2.222
30584SOL    HW193759  19.378   6.917 -19.916
30584SOL    HW293760   8.426   7.032  35.327
30585SOL     OW93761   5.853   0.468   1.690
30585SOL    HW193762   5.823   0.527  45.779
30585SOL    HW293763   5.781   0.406   1.702
30586SOL     OW93764   2.005   6.927   8.879
30586SOL    HW193765   2.010   6.916  -2.066
30586SOL    HW293766   2.080   6.877   8.845
30587SOL     OW93767   4.480   8.922   9.573
30587SOL    HW193768  15.595   8.926   9.631
30587SOL    HW293769  -6.606   9.004   9.589
30588SOL     OW93770   1.894  11.393   8.448
30588SOL    HW193771   1.966  11.437   8.492
30588SOL    HW293772   1.820   0.363   8.508
30589SOL     OW93773   4.036   0.193  10.438
30589SOL    HW193774  -7.078   0.225  10.487
30589SOL    HW293775   4.058   0.110  10.480
30590SOL     OW93776   2.710  -1.581  -0.479
30590SOL    HW193777 -19.423  20.551  32.698
30590SOL    HW293778   2.695   9.497  21.513
30591SOL     OW93779  10.950   6.419   8.942
30591SOL    HW193780  -0.046  28.490   9.027
30591SOL    HW293781 -11.189   6.344   8.939
30592SOL     OW93782   8.059   2.287  10.177
30592SOL    HW193783   8.079  -8.716  10.091
30592SOL    HW293784   8.123   2.217  10.189
30593SOL     OW93785   9.246   2.893   3.402
30593SOL    HW193786   9.262   2.817  25.427
30593SOL    HW293787   9.334 -19.154   3.425
30594SOL     OW93788   8.281   8.120   4.277
30594SOL    HW193789   8.322  19.075  15.300
30594SOL    HW293790   8.187   8.104   4.267
30595SOL     OW93791   7.028   7.897  10.010
30595SOL    HW193792   6.950   7.947   9.987
30595SOL    HW293793   7.079   7.892  20.968
30596SOL     OW93794   1.518   9.155   5.607
30596SOL    HW193795   1.457   9.099   5.654
30596SOL    HW293796   1.469   9.236   5.590
30597SOL     OW93797   9.564   9.872   1.993
30597SOL    HW193798   9.550   9.939   1.925
30597SOL    HW293799  20.525   9.876  13.086
30598SOL     OW93800   4.782   1.066   8.327
30598SOL    HW193801   4.779   0.973   8.349
30598SOL    HW293802  -6.336  23.160   8.274
30599SOL     OW93803   1.189   2.956   5.413
30599SOL    HW193804   1.187   2.929   5.321
30599SOL    HW293805   1.140   3.039  16.454
30600SOL     OW93806   6.538   0.268   9.721
30600SOL    HW193807   6.456   0.308  20.733
30600SOL    HW293808  17.646  11.363   9.682
30601SOL     OW93809   7.973   6.683   5.477
30601SOL    HW193810   8.025   6.624   5.531
30601SOL    HW293811   7.916   6.728  -5.500
30602SOL     OW93812   6.419  -1.730   2.517
30602SOL    HW193813   6.416  31.322   2.586
30602SOL    HW293814   6.343  20.330   2.462
30603SOL     OW93815   5.220   1.057   1.789
30603SOL    HW193816  16.341   1.023 -20.328
30603SOL    HW293817   5.158   1.059  12.756
30604SOL     OW93818   7.753   1.820   1.797
30604SOL    HW193819   7.703   1.751   1.754
30604SOL    HW293820   7.769   1.885  -9.311
30605SOL     OW93821   2.971   3.646   2.638
30605SOL    HW193822   2.984   3.697   2.557
30605SOL    HW293823   2.991   3.556  -8.427
30606SOL     OW93824   9.191   2.204   6.138
30606SOL    HW193825   9.099   2.209   6.110
30606SOL    HW293826   9.187  -8.854   6.231
30607SOL     OW93827   7.529  10.230   2.514
30607SOL    HW193828   7.482  10.277   2.445
30607SOL    HW293829 -14.484  21.331   2.545
30608SOL     OW93830   6.459   3.123   1.433
30608SOL    HW193831  17.495 -41.088  -9.686
30608SOL    HW293832  17.416   3.172   1.433
30609SOL     OW93833   6.783   6.280   4.639
30609SOL    HW193834  -4.319  -4.711   4.585
30609SOL    HW293835 -26.348 -15.763   4.727
30610SOL     OW93836   2.732   7.187   8.196
30610SOL    HW193837   2.800   7.165   8.260
30610SOL    HW293838   2.650   7.171  30.320
30611SOL     OW93839   3.697   0.396   2.818
30611SOL    HW193840   3.727   0.373 -19.173
30611SOL    HW293841   3.643   0.322   2.791
30612SOL     OW93842   2.645   8.035   2.030
30612SOL    HW193843   2.662   8.038   2.124
30612SOL    HW293844 -41.532  18.983 -31.107
30613SOL     OW93845   5.916   7.756   7.261
30613SOL    HW193846  -5.155  29.879   7.340
30613SOL    HW293847   5.984   7.697  29.371
30614SOL     OW93848   9.873   0.650   8.147
30614SOL    HW193849  -1.148  11.658   8.236
30614SOL    HW293850   9.958   0.676   8.113
30615SOL     OW93851   6.227   9.859   2.763
30615SOL    HW193852   6.273  -1.138  13.731
30615SOL    HW293853  17.214   9.928   2.804
30616SOL     OW93854   4.960   7.444   4.367
30616SOL    HW193855   4.999   7.521   4.325
30616SOL    HW293856   5.013   7.371   4.336
30617SOL     OW93857  13.393   1.988   0.258
30617SOL    HW193858  -8.613   1.932   0.284
30617SOL    HW293859  -8.760   1.929  11.286
30618SOL     OW93860  10.647   5.293  10.339
30618SOL    HW193861  21.777   5.318  21.357
30618SOL    HW293862  -0.427   5.370  10.385
30619SOL     OW93863   4.705   1.316   6.300
30619SOL    HW193864  15.802   1.247   6.333
30619SOL    HW293865   4.743   1.398   6.333
30620SOL     OW93866   9.768  10.645   3.295
30620SOL    HW193867   9.710  -0.399   3.372
30620SOL    HW293868   9.739  10.572   3.240
30621SOL     OW93869   6.208   2.021   9.404
30621SOL    HW193870   6.283   2.049   9.457
30621SOL    HW293871   6.209   2.078   9.328
30622SOL     OW93872   4.251   8.215   9.342
30622SOL    HW193873   4.240  30.333  31.334
30622SOL    HW293874   4.326   8.261  -1.660
30623SOL     OW93875   5.254   7.657   5.938
30623SOL    HW193876   5.194   7.606  16.922
30623SOL    HW293877 -16.883   7.711  -5.048
30624SOL     OW93878   5.015   2.788   2.513
30624SOL    HW193879  16.087   2.698   2.516
30624SOL    HW293880   5.094   2.842   2.506
30625SOL     OW93881   7.961   2.720   9.183
30625SOL    HW193882  -3.078   2.768  -1.774
30625SOL    HW293883   7.949   2.629   9.208
30626SOL     OW93884  10.160   7.890   1.292
30626SOL    HW193885 -11.867  18.933   1.373
30626SOL    HW293886  10.158   7.980   1.261
30627SOL     OW93887   1.988   3.480   2.022
30627SOL    HW193888   1.923  14.589   2.007
30627SOL    HW293889  46.131   3.418   1.951
30628SOL     OW93890   1.978   0.186   6.113
30628SOL    HW193891 -31.138  22.360   6.121
30628SOL    HW293892   2.008 -10.886   6.198
30629SOL     OW93893   1.615   4.061  13.340
30629SOL    HW193894  23.671   4.025 -41.944
30629SOL    HW293895  12.578   4.111   2.327
30630SOL     OW93896   6.173   2.788   8.287
30630SOL    HW193897   6.080   2.779   8.305
30630SOL    HW293898  17.235 -19.204 -13.758
30631SOL     OW93899   5.468   3.641  -2.363
30631SOL    HW193900   5.560   3.643  52.807
30631SOL    HW293901  -5.568   3.643  -2.268
30632SOL     OW93902   0.733   6.351   8.728
30632SOL    HW193903   0.722  17.383   8.823
30632SOL    HW293904   0.672 -15.659 -13.377
30633SOL     OW93905   0.327   8.862   4.513
30633SOL    HW193906   0.355  -2.119   4.442
30633SOL    HW293907   0.393   8.793  -6.525
30634SOL     OW93908   8.683  11.403   1.833
30634SOL    HW193909   8.668   0.295   1.899
30634SOL    HW293910   8.666  11.359  45.908
30635SOL     OW93911   9.235   4.477   8.121
30635SOL    HW193912   9.269   4.419   8.189
30635SOL    HW293913   9.173  -6.506  19.207
30636SOL     OW93914  -0.501   7.998   7.657
30636SOL    HW193915  10.495   8.014 -25.378
30636SOL    HW293916  10.616   8.055   7.659
30637SOL     OW93917   5.205   2.940   1.829
30637SOL    HW193918   5.220  -8.008   1.806
30637SOL    HW293919  27.208 -19.165   1.778
30638SOL     OW93920   8.441   0.003  11.677
30638SOL    HW193921   8.417  11.032   0.729
30638SOL    HW293922  19.494   0.098   0.627
30639SOL     OW93923   6.498   6.914   4.820
30639SOL    HW193924   6.528   6.828   4.790
30639SOL    HW293925   6.406   6.900   4.843
30640SOL     OW93926   1.082   5.699  -0.011
30640SOL    HW193927  23.147   5.608   0.017
30640SOL    HW293928   1.087   5.748  11.110
30641SOL     OW93929   7.798   8.696   7.748
30641SOL    HW193930   7.819   8.616   7.796
30641SOL    HW293931  -3.260   8.667   7.659
30642SOL     OW93932   7.763   6.806  11.763
30642SOL    HW193933   7.727   6.882   0.769
30642SOL    HW293934 -14.305   6.740 -21.287
30643SOL     OW93935   8.203   0.946   5.380
30643SOL    HW193936  -2.817   1.039  -5.671
30643SOL    HW293937   8.161   0.941   5.466
30644SOL     OW93938   6.616   2.696   4.688
30644SOL    HW193939  17.699   2.756   4.748
30644SOL    HW293940  39.675 -19.328  15.677
30645SOL     OW93941   4.139   4.340   2.489
30645SOL    HW193942   4.165   4.417   2.540
30645SOL    HW293943   4.188   4.267   2.528
30646SOL     OW93944   0.714   0.187   9.655
30646SOL    HW193945  11.670   0.222   9.687
30646SOL    HW293946   0.737   0.119   9.719
30647SOL     OW93947   7.392   3.759  10.999
30647SOL    HW193948   7.446   3.716  10.933
30647SOL    HW293949   7.389  -7.341  11.072
30648SOL     OW93950   8.557   7.232   6.229
30648SOL    HW193951   8.543  18.306  17.356
30648SOL    HW293952   8.530   7.302   6.170
30649SOL     OW93953   4.173   0.690   3.710
30649SOL    HW193954   4.267   0.673   3.718
30649SOL    HW293955   4.150   0.739 -18.290
30650SOL     OW93956   5.450   8.760   5.351
30650SOL    HW193957   5.526   8.799 -16.772
30650SOL    HW293958   5.428  19.861  -5.619
30651SOL     OW93959   7.322   7.914   4.170
30651SOL    HW193960   7.274   7.990   4.204
30651SOL    HW293961   7.297  18.949   4.078
30652SOL     OW93962   8.676   4.361   2.199
30652SOL    HW193963   8.655   4.376   2.107
30652SOL    HW293964   8.608   4.408   2.247
30653SOL     OW93965   5.253   1.898   0.725
30653SOL    HW193966   5.251   1.977   0.779
30653SOL    HW293967   5.198   1.920   0.650
30654SOL     OW93968   6.588   0.223   1.567
30654SOL    HW193969  -4.367   0.203   1.527
30654SOL    HW293970   6.531   0.151  -9.500
30655SOL     OW93971  10.917   4.984   5.902
30655SOL    HW193972  10.973   4.907 -16.174
30655SOL    HW293973  10.905   5.009   5.994
30656SOL     OW93974   6.248   3.227   1.110
30656SOL    HW193975   6.343  14.256   1.101
30656SOL    HW293976   6.215   3.233   1.021
30657SOL     OW93977   7.858   6.847   5.986
30657SOL    HW193978   7.863   6.930   6.033
30657SOL    HW293979   7.949   6.826   5.964
30658SOL     OW93980   8.147   8.432   8.414
30658SOL    HW193981   8.072 -13.706  -2.628
30658SOL    HW293982   8.213   8.388  -2.679
30659SOL     OW93983  10.581   9.031   8.524
30659SOL    HW193984  10.618   9.105   8.572
30659SOL    HW293985  -0.385   8.971   8.513
30660SOL     OW93986   5.616   7.182   0.405
30660SOL    HW193987  -5.469  29.314  11.379
30660SOL    HW293988   5.552  29.249   0.475
30661SOL     OW93989   5.731   5.870   7.841
30661SOL    HW193990   5.778  28.022   7.884
30661SOL    HW293991   5.640   5.881   7.868
30662SOL     OW93992   1.943   4.850   1.947
30662SOL    HW193993   2.009   4.864   2.016
30662SOL    HW293994   1.964  15.804   1.911
30663SOL     OW93995   4.957   2.436   2.569
30663SOL    HW193996   5.038   2.477 -19.539
30663SOL    HW293997  27.028  -8.580   2.661
30664SOL     OW93998   3.663   4.757   6.837
30664SOL    HW193999   3.579  15.842  -4.200
30664SOL    HW294000   3.672   4.718 -15.156
30665SOL     OW94001   9.814   0.197   8.883
30665SOL    HW194002   9.868 -10.764   8.870
30665SOL    HW294003   9.861  22.225   8.949
30666SOL     OW94004   3.463   1.047   7.235
30666SOL    HW194005  14.537  12.033   7.164
30666SOL    HW294006   3.371  12.061   7.242
30667SOL     OW94007   3.477  10.350  -0.253
30667SOL    HW194008   3.571 -11.716  32.881
30667SOL    HW294009   3.435 -11.658  -0.204
30668SOL     OW94010   4.920   7.911  12.263
30668SOL    HW194011  -6.197   7.951   1.262
30668SOL    HW294012   4.974   7.985   1.195
30669SOL     OW94013   7.363   6.060   6.274
30669SOL    HW194014   7.315   6.034   6.352
30669SOL    HW294015   7.362 -38.003 -15.803
30670SOL     OW94016  -1.200   6.173   7.204
30670SOL    HW194017   9.881  -4.945   7.169
30670SOL    HW294018   9.863   6.242   7.142
30671SOL     OW94019   4.931   9.845  10.126
30671SOL    HW194020   4.986   9.796  21.104
30671SOL    HW294021   4.910   9.926  -0.960
30672SOL     OW94022  10.842   1.569   2.118
30672SOL    HW194023  10.790   1.531   2.047
30672SOL    HW294024  10.910   1.619   2.072
30673SOL     OW94025   6.752   7.014   1.757
30673SOL    HW194026  28.741   6.982   1.754
30673SOL    HW294027   6.805   6.938   1.734
30674SOL     OW94028   3.234   5.835   6.599
30674SOL    HW194029  14.208   5.896   6.633
30674SOL    HW294030  14.261   5.755  -4.391
30675SOL     OW94031  13.419   9.208   3.951
30675SOL    HW194032 -30.701   9.177   4.033
30675SOL    HW294033   2.421   9.293  -7.104
30676SOL     OW94034   7.423   0.106   7.411
30676SOL    HW194035  40.451  44.294  18.451
30676SOL    HW294036   7.466  11.199  18.384
30677SOL     OW94037   3.375   4.158   5.230
30677SOL    HW194038   3.326 -17.841 -16.865
30677SOL    HW294039   3.467   4.186 -16.851
30678SOL     OW94040   6.101  11.146   4.827
30678SOL    HW194041   6.142 -10.854   4.862
30678SOL    HW294042   6.012   0.108   4.862
30679SOL     OW94043   8.116   4.620   4.844
30679SOL    HW194044  30.170   4.542   4.894
30679SOL    HW294045   8.036   4.673   4.841
30680SOL     OW94046   8.571   7.569   7.969
30680SOL    HW194047   8.642  -3.474   7.905
30680SOL    HW294048   8.513 -25.622   7.945
30681SOL     OW94049   7.379  11.583   6.818
30681SOL    HW194050   7.316  11.524   6.777
30681SOL    HW294051  18.394 -10.409  17.826
30682SOL     OW94052   9.324   6.782  10.053
30682SOL    HW194053   9.356 -15.288  10.143
30682SOL    HW294054   9.397   6.811   9.999
30683SOL     OW94055   7.772   6.042   5.567
30683SOL    HW194056   7.850 -27.085  16.551
30683SOL    HW294057   7.765   6.136   5.583
30684SOL     OW94058   7.392   5.847   3.048
30684SOL    HW194059 -14.621   5.860  -8.059
30684SOL    HW294060   7.360 -16.144   3.068
30685SOL     OW94061   8.537  10.131   4.619
30685SOL    HW194062  41.727 -23.035  15.616
30685SOL    HW294063   8.563  32.302  15.656
30686SOL     OW94064   7.029   8.207   5.373
30686SOL    HW194065   7.031   8.237   5.282
30686SOL    HW294066  -4.102  19.258   5.400
30687SOL     OW94067   2.440   0.974   3.438
30687SOL    HW194068   2.405   1.042   3.495
30687SOL    HW294069   2.474   0.908   3.499
30688SOL     OW94070   6.951   9.826   1.699
30688SOL    HW194071   6.866   9.782   1.690
30688SOL    HW294072   6.940   9.884   1.775
30689SOL     OW94073  10.853   7.646   7.333
30689SOL    HW194074  10.792  18.612   7.337
30689SOL    HW294075  10.929   7.612   7.286
30690SOL     OW94076  10.980   9.968   8.481
30690SOL    HW194077  22.000   9.894   8.538
30690SOL    HW294078  -0.065  10.045   8.538
30691SOL     OW94079   9.858  10.818  10.004
30691SOL    HW194080  -1.143  10.906  21.047
30691SOL    HW294081   9.789  10.824   9.938
30692SOL     OW94082  11.330  10.803   3.922
30692SOL    HW194083  11.251  10.755   3.948
30692SOL    HW294084   0.349  -0.304   3.889
30693SOL     OW94085   7.001   7.301  10.504
30693SOL    HW194086  17.959   7.269  10.544
30693SOL    HW294087   7.028  -3.666  10.559
30694SOL     OW94088  10.513   3.355  10.401
30694SOL    HW194089  10.557  14.369  10.320
30694SOL    HW294090  10.495  14.488  10.390
30695SOL     OW94091  10.098   4.720   5.103
30695SOL    HW194092  -0.911  26.827   5.017
30695SOL    HW294093  10.005   4.702  16.131
30696SOL     OW94094   9.643  10.393   6.626
30696SOL    HW194095   9.722  10.349   6.657
30696SOL    HW294096   9.616  10.342   6.550
30697SOL     OW94097   1.761   4.505   5.842
30697SOL    HW194098   1.809  15.619   5.806
30697SOL    HW294099   1.745   4.529   5.934
30698SOL     OW94100  -0.071   8.975   3.089
30698SOL    HW194101  -0.004  -2.131   3.103
30698SOL    HW294102  10.891   8.941   3.133
30699SOL     OW94103   1.576   9.597   8.489
30699SOL    HW194104   1.573  20.641   8.585
30699SOL    HW294105   1.563  20.543   8.470
30700SOL     OW94106   1.540   2.437   8.538
30700SOL    HW194107  -9.457   2.352   8.534
30700SOL    HW294108   1.464   2.429   8.479
30701SOL     OW94109   7.088   1.078   5.714
30701SOL    HW194110   7.099  -9.881   5.662
30701SOL    HW294111   7.008   1.094  16.803
30702SOL     OW94112   7.076   9.132   1.387
30702SOL    HW194113  -3.982   9.103  -9.743
30702SOL    HW294114  18.210  -1.916   1.396
30703SOL     OW94115  -0.356   8.642   2.760
30703SOL    HW194116  -0.266   8.652  -8.249
30703SOL    HW294117  21.691   8.731  -8.289
30704SOL     OW94118   4.502  -1.134   3.681
30704SOL    HW194119  37.636   9.974  14.785
30704SOL    HW294120  15.525   9.953 -18.480
30705SOL     OW94121   0.030   8.701   7.605
30705SOL    HW194122   0.015  30.848  29.619
30705SOL    HW294123   0.005   8.620  29.640
30706SOL     OW94124  10.273   5.049   5.745
30706SOL    HW194125 -22.788   5.021  16.855
30706SOL    HW294126  10.274  16.017   5.682
30707SOL     OW94127   7.569   9.551   2.425
30707SOL    HW194128   7.658   9.586  -8.616
30707SOL    HW294129   7.536   9.565   2.336
30708SOL     OW94130   9.801   6.822   4.198
30708SOL    HW194131   9.785   6.914   4.178
30708SOL    HW294132 -12.289  -4.224  -6.746
30709SOL     OW94133   3.856   9.283   1.889
30709SOL    HW194134   3.835   9.376  12.926
30709SOL    HW294135  -7.247  20.285 -20.129
30710SOL     OW94136   8.333   8.736   0.678
30710SOL    HW194137   8.427 -13.353   0.666
30710SOL    HW294138   8.294   8.681   0.609
30711SOL     OW94139   3.933   3.522   8.155
30711SOL    HW194140  26.058   3.598   8.120
30711SOL    HW294141   3.888   3.484   8.079
30712SOL     OW94142   4.492   7.831  12.164
30712SOL    HW194143  -6.477   7.781  12.122
30712SOL    HW294144 -17.548   7.916  -9.897
30713SOL     OW94145   4.337  -1.411   2.666
30713SOL    HW194146 -17.707   9.668   2.746
30713SOL    HW294147   4.331  20.741   2.604
30714SOL     OW94148   4.574   1.435   8.007
30714SOL    HW194149 -17.421   1.413 -14.033
30714SOL    HW294150   4.520   1.465   8.080
30715SOL     OW94151   4.684   0.333   2.808
30715SOL    HW194152   4.675   0.303   2.717
30715SOL    HW294153   4.621   0.280   2.856
30716SOL     OW94154   0.789   7.932   6.978
30716SOL    HW194155   0.826   7.999   6.921
30716SOL    HW294156   0.860 -14.168  -4.000
30717SOL     OW94157  10.670   1.360  11.147
30717SOL    HW194158  10.697   1.282  11.099
30717SOL    HW294159  -0.435   1.329   0.170
30718SOL     OW94160   7.061   5.545   3.798
30718SOL    HW194161   7.041  16.639  25.953
30718SOL    HW294162   7.025   5.594  14.763
30719SOL     OW94163   6.424   7.423   0.661
30719SOL    HW194164  -4.677   7.422  22.813
30719SOL    HW294165   6.372   7.454   0.586
30720SOL     OW94166   9.601  -1.072   7.320
30720SOL    HW194167   9.671  32.109   7.298
30720SOL    HW294168  -1.394  -1.156   7.326
30721SOL     OW94169   4.913   7.246   5.598
30721SOL    HW194170   4.984   7.190   5.567
30721SOL    HW294171   4.881   7.202   5.677
30722SOL     OW94172  -0.944   6.303   5.391
30722SOL    HW194173  -0.975   6.351   5.314
30722SOL    HW294174  21.061   6.246  -5.625
30723SOL     OW94175   5.733   3.119   7.703
30723SOL    HW194176  -5.282   3.200 -25.372
30723SOL    HW294177   5.815  14.125   7.666
30724SOL     OW94178   9.775   9.545  10.116
30724SOL    HW194179   9.784   9.460  10.160
30724SOL    HW294180  31.848   9.608  21.228
30725SOL     OW94181   0.704   9.956   8.331
30725SOL    HW194182   0.725  -1.025   8.258
30725SOL    HW294183   0.644  10.007   8.386
30726SOL     OW94184   3.481   3.545  11.561
30726SOL    HW194185   3.401   3.558  11.611
30726SOL    HW294186 -29.638   3.616   0.457
30727SOL     OW94187   5.126   8.246   3.543
30727SOL    HW194188  16.136   8.253  14.492
30727SOL    HW294189   5.050   8.215   3.591
30728SOL     OW94190   7.248   3.789   3.549
30728SOL    HW194191  18.308   3.706   3.508
30728SOL    HW294192   7.230   3.849   3.476
30729SOL     OW94193   2.486   1.669   7.076
30729SOL    HW194194   2.514   1.580   7.094
30729SOL    HW294195  13.516  12.749  51.321
30730SOL     OW94196   2.575   4.499   1.724
30730SOL    HW194197   2.662   4.460   1.737
30730SOL    HW294198   2.570   4.516   1.630
30731SOL     OW94199   1.251   6.109   4.155
30731SOL    HW194200  12.349   6.165   4.103
30731SOL    HW294201   1.168  39.276  -6.882
30732SOL     OW94202   1.365   0.581   1.248
30732SOL    HW194203  -9.698   0.610   1.336
30732SOL    HW294204  12.498   0.600   1.239
30733SOL     OW94205   1.248   4.335   5.931
30733SOL    HW194206   1.265 -28.785  28.104
30733SOL    HW294207   1.263  -6.614   5.905
30734SOL     OW94208   3.967   9.954   2.445
30734SOL    HW194209  -7.014   9.950  35.640
30734SOL    HW294210   3.925   9.868   2.443
30735SOL     OW94211   4.290   6.163   3.536
30735SOL    HW194212   4.294   6.146   3.442
30735SOL    HW294213   4.214   6.112   3.566
30736SOL     OW94214   9.136  10.506   4.079
30736SOL    HW194215 -24.019  10.594   4.090
30736SOL    HW294216  20.229  10.512  15.039
30737SOL     OW94217  11.080   4.774   1.966
30737SOL    HW194218  -0.042   4.734   1.995
30737SOL    HW294219  11.076  15.903   1.999
30738SOL     OW94220   6.324  10.269   5.256
30738SOL    HW194221   6.276  10.191  16.266
30738SOL    HW294222   6.393  10.280  16.231
30739SOL     OW94223   7.510   6.822   6.356
30739SOL    HW194224  29.598   6.916   6.370
30739SOL    HW294225   7.600  17.828 -37.799
30740SOL     OW94226   5.248   0.012   5.968
30740SOL    HW194227   5.191   0.005  -5.148
30740SOL    HW294228   5.308   0.084   5.947
30741SOL     OW94229   7.412   9.937   0.045
30741SOL    HW194230  29.575 -12.105   0.018
30741SOL    HW294231 -14.713   9.918  11.003
30742SOL     OW94232   7.937   1.213   9.890
30742SOL    HW194233   7.904   1.192   9.802
30742SOL    HW294234   8.010  -9.766   9.875
30743SOL     OW94235  10.340   5.547   4.778
30743SOL    HW194236  10.344   5.485 -17.228
30743SOL    HW294237  10.302   5.497   4.706
30744SOL     OW94238   1.757   9.511   7.323
30744SOL    HW194239   1.761   9.444   7.391
30744SOL    HW294240   1.742  31.541  -3.797
30745SOL     OW94241  10.060   2.147   3.665
30745SOL    HW194242  10.066  -8.983   3.633
30745SOL    HW294243  10.118   2.148   3.742
30746SOL     OW94244   9.270   0.567   7.799
30746SOL    HW194245   9.308   0.515  -3.170
30746SOL    HW294246   9.199   0.616  18.880
30747SOL     OW94247   2.927   9.217  -0.639
30747SOL    HW194248 -30.172   9.182  -0.725
30747SOL    HW294249   2.924  20.351  21.428
30748SOL     OW94250   6.545  -1.697   1.456
30748SOL    HW194251   6.555  20.477   1.453
30748SOL    HW294252   6.450  20.368   1.461
30749SOL     OW94253   3.941   6.698  10.180
30749SOL    HW194254   3.847   6.707 -11.882
30749SOL    HW294255  26.032   6.606  32.237
30750SOL     OW94256   0.656   9.154  10.571
30750SOL    HW194257   0.733  -1.938  10.548
30750SOL    HW294258   0.593   9.090  -0.435
30751SOL     OW94259   0.148   5.936   2.826
30751SOL    HW194260   0.195   5.881   2.890
30751SOL    HW294261   0.094  16.913   2.777
30752SOL     OW94262   5.505   2.642  -0.417
30752SOL    HW194263  -5.447   2.679  -0.423
30752SOL    HW294264   5.517   2.549  32.681
30753SOL     OW94265   0.801   1.948   7.258
30753SOL    HW194266   0.886   1.988 -36.918
30753SOL    HW294267   0.780   1.976   7.347
30754SOL     OW94268   5.531   1.197   2.878
30754SOL    HW194269   5.625   1.202  -8.177
30754SOL    HW294270   5.492   1.203   2.791
30755SOL     OW94271   8.087   4.458   0.013
30755SOL    HW194272  30.129  26.509  -0.070
30755SOL    HW294273   8.036   4.411   0.080
30756SOL     OW94274   6.120  10.619   7.935
30756SOL    HW194275  17.219  10.547   7.914
30756SOL    HW294276   6.037  10.595  -3.145
30757SOL     OW94277   8.548   2.953   5.348
30757SOL    HW194278   8.520 -30.250 -16.765
30757SOL    HW294279   8.470   2.990 -27.729
30758SOL     OW94280  11.613   5.584   5.317
30758SOL    HW194281   0.542  -5.493   5.399
30758SOL    HW294282  11.540 -16.443  16.324
30759SOL     OW94283   7.273   5.714   3.589
30759SOL    HW194284   7.211   5.752   3.651
30759SOL    HW294285  29.390  16.680   3.636
30760SOL     OW94286  10.397   4.084   9.767
30760SOL    HW194287  10.348   4.076   9.685
30760SOL    HW294288  10.488  -6.973  20.782
30761SOL     OW94289   0.188   3.071   7.136
30761SOL    HW194290   0.198   2.984   7.098
30761SOL    HW294291   0.099  -7.942   7.113
30762SOL     OW94292   1.936   7.752   7.295
30762SOL    HW194293  -9.075   7.803   7.371
30762SOL    HW294294   1.851  29.794   7.321
30763SOL     OW94295   7.365   9.442  10.670
30763SOL    HW194296 -25.716   9.530 -11.414
30763SOL    HW294297   7.333   9.425  10.581
30764SOL     OW94298  10.159   2.017  10.296
30764SOL    HW194299  -0.824  13.090  10.366
30764SOL    HW294300  10.197   2.050  21.255
30765SOL     OW94301   2.300   0.746   1.686
30765SOL    HW194302   2.316   0.839  12.709
30765SOL    HW294303   2.205   0.740  12.737
30766SOL     OW94304   2.972   9.491   0.626
30766SOL    HW194305   2.951   9.520   0.537
30766SOL    HW294306   2.911   9.420   0.643
30767SOL     OW94307   6.888   9.611   8.429
30767SOL    HW194308  17.907 -34.613   8.362
30767SOL    HW294309  17.887   9.691   8.396
30768SOL     OW94310   5.307   2.978   8.653
30768SOL    HW194311   5.252   2.900  19.678
30768SOL    HW294312   5.303  -8.047   8.747
30769SOL     OW94313   8.448   3.348  11.344
30769SOL    HW194314  19.470 -18.674  11.418
30769SOL    HW294315  30.441   3.321   0.273
30770SOL     OW94316  10.482   2.641   6.132
30770SOL    HW194317  10.445   2.698   6.200
30770SOL    HW294318  -0.474 -30.437   6.109
30771SOL     OW94319   5.809   9.563   2.556
30771SOL    HW194320 -16.197  20.645   2.599
30771SOL    HW294321 -16.333  20.586  13.665
30772SOL     OW94322   1.177   6.762   2.646
30772SOL    HW194323   1.237   6.692  -8.369
30772SOL    HW294324  23.225  17.777 -19.520
30773SOL     OW94325   3.951   3.759   7.582
30773SOL    HW194326  -7.091   3.781   7.675
30773SOL    HW294327  -7.016   3.812   7.547
30774SOL     OW94328   4.720   7.077   1.421
30774SOL    HW194329  -6.281   7.164  12.461
30774SOL    HW294330   4.626   7.092   1.432
30775SOL     OW94331   9.128   1.883   0.678
30775SOL    HW194332   9.138  -9.252   0.678
30775SOL    HW294333 -13.043 -20.182   0.704
30776SOL     OW94334   8.475   4.431   4.484
30776SOL    HW194335   8.393  15.511   4.455
30776SOL    HW294336   8.463   4.338  -6.570
30777SOL     OW94337   7.420   3.861   6.870
30777SOL    HW194338   7.417  -7.270   6.843
30777SOL    HW294339   7.512  -7.154  -4.175
30778SOL     OW94340   5.196   8.302   6.793
30778SOL    HW194341   5.229   8.255   6.716
30778SOL    HW294342   5.207   8.241   6.866
30779SOL     OW94343   9.199   3.930   2.513
30779SOL    HW194344 -12.934  26.005   2.592
30779SOL    HW294345   9.196  -7.018  13.526
30780SOL     OW94346   5.164   8.274   1.303
30780SOL    HW194347   5.244   8.312   1.340
30780SOL    HW294348   5.195 -13.865  23.315
30781SOL     OW94349  12.709   7.380   2.535
30781SOL    HW194350   1.586 -14.677   2.576
30781SOL    HW294351  -9.368   7.432  13.494
30782SOL     OW94352   6.909   0.365   3.770
30782SOL    HW194353  -4.173  11.423   3.853
30782SOL    HW294354   6.993 -10.714   3.793
30783SOL     OW94355   1.366   4.292  10.598
30783SOL    HW194356  -9.654  26.356  10.505
30783SOL    HW294357   1.270   4.296  10.602
30784SOL     OW94358   9.508   1.135   4.448
30784SOL    HW194359   9.433   1.130   4.389
30784SOL    HW294360   9.580   1.164 -28.727
30785SOL     OW94361   3.553  10.527   3.990
30785SOL    HW194362   3.499  10.515   3.912
30785SOL    HW294363   3.565  -0.418   3.996
30786SOL     OW94364   7.651   9.548  10.231
30786SOL    HW194365   7.670   9.552  -0.902
30786SOL    HW294366  18.709   9.457  10.255
30787SOL     OW94367   1.864   5.692   6.119
30787SOL    HW194368   1.881  -5.316   6.208
30787SOL    HW294369   1.908  -5.433  17.155
30788SOL     OW94370   1.647  -1.552   3.342
30788SOL    HW194371   1.640  20.470   3.266
30788SOL    HW294372  23.765   9.433   3.410
30789SOL     OW94373   6.300  10.404   2.174
30789SOL    HW194374   6.295  21.390   2.253
30789SOL    HW294375   6.236  10.365   2.114
30790SOL     OW94376  -1.573   2.734   8.169
30790SOL    HW194377   9.483   2.794  19.281
30790SOL    HW294378  20.411   2.737   8.156
30791SOL     OW94379   0.091   9.481  10.799
30791SOL    HW194380  11.123   9.462  10.705
30791SOL    HW294381  22.080   9.496  10.827
30792SOL     OW94382   6.276   7.358   7.711
30792SOL    HW194383  -4.822   7.431 -14.388
30792SOL    HW294384  -4.771   7.299  -3.403
30793SOL     OW94385   5.371   2.204   9.702
30793SOL    HW194386 -16.669   2.288  -1.311
30793SOL    HW294387   5.290   2.229  31.738
30794SOL     OW94388   1.320   8.087   2.276
30794SOL    HW194389   1.373   8.132  -8.830
30794SOL    HW294390   1.266  -3.013   2.225
30795SOL     OW94391   1.684  10.309   3.625
30795SOL    HW194392   1.747  10.240  -7.435
30795SOL    HW294393 -20.449  10.271  -7.345
30796SOL     OW94394   2.898   0.665   4.975
30796SOL    HW194395   2.868   0.715   5.051
30796SOL    HW294396   2.936   0.731   4.916
30797SOL     OW94397  10.398   3.461   3.707
30797SOL    HW194398  10.478   3.504   3.678
30797SOL    HW294399  10.425  -7.635  -7.260
30798SOL     OW94400   7.895   6.791   4.823
30798SOL    HW194401   7.871   6.824  -6.130
30798SOL    HW294402   7.811   6.772   4.781
30799SOL     OW94403   1.205   5.835  10.216
30799SOL    HW194404   1.268   5.832  32.367
30799SOL    HW294405   1.156   5.753 -11.855
30800SOL     OW94406   6.200   6.731   0.078
30800SOL    HW194407   6.292  28.830   0.062
30800SOL    HW294408   6.183   6.652  11.066
30801SOL     OW94409   9.706   8.287   9.483
30801SOL    HW194410  20.694  -2.675   9.506
30801SOL    HW294411 -12.416   8.215   9.529
30802SOL     OW94412   3.070   8.887   1.214
30802SOL    HW194413   3.010  -2.177  -9.756
30802SOL    HW294414  14.186   8.924   1.259
30803SOL     OW94415   0.616   5.732   6.982
30803SOL    HW194416  11.611   5.792  -4.118
30803SOL    HW294417   0.673   5.680   6.926
30804SOL     OW94418   9.034   8.437   3.220
30804SOL    HW194419   8.977 -13.580   3.267
30804SOL    HW294420   9.078  -2.651  -7.749
30805SOL     OW94421   4.273   4.444   9.763
30805SOL    HW194422   4.178  26.531  20.798
30805SOL    HW294423  -6.747   4.360   9.721
30806SOL     OW94424   9.261   4.902   3.774
30806SOL    HW194425 -57.026   4.981 -29.320
30806SOL    HW294426   9.341 -17.143   3.735
30807SOL     OW94427   7.258   3.412   9.122
30807SOL    HW194428   7.273  14.360   9.099
30807SOL    HW294429   7.251   3.458   9.038
30808SOL     OW94430   3.043  10.071   8.762
30808SOL    HW194431 -18.964  10.011  -2.257
30808SOL    HW294432   3.084  10.141   8.711
30809SOL     OW94433   8.881   7.483   3.030
30809SOL    HW194434   8.928   7.557  -8.048
30809SOL    HW294435  19.966 -14.613  -7.926
30810SOL     OW94436   0.474   0.301   1.011
30810SOL    HW194437  11.592   0.282   0.960
30810SOL    HW294438   0.420  33.473   0.953
30811SOL     OW94439   8.184   8.687   1.899
30811SOL    HW194440   8.090   8.707   1.899
30811SOL    HW294441   8.212 -13.373  12.849
30812SOL     OW94442   2.782   9.304   1.862
30812SOL    HW194443 -19.245   9.232   1.826
30812SOL    HW294444   2.847   9.367   1.893
30813SOL     OW94445   7.002   1.381   1.466
30813SOL    HW194446   7.049  -9.679   1.547
30813SOL    HW294447  -3.968   1.399   1.402
30814SOL     OW94448   5.077   0.313   8.308
30814SOL    HW194449   4.987  22.362  19.335
30814SOL    HW294450   5.093   0.301  19.441
30815SOL     OW94451   0.790   5.989   3.469
30815SOL    HW194452   0.720  28.056   3.534
30815SOL    HW294453  22.898   5.900   3.447
30816SOL     OW94454   2.246   3.342   4.412
30816SOL    HW194455   2.259   3.255   4.448
30816SOL    HW294456   2.220  14.436   4.487
30817SOL     OW94457   8.010   9.957   1.517
30817SOL    HW194458   8.002   9.901   1.594
30817SOL    HW294459   8.002   9.898  23.521
30818SOL     OW94460   3.755   3.692   9.133
30818SOL    HW194461   3.803   3.660   9.056
30818SOL    HW294462   3.812   3.760 -12.910
30819SOL     OW94463  -1.230   6.762   3.757
30819SOL    HW194464  -1.270  -4.296   3.841
30819SOL    HW294465  20.828   6.854   3.740
30820SOL     OW94466   5.222   1.832  10.748
30820SOL    HW194467   5.173   1.867  10.822
30820SOL    HW294468   5.312  -9.178  10.762
30821SOL     OW94469   3.385   5.010   1.292
30821SOL    HW194470   3.479   5.014  -9.770
30821SOL    HW294471   3.357  -6.115  -9.780
30822SOL     OW94472   1.581   6.090   8.831
30822SOL    HW194473  12.618   6.013   8.886
30822SOL    HW294474  -9.537   6.140   8.855
30823SOL     OW94475   1.521  -0.186   4.613
30823SOL    HW194476   1.427  10.833  15.651
30823SOL    HW294477  12.588  -0.205   4.703
30824SOL     OW94478   2.295   5.781  10.938
30824SOL    HW194479   2.296   5.694  10.977
30824SOL    HW294480  -8.717   5.767 -33.311
30825SOL     OW94481   8.845   2.123   6.490
30825SOL    HW194482  -2.184   2.171  17.611
30825SOL    HW294483  -2.182   2.188  17.461
30826SOL     OW94484   6.251   7.303   8.514
30826SOL    HW194485   6.321   7.290   8.450
30826SOL    HW294486  28.352  18.426   8.557
30827SOL     OW94487   5.076   9.054  10.646
30827SOL    HW194488   5.084   9.098  10.731
30827SOL    HW294489   5.031  -1.922  10.590
30828SOL     OW94490   6.610   8.232  -1.093
30828SOL    HW194491   6.584   8.294   9.878
30828SOL    HW294492  28.765   8.272  21.027
30829SOL     OW94493   7.075   1.133   9.895
30829SOL    HW194494   6.996   1.155   9.845
30829SOL    HW294495   7.139   1.109  -1.211
30830SOL     OW94496   1.764   1.646   3.692
30830SOL    HW194497   1.742   1.739   3.701
30830SOL    HW294498 -20.264  -9.398  -7.429
30831SOL     OW94499  -0.406   2.996   5.090
30831SOL    HW194500  -0.315   2.976   5.067
30831SOL    HW294501  10.583   2.951  -6.017
30832SOL     OW94502   7.351   7.834   2.736
30832SOL    HW194503   7.313   7.892   2.670
30832SOL    HW294504   7.430   7.799   2.695
30833SOL     OW94505   3.797  -0.268   1.215
30833SOL    HW194506   3.729  21.776   1.272
30833SOL    HW294507  14.907  -0.333   1.218
30834SOL     OW94508  10.073   9.567   3.010
30834SOL    HW194509  -0.979   9.661  14.068
30834SOL    HW294510  10.006   9.524   3.063
30835SOL     OW94511   5.761   7.400   0.802
30835SOL    HW194512   5.702   7.333  11.808
30835SOL    HW294513   5.704   7.472   0.828
30836SOL     OW94514   2.614   5.318  10.756
30836SOL    HW194515   2.693   5.340  -0.333
30836SOL    HW294516   2.638  -5.705  10.847
30837SOL     OW94517  10.516   9.838   2.823
30837SOL    HW194518  -0.489   9.922   2.794
30837SOL    HW294519  10.569   9.814  -8.141
30838SOL     OW94520   7.976   7.177   0.316
30838SOL    HW194521   7.990   7.083   0.315
30838SOL    HW294522   8.008   7.206   0.402
30839SOL     OW94523   8.205   2.768  -1.108
30839SOL    HW194524   8.181   2.860  32.017
30839SOL    HW294525   8.247   2.747  10.015
30840SOL     OW94526   5.925   9.226   2.278
30840SOL    HW194527   5.850   9.225  35.456
30840SOL    HW294528   5.921  20.181  13.273
30841SOL     OW94529   4.658   5.279   3.941
30841SOL    HW194530   4.745   5.306   3.912
30841SOL    HW294531   4.616  -5.679   3.968
30842SOL     OW94532   8.942  10.079   5.153
30842SOL    HW194533   8.886  10.069   5.230
30842SOL    HW294534  20.049  10.012   5.164
30843SOL     OW94535  10.988  -0.782   0.860
30843SOL    HW194536   0.016  32.271   0.843
30843SOL    HW294537  10.906  -0.831   0.861
30844SOL     OW94538  -0.292   4.533   1.187
30844SOL    HW194539  -0.226  -6.535   1.252
30844SOL    HW294540  10.791   4.602   1.138
30845SOL     OW94541   7.660   5.739   3.307
30845SOL    HW194542   7.642   5.648   3.329
30845SOL    HW294543   7.587   5.788  14.384
30846SOL     OW94544   5.928   7.240   4.494
30846SOL    HW194545  16.902   7.298  -6.506
30846SOL    HW294546  16.920   7.195 -28.695
30847SOL     OW94547   7.195   7.839   5.983
30847SOL    HW194548   7.242   7.783   6.045
30847SOL    HW294549  18.284  -3.119   5.982
30848SOL     OW94550   9.899   1.647   0.139
30848SOL    HW194551  -1.207   1.645   0.208
30848SOL    HW294552  21.005  -9.454   0.170
30849SOL     OW94553  11.026   6.991   5.606
30849SOL    HW194554  11.075   7.071  -5.415
30849SOL    HW294555 -11.142   7.009   5.639
30850SOL     OW94556   8.823   0.582   9.346
30850SOL    HW194557   8.753  11.598   9.406
30850SOL    HW294558  30.981   0.583   9.401
30851SOL     OW94559   4.081  11.504   4.323
30851SOL    HW194560   4.009   0.458   4.260
30851SOL    HW294561   4.057  11.578   4.379
30852SOL     OW94562   6.827   1.686   1.353
30852SOL    HW194563   6.910   1.716   1.316
30852SOL    HW294564   6.824   1.724   1.441
30853SOL     OW94565   1.874   6.126   2.888
30853SOL    HW194566   1.848   6.135  13.836
30853SOL    HW294567   1.969  -4.921  24.964
30854SOL     OW94568   9.474   1.497   3.924
30854SOL    HW194569   9.405   1.547  15.007
30854SOL    HW294570   9.437   1.409  25.993
30855SOL     OW94571   3.787  10.420   2.282
30855SOL    HW194572  14.877  10.351   2.325
30855SOL    HW294573   3.774  10.388   2.192
30856SOL     OW94574   7.221   3.913  10.011
30856SOL    HW194575   7.135   3.922   9.972
30856SOL    HW294576   7.261   4.000  10.000
30857SOL     OW94577   3.825   3.324   8.893
30857SOL    HW194578  14.840   3.340   8.801
30857SOL    HW294579  25.826   3.285   8.932
30858SOL     OW94580   1.124  10.351   4.205
30858SOL    HW194581   1.107  -0.594  -6.827
30858SOL    HW294582   1.213 -22.779   4.238
30859SOL     OW94583   1.293   4.323   5.191
30859SOL    HW194584  12.311  -6.689   5.280
30859SOL    HW294585   1.208   4.319   5.146
30860SOL     OW94586   4.810   1.527   9.632
30860SOL    HW194587   4.858   1.459   9.679
30860SOL    HW294588   4.726  -9.554   9.609
30861SOL     OW94589  11.514   7.093   7.527
30861SOL    HW194590  22.559   6.998  -3.528
30861SOL    HW294591 -10.548   7.102  -3.419
30862SOL     OW94592   4.428   7.169   1.768
30862SOL    HW194593   4.424   7.263  12.824
30862SOL    HW294594   4.438  -3.910 -20.224
30863SOL     OW94595   3.247  10.695   7.046
30863SOL    HW194596   3.330  10.729   7.080
30863SOL    HW294597   3.221  10.759   6.979
30864SOL     OW94598   9.198   8.510  12.875
30864SOL    HW194599   9.270   8.449   1.815
30864SOL    HW294600   9.190   8.564 -20.323
30865SOL     OW94601   5.908   4.138   1.961
30865SOL    HW194602   5.939   4.073   2.025
30865SOL    HW294603  -5.123   4.222   2.006
30866SOL     OW94604   9.689   1.738   4.009
30866SOL    HW194605  20.699   1.709  -7.117
30866SOL    HW294606   9.774   1.779  -7.046
30867SOL     OW94607   9.787   5.687   8.803
30867SOL    HW194608  20.859   5.768  30.921
30867SOL    HW294609   9.791   5.623  -2.166
30868SOL     OW94610   7.867  10.878   3.516
30868SOL    HW194611 -25.239 -11.110   3.490
30868SOL    HW294612  -3.200 -11.246   3.435
30869SOL     OW94613   6.811   4.293   2.830
30869SOL    HW194614   6.770   4.244 -19.320
30869SOL    HW294615   6.801  -6.803   2.907
30870SOL     OW94616   7.537   5.328   7.709
30870SOL    HW194617   7.503   5.301   7.794
30870SOL    HW294618   7.602   5.395   7.729
30871SOL     OW94619   6.894   1.870   6.342
30871SOL    HW194620  -4.057   1.899   6.363
30871SOL    HW294621  -4.202 -20.162  17.443
30872SOL     OW94622  10.571   5.696   2.762
30872SOL    HW194623  10.544   5.784   2.735
30872SOL    HW294624  10.633   5.668  24.774
30873SOL     OW94625   3.241   8.333  -0.415
30873SOL    HW194626   3.171   8.367  -0.360
30873SOL    HW294627  14.316   8.259  10.675
30874SOL     OW94628   3.573   0.713   0.881
30874SOL    HW194629   3.584   0.765   0.960
30874SOL    HW294630 -40.580   0.622   0.911
30875SOL     OW94631   7.906  10.510   1.628
30875SOL    HW194632   7.947  10.591   1.659
30875SOL    HW294633  18.974  10.502   1.536
30876SOL     OW94634   7.629   9.358   5.449
30876SOL    HW194635   7.562  20.340  -5.554
30876SOL    HW294636   7.688 -23.820   5.402
30877SOL     OW94637   3.804   2.525   1.008
30877SOL    HW194638  14.793   2.597  12.086
30877SOL    HW294639  25.935  24.570  12.119
30878SOL     OW94640  10.905   2.041   6.548
30878SOL    HW194641  10.886   1.973  28.692
30878SOL    HW294642  10.827   2.096   6.548
30879SOL     OW94643  10.011   6.668   9.844
30879SOL    HW194644   9.990   6.582   9.809
30879SOL    HW294645   9.957   6.675  20.963
30880SOL     OW94646   3.936   4.141  10.022
30880SOL    HW194647   3.938   4.174 -11.967
30880SOL    HW294648   3.986   4.060  -1.015
30881SOL     OW94649   1.891  13.845   2.726
30881SOL    HW194650   1.852  13.882  13.846
30881SOL    HW294651   1.943 -41.281  -8.350
30882SOL     OW94652   9.376   6.648   4.341
30882SOL    HW194653   9.303   6.709   4.334
30882SOL    HW294654   9.453  28.784   4.353
30883SOL     OW94655   7.738   1.021   8.405
30883SOL    HW194656   7.805   1.087  -2.618
30883SOL    HW294657 -14.306 -10.098   8.446
30884SOL     OW94658   8.969  10.378   1.510
30884SOL    HW194659   9.006  10.319   1.575
30884SOL    HW294660   8.890  10.413 -20.528
30885SOL     OW94661   8.791   4.666   6.621
30885SOL    HW194662   8.721   4.611   6.585
30885SOL    HW294663   8.763   4.684  28.790
30886SOL     OW94664   8.565  -0.530   8.923
30886SOL    HW194665  -2.383  -0.508   8.938
30886SOL    HW294666 -13.555  10.592  19.937
30887SOL     OW94667   3.575   5.968   7.195
30887SOL    HW194668   3.524   6.001   7.269
30887SOL    HW294669 -29.568  -5.164   7.188
30888SOL     OW94670   8.889  -0.190   6.319
30888SOL    HW194671  19.943  10.943  -4.712
30888SOL    HW294672  -2.221  -0.198   6.255
30889SOL     OW94673   5.451   8.862  10.832
30889SOL    HW194674  16.527   8.865  -0.119
30889SOL    HW294675  -5.513   8.858  10.774
30890SOL     OW94676   7.094   4.106   8.894
30890SOL    HW194677  18.135 -28.970   8.980
30890SOL    HW294678  -3.855   4.076   8.881
30891SOL     OW94679   7.922   9.072  -0.424
30891SOL    HW194680   7.919   9.038  -0.513
30891SOL    HW294681   8.012  20.099  21.683
30892SOL     OW94682   7.879   2.433   4.997
30892SOL    HW194683   7.835   2.456   5.079
30892SOL    HW294684   7.881   2.337   4.997
30893SOL     OW94685   8.885   4.652   7.722
30893SOL    HW194686   8.890  15.604  -3.358
30893SOL    HW294687 -13.129  15.689   7.792
30894SOL     OW94688  -1.185   1.568  10.162
30894SOL    HW194689  -1.179   1.580  10.257
30894SOL    HW294690  20.815   1.516  10.149
30895SOL     OW94691   3.481   0.846  -0.190
30895SOL    HW194692   3.385 -10.190  10.846
30895SOL    HW294693   3.508   0.861  -0.281
30896SOL     OW94694  -2.884   0.274  -2.411
30896SOL    HW194695  19.248  11.385  19.633
30896SOL    HW294696  30.172  33.372  30.638
30897SOL     OW94697   9.083  10.297   7.081
30897SOL    HW194698   9.088  -0.668   7.022
30897SOL    HW294699   9.142 -22.800   7.153
30898SOL     OW94700  10.157   2.010   4.252
30898SOL    HW194701  10.079  24.144   4.242
30898SOL    HW294702  10.138   1.954   4.328
30899SOL     OW94703   5.564   0.649   4.551
30899SOL    HW194704   5.484   0.643   4.603
30899SOL    HW294705   5.598   0.560   4.550
30900SOL     OW94706  10.263   6.883   3.579
30900SOL    HW194707  21.323   6.831  14.541
30900SOL    HW294708  10.204   6.827  25.709
30901SOL     OW94709   2.686   7.473   4.016
30901SOL    HW194710   2.627   7.476   4.092
30901SOL    HW294711  13.794   7.411  15.081
30902SOL     OW94712   6.825   5.912   7.976
30902SOL    HW194713  17.825   5.826   7.963
30902SOL    HW294714  39.995   5.926   7.897
30903SOL     OW94715   5.377   5.255   2.202
30903SOL    HW194716  -5.621   5.325   2.252
30903SOL    HW294717   5.437  16.279  13.168
30904SOL     OW94718   5.017   1.473   6.253
30904SOL    HW194719  16.147 -20.589   6.229
30904SOL    HW294720   5.019   1.388   6.297
30905SOL     OW94721  10.753   1.872   6.177
30905SOL    HW194722  10.691 -20.257  17.163
30905SOL    HW294723  10.699   1.913   6.245
30906SOL     OW94724   9.460   8.036   6.256
30906SOL    HW194725   9.467   8.081   6.171
30906SOL    HW294726   9.365   8.029   6.271
30907SOL     OW94727   1.142   9.368   4.842
30907SOL    HW194728  12.104   9.403   4.886
30907SOL    HW294729   1.179   9.306   4.904
30908SOL     OW94730   9.547   1.371   8.691
30908SOL    HW194731   9.488   1.332   8.756
30908SOL    HW294732   9.592   1.441  19.779
30909SOL     OW94733   0.979  -0.259   6.698
30909SOL    HW194734   1.064  -0.263   6.654
30909SOL    HW294735  34.079  10.689   6.722
30910SOL     OW94736   4.611   2.513   2.574
30910SOL    HW194737   4.641   2.542   2.660
30910SOL    HW294738   4.683   2.459   2.541
30911SOL     OW94739   6.911   8.272   7.984
30911SOL    HW194740   6.837 -13.771  18.974
30911SOL    HW294741   6.971   8.240  18.956
30912SOL     OW94742   5.607   4.318   2.583
30912SOL    HW194743   5.541  26.464   2.567
30912SOL    HW294744  16.597   4.236   2.588
30913SOL     OW94745   0.475   3.785   5.427
30913SOL    HW194746  11.568   3.827   5.495
30913SOL    HW294747   0.539   3.744   5.368
30914SOL     OW94748   7.186   6.344   0.363
30914SOL    HW194749   7.123  61.555   0.434
30914SOL    HW294750  18.217   6.251  11.380
30915SOL     OW94751   1.841   0.478   7.753
30915SOL    HW194752   1.781   0.434   7.814
30915SOL    HW294753   1.788   0.549   7.715
30916SOL     OW94754   1.836   1.946   6.855
30916SOL    HW194755  12.962   1.905   6.862
30916SOL    HW294756  12.877   1.989  -4.270
30917SOL     OW94757   5.413   0.531  10.283
30917SOL    HW194758   5.414   0.536 -22.932
30917SOL    HW294759   5.332   0.574  10.308
30918SOL     OW94760   5.358   4.113  10.218
30918SOL    HW194761   5.269   4.116  10.182
30918SOL    HW294762  -5.667  15.241  10.252
30919SOL     OW94763   3.166   6.141   7.741
30919SOL    HW194764   3.104   6.132  18.708
30919SOL    HW294765  -7.886  -4.978   7.793
30920SOL     OW94766  -0.237   8.946   6.468
30920SOL    HW194767  -0.191  -2.167   6.510
30920SOL    HW294768  32.885   8.926   6.375
30921SOL     OW94769   7.590   1.830   6.352
30921SOL    HW194770   7.498   1.844  17.414
30921SOL    HW294771   7.611   1.745   6.390
30922SOL     OW94772   4.320   9.710   3.080
30922SOL    HW194773  26.473   9.659   3.046
30922SOL    HW294774  15.400   9.775   3.137
30923SOL     OW94775   9.849  10.681   2.623
30923SOL    HW194776   9.890  10.734   2.692
30923SOL    HW294777  20.795 -11.396  -8.397
30924SOL     OW94778   9.744   9.757   3.566
30924SOL    HW194779   9.668   9.768   3.623
30924SOL    HW294780  20.755   9.693  14.540
30925SOL     OW94781   0.030  10.095   1.870
30925SOL    HW194782  -0.008  10.166  24.001
30925SOL    HW294783   0.057  10.030   1.934
30926SOL     OW94784  10.385   2.741   4.112
30926SOL    HW194785  10.381  13.724  15.228
30926SOL    HW294786  10.418  57.882  15.082
30927SOL     OW94787   7.691   7.096   4.678
30927SOL    HW194788   7.623   7.051   4.627
30927SOL    HW294789  -3.334 -14.901   4.631
30928SOL     OW94790   5.171   1.834   5.247
30928SOL    HW194791   5.179  12.831  27.241
30928SOL    HW294792  16.288   1.806   5.295
30929SOL     OW94793   7.764   7.292   9.594
30929SOL    HW194794   7.844  18.354   9.642
30929SOL    HW294795   7.786   7.304  20.542
30930SOL     OW94796   2.994   8.060   2.684
30930SOL    HW194797   3.037   8.000  13.663
30930SOL    HW294798   3.054  41.253  24.770
30931SOL     OW94799   8.083   5.664   1.203
30931SOL    HW194800   8.135   5.679   1.124
30931SOL    HW294801  -2.892  -5.383   1.273
30932SOL     OW94802  10.134   5.569   4.230
30932SOL    HW194803  10.119  16.531  15.215
30932SOL    HW294804  21.093   5.620  -6.817
30933SOL     OW94805   3.904   2.983   4.138
30933SOL    HW194806   3.856   3.065  15.164
30933SOL    HW294807  15.035  36.128 -17.937
30934SOL     OW94808   8.457  10.700   2.834
30934SOL    HW194809  30.570  10.670   2.918
30934SOL    HW294810   8.364  10.717   2.851
30935SOL     OW94811   4.266   3.216  -0.304
30935SOL    HW194812 -17.783   3.171  10.814
30935SOL    HW294813   4.336   3.200  10.671
30936SOL     OW94814   7.091   8.759   7.580
30936SOL    HW194815  40.148   8.689  29.678
30936SOL    HW294816   7.174   8.714   7.564
30937SOL     OW94817   6.376   5.239   8.276
30937SOL    HW194818   6.471  38.349  -2.771
30937SOL    HW294819   6.341  16.235   8.198
30938SOL     OW94820   3.631   8.634   2.969
30938SOL    HW194821   3.685 -13.396  -8.132
30938SOL    HW294822   3.691  -2.467  -8.030
30939SOL     OW94823   9.897   8.908   3.367
30939SOL    HW194824  -1.100   8.926   3.283
30939SOL    HW294825  32.034   8.846   3.411
30940SOL     OW94826   6.896  10.446   2.172
30940SOL    HW194827   6.962  10.445   2.242
30940SOL    HW294828  -4.197  10.369   2.189
30941SOL     OW94829   0.025   1.301   7.656
30941SOL    HW194830  -0.018  -9.804  18.750
30941SOL    HW294831  11.093   1.253   7.579
30942SOL     OW94832   2.465   8.483   3.514
30942SOL    HW194833   2.505   8.543   3.577
30942SOL    HW294834   2.513 -13.580   3.433
30943SOL     OW94835   2.108   2.355   2.539
30943SOL    HW194836   2.196  13.381   2.503
30943SOL    HW294837   2.105 -19.630  24.637
30944SOL     OW94838  12.477   7.657   7.538
30944SOL    HW194839   1.401 -14.334   7.542
30944SOL    HW294840  -9.647  -3.430   7.608
30945SOL     OW94841   0.650   3.115   1.100
30945SOL    HW194842   0.738   3.151   1.113
30945SOL    HW294843   0.653  -7.964   1.013
30946SOL     OW94844   1.321   9.185   7.854
30946SOL    HW194845   1.407   9.216  -3.156
30946SOL    HW294846   1.316  20.135  -3.153
30947SOL     OW94847   8.586  10.485   3.075
30947SOL    HW194848   8.607  10.554  25.217
30947SOL    HW294849   8.644  10.500   3.001
30948SOL     OW94850   9.040  11.219   0.765
30948SOL    HW194851   9.099  11.192  11.874
30948SOL    HW294852   9.042 -21.804   0.767
30949SOL     OW94853   8.451   8.924   2.391
30949SOL    HW194854 -24.647   8.890   2.304
30949SOL    HW294855 -13.565  -2.045   2.405
30950SOL     OW94856   2.333   5.921  11.451
30950SOL    HW194857   2.427  28.018   0.422
30950SOL    HW294858   2.291   5.971  11.521
30951SOL     OW94859   5.001   3.971  11.143
30951SOL    HW194860   4.984  26.016 -22.064
30951SOL    HW294861   4.921  26.098  11.166
30952SOL     OW94862  10.254  10.885  -0.715
30952SOL    HW194863  10.273 -11.285  43.467
30952SOL    HW294864  -0.804  10.883  10.231
30953SOL     OW94865   8.555   5.501   7.726
30953SOL    HW194866   8.496  16.612  40.824
30953SOL    HW294867   8.528   5.430   7.667
30954SOL     OW94868   7.138   9.136   9.553
30954SOL    HW194869  -3.915   9.092   9.470
30954SOL    HW294870   7.064   9.109   9.607
30955SOL     OW94871   3.663   2.741   8.998
30955SOL    HW194872   3.577   2.755   9.036
30955SOL    HW294873   3.725   2.763   9.067
30956SOL     OW94874  10.053   6.486   1.596
30956SOL    HW194875   9.999  -4.608   1.540
30956SOL    HW294876  10.143  17.510  45.724
30957SOL     OW94877   6.635   6.705  11.298
30957SOL    HW194878  -4.483   6.651 -10.787
30957SOL    HW294879   6.648   6.718  11.392
30958SOL     OW94880   8.600   1.279   0.930
30958SOL    HW194881   8.540  23.338   1.002
30958SOL    HW294882  19.717  12.265 -10.092
30959SOL     OW94883   5.835   6.598   8.728
30959SOL    HW194884   5.755   6.614   8.679
30959SOL    HW294885   5.864   6.512   8.699
30960SOL     OW94886   9.863   5.872   4.272
30960SOL    HW194887   9.780   5.909 -28.816
30960SOL    HW294888   9.918  -5.091   4.256
30961SOL     OW94889   0.682   7.319  13.170
30961SOL    HW194890   0.685   7.266 -20.029
30961SOL    HW294891 -10.442   7.299 -30.949
30962SOL     OW94892   6.535   8.979   4.867
30962SOL    HW194893   6.534   8.957   4.960
30962SOL    HW294894  39.740   8.951   4.836
30963SOL     OW94895   4.916  -1.195  10.854
30963SOL    HW194896  16.033  20.876  10.798
30963SOL    HW294897   4.853   9.783  10.817
30964SOL     OW94898  -0.022   9.064   9.110
30964SOL    HW194899  -0.068   9.102   9.036
30964SOL    HW294900  10.973   9.100   9.187
30965SOL     OW94901   2.032   5.397   5.501
30965SOL    HW194902   1.954  16.383   5.516
30965SOL    HW294903   1.998  16.525  27.568
30966SOL     OW94904   2.212   9.203   1.587
30966SOL    HW194905   2.223 -12.907   1.677
30966SOL    HW294906   2.282   9.159   1.538
30967SOL     OW94907   7.532   0.930   3.927
30967SOL    HW194908 -25.509  23.054   3.893
30967SOL    HW294909  -3.520  11.896   3.868
30968SOL     OW94910  10.363   8.709   1.779
30968SOL    HW194911  10.281  -2.379   1.784
30968SOL    HW294912  10.336   8.801   1.780
30969SOL     OW94913   0.900   2.635   8.536
30969SOL    HW194914   0.866   2.599   8.454
30969SOL    HW294915 -10.087   2.564  -2.466
30970SOL     OW94916   6.619   5.115   8.163
30970SOL    HW194917  17.593   5.074 -47.091
30970SOL    HW294918  28.717   5.199   8.121
30971SOL     OW94919   7.026   4.788  10.820
30971SOL    HW194920   7.113   4.777 -11.298
30971SOL    HW294921 -15.063  -6.157  10.831
30972SOL     OW94922   7.522   3.325   7.652
30972SOL    HW194923  -3.543   3.390 -14.492
30972SOL    HW294924   7.577   3.373   7.714
30973SOL     OW94925   2.983   2.006   6.750
30973SOL    HW194926  25.088   1.987   6.660
30973SOL    HW294927  25.064  -9.119   6.794
30974SOL     OW94928   7.767   5.438   3.580
30974SOL    HW194929 -36.378   5.442 -18.404
30974SOL    HW294930  -3.207   5.375   3.550
30975SOL     OW94931   3.923  11.600  -0.634
30975SOL    HW194932 -18.234   0.553  -0.688
30975SOL    HW294933   3.987  11.543  21.402
30976SOL     OW94934   4.881   2.170   7.600
30976SOL    HW194935   4.922   2.248  -3.476
30976SOL    HW294936   4.922   2.158   7.686
30977SOL     OW94937   2.345  11.371   1.005
30977SOL    HW194938   2.306  11.391  11.960
30977SOL    HW294939   2.371 -10.800   0.999
30978SOL     OW94940  -0.025  -1.765   1.072
30978SOL    HW194941  -0.108  31.326  -9.931
30978SOL    HW294942  11.018  20.409   1.087
30979SOL     OW94943  10.061   5.812   0.236
30979SOL    HW194944  10.079   5.766   0.319
30979SOL    HW294945 -12.111   5.834   0.241
30980SOL     OW94946  11.627   4.947   3.149
30980SOL    HW194947   0.608   4.926  -7.799
30980SOL    HW294948  11.687  15.932   3.098
30981SOL     OW94949   3.002   7.392   1.206
30981SOL    HW194950   3.052   7.410   1.127
30981SOL    HW294951   3.056   7.425   1.277
30982SOL     OW94952  -0.104   0.983   4.455
30982SOL    HW194953  11.018  23.046  -6.629
30982SOL    HW294954  44.051  12.118  -6.574
30983SOL     OW94955   2.152  11.848   6.085
30983SOL    HW194956   2.246 -10.243   6.098
30983SOL    HW294957   2.142   0.902   6.068
30984SOL     OW94958   7.121   4.408   8.106
30984SOL    HW194959   7.029   4.432   8.117
30984SOL    HW294960 -14.961   4.317   8.075
30985SOL     OW94961  10.379  10.882   4.287
30985SOL    HW194962  10.382  10.889   4.192
30985SOL    HW294963  10.321  10.807  -6.736
30986SOL     OW94964   9.600   7.994   4.081
30986SOL    HW194965   9.533   8.041   4.131
30986SOL    HW294966   9.591  -3.136  26.188
30987SOL     OW94967   8.031   3.071   0.784
30987SOL    HW194968   7.949   3.070   0.834
30987SOL    HW294969   8.078   2.993  22.894
30988SOL     OW94970  10.628   7.507   7.356
30988SOL    HW194971  10.538   7.519   7.326
30988SOL    HW294972  -0.421   7.487   7.449
30989SOL     OW94973   0.717   4.898   6.766
30989SOL    HW194974   0.718   4.820   6.711
30989SOL    HW294975   0.765   4.964   6.715
30990SOL     OW94976   1.964   8.332   4.452
30990SOL    HW194977   2.030   8.272   4.417
30990SOL    HW294978  13.003  30.485   4.392
30991SOL     OW94979   7.076  10.465   8.568
30991SOL    HW194980 -15.036  10.393   8.622
30991SOL    HW294981   7.127  10.519   8.628
30992SOL     OW94982   6.678   5.707   2.737
30992SOL    HW194983   6.660   5.795  -8.335
30992SOL    HW294984   6.773   5.698   2.729
30993SOL     OW94985  12.042   9.312   8.191
30993SOL    HW194986 -21.108   9.228   8.159
30993SOL    HW294987 -21.012  31.419   8.126
30994SOL     OW94988   1.706   6.102   0.158
30994SOL    HW194989   1.681   6.194   0.156
30994SOL    HW294990  -9.416   6.054   0.151
30995SOL     OW94991   2.841   5.712   9.096
30995SOL    HW194992  13.826   5.770   9.149
30995SOL    HW294993   2.921   5.762   9.081
30996SOL     OW94994   8.773   8.929   2.877
30996SOL    HW194995   8.679  19.963  -8.142
30996SOL    HW294996   8.797  19.881   2.848
30997SOL     OW94997  10.095   2.293   6.506
30997SOL    HW194998 -11.941   2.284  -4.618
30997SOL    HW294999  10.153   2.247   6.568
30998SOL     OW95000   2.429   0.246   9.313
30998SOL    HW195001  13.559   0.274   9.324
30998SOL    HW295002   2.402  11.257   9.400
30999SOL     OW95003   8.730  11.299   7.836
30999SOL    HW195004   8.699  11.294   7.745
30999SOL    HW295005   8.652   0.279   7.887
31000SOL     OW95006   0.797   3.927  10.349
31000SOL    HW195007   0.756 -18.067  10.333
31000SOL    HW295008   0.752  14.907  10.288
31001SOL     OW95009   8.213   1.323   2.620
31001SOL    HW195010   8.271  45.492   2.696
31001SOL    HW295011   8.163   1.243   2.639
31002SOL     OW95012   6.279   5.118   1.488
31002SOL    HW195013   6.318   5.195  12.486
31002SOL    HW295014   6.213   5.088  -9.614
31003SOL     OW95015   8.002   4.083   4.972
31003SOL    HW195016   8.085   4.039   4.953
31003SOL    HW295017  -3.073   4.036   5.047
31004SOL     OW95018   1.581   5.738   5.346
31004SOL    HW195019   1.636  38.802 -49.795
31004SOL    HW295020   1.530   5.676   5.295
31005SOL     OW95021   8.524  10.166   7.261
31005SOL    HW195022   8.575  10.132   7.187
31005SOL    HW295023   8.437  10.128   7.250
31006SOL     OW95024  10.212   1.072   1.032
31006SOL    HW195025  10.232   1.144   1.091
31006SOL    HW295026  10.158   1.012  12.124
31007SOL     OW95027   6.154   0.955   1.219
31007SOL    HW195028   6.067   0.942  23.336
31007SOL    HW295029   6.143   1.027  34.275
31008SOL     OW95030   9.834   4.341   2.621
31008SOL    HW195031  20.815 -17.665   2.642
31008SOL    HW295032   9.777 -39.894  35.736
31009SOL     OW95033   3.372   1.435  10.552
31009SOL    HW195034   3.359   1.466  10.462
31009SOL    HW295035   3.376   1.514  -0.435
31010SOL     OW95036   3.026   0.828   9.137
31010SOL    HW195037   3.105   0.778  42.234
31010SOL    HW295038  -7.982   0.918   9.146
31011SOL     OW95039   1.022   7.918   7.140
31011SOL    HW195040   1.020   7.914  18.275
31011SOL    HW295041   1.112  18.935   7.117
31012SOL     OW95042   8.929   0.302   9.556
31012SOL    HW195043   8.908  11.414  -1.425
31012SOL    HW295044  -2.023   0.321   9.524
31013SOL     OW95045   1.269   8.371  10.523
31013SOL    HW195046   1.317   8.353  10.442
31013SOL    HW295047  12.251   8.295  10.533
31014SOL     OW95048   7.216   7.612   9.328
31014SOL    HW195049   7.123   7.624   9.347
31014SOL    HW295050   7.227   7.517   9.322
31015SOL     OW95051   5.515   3.278   4.698
31015SOL    HW195052   5.429   3.298   4.735
31015SOL    HW295053   5.497  14.267   4.619
31016SOL     OW95054   5.984  -1.199   3.142
31016SOL    HW195055   5.891  -1.219  -7.906
31016SOL    HW295056  28.084  20.929   3.063
31017SOL     OW95057   6.292   0.866   3.757
31017SOL    HW195058   6.263   0.954  14.773
31017SOL    HW295059   6.310   0.824   3.674
31018SOL     OW95060   1.935   5.912   5.919
31018SOL    HW195061  -9.011   5.902   5.938
31018SOL    HW295062  -9.148   5.852   5.979
31019SOL     OW95063   3.811   0.034   4.902
31019SOL    HW195064   3.806   0.072   4.814
31019SOL    HW295065   3.722   0.004  15.959
31020SOL     OW95066  -0.150   3.642   4.956
31020SOL    HW195067  -0.070  -7.347   4.945
31020SOL    HW295068  21.900   3.663   5.045
31021SOL     OW95069   2.654  11.479   2.324
31021SOL    HW195070   2.674  11.573   2.332
31021SOL    HW295071   2.579   0.437  -8.775
31022SOL     OW95072   2.701   3.747   1.496
31022SOL    HW195073   2.664   3.689   1.429
31022SOL    HW295074   2.786   3.773   1.461
31023SOL     OW95075   7.743   9.825   5.212
31023SOL    HW195076   7.748  20.841   5.119
31023SOL    HW295077   7.773   9.915   5.217
31024SOL     OW95078   1.738   9.745   0.274
31024SOL    HW195079   1.751  20.841   0.198
31024SOL    HW295080  12.717   9.677   0.243
31025SOL     OW95081   1.498   6.673   7.998
31025SOL    HW195082   1.569   6.679   8.061
31025SOL    HW295083   1.497   6.758   7.954
31026SOL     OW95084   2.061  10.009   1.947
31026SOL    HW195085   2.037   9.967  -9.010
31026SOL    HW295086   2.042   9.943   1.881
31027SOL     OW95087   8.551  10.612   5.374
31027SOL    HW195088  19.659  10.559  16.455
31027SOL    HW295089   8.508  -0.488  27.392
31028SOL     OW95090   5.222   9.277   0.635
31028SOL    HW195091   5.280 -12.746   0.584
31028SOL    HW295092  38.399  -1.806  11.737
31029SOL     OW95093   2.457   2.229   2.222
31029SOL    HW195094   2.438 -19.799   2.143
31029SOL    HW295095  -8.624   2.278  24.371
31030SOL     OW95096   7.719   6.363   5.005
31030SOL    HW195097   7.629   6.336   5.020
31030SOL    HW295098   7.713   6.455  -6.059
31031SOL     OW95099   9.136   7.932   4.197
31031SOL    HW195100   9.173  -3.102  15.149
31031SOL    HW295101   9.045   7.962   4.187
31032SOL     OW95102   1.458   1.240   8.290
31032SOL    HW195103  12.491  12.361   8.341
31032SOL    HW295104  12.547   1.265   8.212
31033SOL     OW95105   4.347  10.026   8.613
31033SOL    HW195106   4.296  10.085   8.558
31033SOL    HW295107   4.290 -12.129   8.627
31034SOL     OW95108  11.390   4.233   6.926
31034SOL    HW195109  11.307  -6.773   6.893
31034SOL    HW295110   0.346   4.138   6.911
31035SOL     OW95111   6.014  10.074   4.168
31035SOL    HW195112   5.981  10.077   4.258
31035SOL    HW295113   5.969   9.999   4.129
31036SOL     OW95114   3.543   1.004   4.885
31036SOL    HW195115   3.628   0.997   4.841
31036SOL    HW295116   3.518   0.914 -17.176
31037SOL     OW95117   8.858   5.085   6.286
31037SOL    HW195118   8.784  16.111   6.227
31037SOL    HW295119   8.929  16.074   6.249
31038SOL     OW95120   2.356  10.220   5.739
31038SOL    HW195121   2.397  10.145   5.695
31038SOL    HW295122   2.270  10.187  16.804
31039SOL     OW95123   2.893   6.305   6.554
31039SOL    HW195124   2.847   6.306   6.470
31039SOL    HW295125   2.986   6.298  39.650
31040SOL     OW95126   2.101   4.312   0.425
31040SOL    HW195127  -8.906  15.440   0.445
31040SOL    HW295128   2.031  15.337  11.528
31041SOL     OW95129   5.415   8.404   2.780
31041SOL    HW195130  -5.551   8.440   2.730
31041SOL    HW295131  -5.679   8.360   2.715
31042SOL     OW95132  10.351   5.634  10.083
31042SOL    HW195133  10.333   5.698  -0.888
31042SOL    HW295134  10.322   5.551  10.120
31043SOL     OW95135   9.391  12.156  10.290
31043SOL    HW195136  -1.741  12.139  21.311
31043SOL    HW295137   9.396 -20.955  10.385
31044SOL     OW95138   4.152   2.863   8.297
31044SOL    HW195139   4.110  13.865  30.454
31044SOL    HW295140 -17.964   2.951   8.290
31045SOL     OW95141   5.153   6.575   1.978
31045SOL    HW195142  16.197   6.482   1.953
31045SOL    HW295143   5.144  -4.418   1.895
31046SOL     OW95144   9.549   1.587   8.423
31046SOL    HW195145  -1.470   1.549   8.509
31046SOL    HW295146   9.522  -9.527   8.369
31047SOL     OW95147   2.138   0.858   2.681
31047SOL    HW195148  -8.949   0.792   2.630
31047SOL    HW295149  -8.939   0.942  24.731
31048SOL     OW95150   0.637   8.788   7.990
31048SOL    HW195151  22.659   8.865   7.992
31048SOL    HW295152 -10.324   8.816  19.076
31049SOL     OW95153   4.157   3.053   6.407
31049SOL    HW195154  15.255  14.032  28.440
31049SOL    HW295155   4.143  14.164  17.384
31050SOL     OW95156   7.507   1.521   2.096
31050SOL    HW195157   7.433   1.526   2.155
31050SOL    HW295158   7.550   1.438   2.117
31051SOL     OW95159   9.836   7.012   7.056
31051SOL    HW195160  -1.211  -3.967 -14.949
31051SOL    HW295161   9.772   6.943  18.114
31052SOL     OW95162  10.913  10.725  -0.288
31052SOL    HW195163  -0.133  -0.224  -0.258
31052SOL    HW295164  10.955  21.718  10.824
31053SOL     OW95165   5.190   7.581   3.960
31053SOL    HW195166   5.099   7.601  -7.059
31053SOL    HW295167 -16.839   7.651 -18.076
31054SOL     OW95168   4.916   2.101   0.798
31054SOL    HW195169  15.924  13.133   0.708
31054SOL    HW295170  15.909  35.152   0.846
31055SOL     OW95171   8.732   5.123   1.478
31055SOL    HW195172   8.746  16.164   1.573
31055SOL    HW295173   8.646   5.082  12.507
31056SOL     OW95174   3.925   0.270   7.649
31056SOL    HW195175  25.908   0.269   7.645
31056SOL    HW295176   3.949   0.362   7.643
31057SOL     OW95177   3.456   4.510  11.857
31057SOL    HW195178   3.464   4.542  11.946
31057SOL    HW295179   3.433   4.418 -10.213
31058SOL     OW95180   4.068   1.729   6.786
31058SOL    HW195181   4.046   1.807   6.837
31058SOL    HW295182   4.025  -9.297  17.741
31059SOL     OW95183   0.444   5.043   8.271
31059SOL    HW195184   0.432   4.966   8.216
31059SOL    HW295185   0.358   5.058   8.310
31060SOL     OW95186   1.688   7.871   9.136
31060SOL    HW195187   1.666   7.778   9.140
31060SOL    HW295188   1.783   7.873   9.147
31061SOL     OW95189   1.500   4.315   1.149
31061SOL    HW195190  23.590 -17.686  12.243
31061SOL    HW295191  -9.513   4.242   1.206
31062SOL     OW95192   1.225   7.030   9.097
31062SOL    HW195193  -9.853   6.972   9.031
31062SOL    HW295194   1.256   6.971   9.165
31063SOL     OW95195   6.462   1.883  10.795
31063SOL    HW195196 -15.553   1.860 -22.256
31063SOL    HW295197  17.512  13.017  10.783
31064SOL     OW95198   6.624   2.333   1.432
31064SOL    HW195199  17.644   2.411   1.484
31064SOL    HW295200   6.538   2.294   1.414
31065SOL     OW95201   7.444   9.682   2.769
31065SOL    HW195202   7.464  20.635   2.806
31065SOL    HW295203   7.524   9.732   2.782
31066SOL     OW95204   3.035   4.907   0.456
31066SOL    HW195205  14.008   4.968   0.425
31066SOL    HW295206   3.006   4.883  22.624
31067SOL     OW95207   7.094   5.342   4.676
31067SOL    HW195208   7.140   5.261   4.655
31067SOL    HW295209   7.052  -5.671   4.594
31068SOL     OW95210  12.805   9.451   4.816
31068SOL    HW195211 -20.305  20.571   4.766
31068SOL    HW295212   1.748   9.383   4.750
31069SOL     OW95213  10.956   4.886   5.544
31069SOL    HW195214  -0.172   4.911  -5.468
31069SOL    HW295215  11.013   4.924   5.611
31070SOL     OW95216   6.907   9.563   4.171
31070SOL    HW195217   6.952  42.755   4.130
31070SOL    HW295218   6.832 -12.533   4.113
31071SOL     OW95219  11.438   6.140  14.571
31071SOL    HW195220  11.473   6.098 -18.470
31071SOL    HW295221 -32.725   6.233 -18.525
31072SOL     OW95222   9.171   3.102   8.377
31072SOL    HW195223   9.177   3.057  -2.578
31072SOL    HW295224   9.261  -7.933   8.346
31073SOL     OW95225   5.098   9.383   3.764
31073SOL    HW195226 -16.889   9.371  -7.251
31073SOL    HW295227   5.095   9.362   3.671
31074SOL     OW95228   2.621   1.043   1.478
31074SOL    HW195229   2.659 -10.085 -20.598
31074SOL    HW295230   2.697   1.102   1.483
31075SOL     OW95231   7.330   8.946   2.503
31075SOL    HW195232  18.442   8.989   2.458
31075SOL    HW295233  18.399  19.978  13.634
31076SOL     OW95234  10.181   9.670   4.637
31076SOL    HW195235  10.120   9.689  -6.332
31076SOL    HW295236  10.207   9.579   4.651
31077SOL     OW95237   0.640   7.833   8.406
31077SOL    HW195238 -10.362   7.750   8.436
31077SOL    HW295239   0.628   7.821   8.312
31078SOL     OW95240   7.625   3.046   6.029
31078SOL    HW195241   7.540   3.039   6.073
31078SOL    HW295242   7.686   3.070   6.099
31079SOL     OW95243  -0.164   6.584   1.787
31079SOL    HW195244  10.816   6.601  34.979
31079SOL    HW295245  -0.221 -15.514   1.713
31080SOL     OW95246   8.138   2.263   7.717
31080SOL    HW195247  19.131 -19.824  18.674
31080SOL    HW295248   8.216  -8.830   7.707
31081SOL     OW95249   8.245   2.532   7.848
31081SOL    HW195250  -2.791   2.437   7.838
31081SOL    HW295251   8.187   2.560   7.777
31082SOL     OW95252   2.684  12.131   3.598
31082SOL    HW195253   2.774   1.085   3.566
31082SOL    HW295254   2.630   1.089   3.519
31083SOL     OW95255   1.768   8.772   5.742
31083SOL    HW195256   1.817   8.765  16.864
31083SOL    HW295257   1.715   8.851  16.792
31084SOL     OW95258   7.806  -0.492   9.998
31084SOL    HW195259  18.781  -0.428   9.970
31084SOL    HW295260  18.827  10.469   9.947
31085SOL     OW95261   1.511   1.583   0.309
31085SOL    HW195262  12.468   1.631   0.300
31085SOL    HW295263 -20.535   1.609   0.395
31086SOL     OW95264  11.193   7.278   9.776
31086SOL    HW195265   0.237  -3.730  20.849
31086SOL    HW295266  11.217 -14.868  -1.328
31087SOL     OW95267  10.542   3.387   5.698
31087SOL    HW195268 -11.624   3.415  16.765
31087SOL    HW295269  10.526  -7.707   5.621
31088SOL     OW95270   6.667   8.895  10.526
31088SOL    HW195271   6.624  31.015  10.451
31088SOL    HW295272   6.607  19.949  10.599
31089SOL     OW95273   0.781   5.979   3.821
31089SOL    HW195274   0.865 -16.084  -7.175
31089SOL    HW295275   0.785   5.889   3.791
31090SOL     OW95276   5.717   6.296   5.899
31090SOL    HW195277   5.665  -4.668   5.926
31090SOL    HW295278   5.787   6.333   5.845
31091SOL     OW95279  -0.521   1.233   9.950
31091SOL    HW195280  -0.498   1.324   9.970
31091SOL    HW295281  10.472 -20.842   9.867
31092SOL     OW95282   5.459   3.348   4.069
31092SOL    HW195283  27.496   3.427   4.103
31092SOL    HW295284  38.667  25.430   4.104
31093SOL     OW95285   8.313   5.694  10.389
31093SOL    HW195286   8.400   5.671  10.358
31093SOL    HW295287  30.407   5.751  10.464
31094SOL     OW95288   9.168   3.136   5.258
31094SOL    HW195289   9.250   3.090   5.240
31094SOL    HW295290   9.108 -19.010   5.291
31095SOL     OW95291  10.653   2.634  -1.485
31095SOL    HW195292  10.707  -8.485   9.560
31095SOL    HW295293  10.693  24.774  20.656
31096SOL     OW95294   3.880   6.037   6.831
31096SOL    HW195295   3.888  -4.920   6.879
31096SOL    HW295296   3.788   6.012  -4.198
31097SOL     OW95297  10.824   7.022   1.307
31097SOL    HW195298  21.957   7.031   1.286
31097SOL    HW295299  -0.217  18.010   1.388
31098SOL     OW95300   3.166   2.513   3.526
31098SOL    HW195301  -7.852  13.646   3.524
31098SOL    HW295302  -7.793   2.471   3.557
31099SOL     OW95303   3.024   8.318   4.957
31099SOL    HW195304  25.044   8.392  15.981
31099SOL    HW295305  14.142   8.339   4.906
31100SOL     OW95306   7.269   9.328   9.348
31100SOL    HW195307  -3.849  20.419  20.403
31100SOL    HW295308   7.325   9.346   9.424
31101SOL     OW95309   4.045   5.404   2.669
31101SOL    HW195310   3.950  -5.628   2.659
31101SOL    HW295311   4.074   5.495   2.680
31102SOL     OW95312   6.056   6.867   6.856
31102SOL    HW195313   6.083   6.783 -15.185
31102SOL    HW295314   5.961 -15.218  -4.190
31103SOL     OW95315   2.546   4.987   9.129
31103SOL    HW195316   2.460   4.948   9.142
31103SOL    HW295317   2.599   4.955   9.203
31104SOL     OW95318   9.510   7.879   6.848
31104SOL    HW195319   9.505   7.831   6.931
31104SOL    HW295320   9.603  18.922   6.829
31105SOL     OW95321  10.136   1.348   7.979
31105SOL    HW195322  10.155   1.279   7.915
31105SOL    HW295323  -0.983  23.398   8.023
31106SOL     OW95324   6.360  10.778   0.290
31106SOL    HW195325  17.456  10.754   0.217
31106SOL    HW295326  -4.706 -33.464   0.329
31107SOL     OW95327   5.468   6.451   0.390
31107SOL    HW195328   5.417   6.531   0.379
31107SOL    HW295329   5.522   6.446   0.311
31108SOL     OW95330   8.247   6.417   1.566
31108SOL    HW195331   8.264   6.354   1.636
31108SOL    HW295332   8.334  -4.595   1.538
31109SOL     OW95333   0.659   2.358   8.480
31109SOL    HW195334 -10.307   2.368   8.420
31109SOL    HW295335   0.591   2.314   8.428
31110SOL     OW95336   7.278   0.213   5.352
31110SOL    HW195337   7.226   0.276   5.402
31110SOL    HW295338   7.363   0.212  16.435
31111SOL     OW95339   9.278   4.358   1.927
31111SOL    HW195340   9.185   4.380   1.922
31111SOL    HW295341   9.304   4.381   2.016
31112SOL     OW95342   4.475   4.013   9.267
31112SOL    HW195343   4.442  15.136   9.297
31112SOL    HW295344  15.546  15.008   9.346
31113SOL     OW95345  12.649   2.823   4.757
31113SOL    HW195346  12.710   2.782 -17.383
31113SOL    HW295347 -31.453   2.868 -28.298
31114SOL     OW95348   4.134   5.077   3.575
31114SOL    HW195349  15.250   5.088   3.518
31114SOL    HW295350  15.210   5.062   3.662
31115SOL     OW95351   3.087   7.278   9.743
31115SOL    HW195352  -8.002  -3.682   9.764
31115SOL    HW295353  14.112   7.265   9.649
31116SOL     OW95354   8.811  -0.240   8.297
31116SOL    HW195355  19.819  21.825   8.208
31116SOL    HW295356   8.768  -0.308  41.468
31117SOL     OW95357   3.669   4.775   3.414
31117SOL    HW195358  -7.335   4.702   3.363
31117SOL    HW295359   3.656  -6.301   3.502
31118SOL     OW95360   4.246   7.452   8.092
31118SOL    HW195361   4.156   7.455  30.138
31118SOL    HW295362  15.283 -25.728   8.165
31119SOL     OW95363   3.512   8.656   0.465
31119SOL    HW195364   3.558   8.574  22.521
31119SOL    HW295365   3.517 -24.410   0.385
31120SOL     OW95366   2.452   0.529   2.855
31120SOL    HW195367   2.537   0.558   2.822
31120SOL    HW295368   2.473   0.458   2.915
31121SOL     OW95369   6.853   8.321   4.785
31121SOL    HW195370  -4.268   8.293   4.743
31121SOL    HW295371   6.875   8.404 -17.336
31122SOL     OW95372   2.268   4.675   5.206
31122SOL    HW195373  -8.793   4.730   5.131
31122SOL    HW295374   2.331   4.726  16.296
31123SOL     OW95375   7.773   6.777   1.581
31123SOL    HW195376   7.718   6.783  -9.380
31123SOL    HW295377   7.858   6.809   1.609
31124SOL     OW95378   3.456   3.293   3.701
31124SOL    HW195379   3.545 -29.828   3.737
31124SOL    HW295380  -7.620 -18.704  14.772
31125SOL     OW95381   1.605   3.202   9.202
31125SOL    HW195382   1.661   3.183   9.126
31125SOL    HW295383   1.516   3.189   9.169
31126SOL     OW95384   3.066  10.581   4.058
31126SOL    HW195385   3.086  10.593 -29.153
31126SOL    HW295386   2.987  10.634   4.072
31127SOL     OW95387   7.425   7.975   2.023
31127SOL    HW195388   7.492   8.037   2.051
31127SOL    HW295389   7.373   8.023   1.959
31128SOL     OW95390   7.271   4.621   8.311
31128SOL    HW195391  -3.816  -6.425  19.433
31128SOL    HW295392 -36.919  -6.494 -35.898
31129SOL     OW95393  10.606   2.123  10.982
31129SOL    HW195394  10.623  13.118  10.899
31129SOL    HW295395  -0.347   2.144  11.017
31130SOL     OW95396   3.810   1.160  10.521
31130SOL    HW195397   3.716   1.156  -0.500
31130SOL    HW295398   3.840   1.069  10.527
31131SOL     OW95399   0.024   7.568   6.943
31131SOL    HW195400  33.061   7.520   6.936
31131SOL    HW295401  11.091  29.635   7.034
31132SOL     OW95402   9.101   5.541   7.673
31132SOL    HW195403   9.054  16.499   7.693
31132SOL    HW295404   9.135  -5.469   7.758
31133SOL     OW95405   2.219  10.258   0.176
31133SOL    HW195406   2.210 -11.731   0.205
31133SOL    HW295407  -8.887  -0.793   0.109
31134SOL     OW95408   9.999  -2.058   3.124
31134SOL    HW195409  10.019  30.988   3.066
31134SOL    HW295410  10.085  20.061   3.142
31135SOL     OW95411   3.563   7.936   8.034
31135SOL    HW195412   3.478   7.940  -2.961
31135SOL    HW295413   3.626   7.915   8.104
31136SOL     OW95414   8.966   4.611   3.014
31136SOL    HW195415   8.907   4.676   2.977
31136SOL    HW295416   9.042   4.611  13.995
31137SOL     OW95417  10.282   3.773  10.393
31137SOL    HW195418  -0.782   3.703  10.333
31137SOL    HW295419  10.235  14.890  10.361
31138SOL     OW95420   3.777   2.841   6.734
31138SOL    HW195421   3.856 -19.245  17.719
31138SOL    HW295422   3.794   2.917   6.790
31139SOL     OW95423   8.707   5.072   8.729
31139SOL    HW195424   8.646   5.060  -2.238
31139SOL    HW295425   8.671   5.145   8.679
31140SOL     OW95426   9.231   6.772   8.004
31140SOL    HW195427   9.203   6.715  30.012
31140SOL    HW295428   9.166  17.882   8.006
31141SOL     OW95429   7.095   6.572   7.543
31141SOL    HW195430  29.102   6.508   7.541
31141SOL    HW295431   7.166  -4.514   7.587
31142SOL     OW95432   5.197   4.298  -2.195
31142SOL    HW195433   5.139   4.288  42.039
31142SOL    HW295434   5.279   4.331  -2.159
31143SOL     OW95435   9.593   9.229   3.693
31143SOL    HW195436  20.663  20.359  14.732
31143SOL    HW295437  20.624   9.206   3.601
31144SOL     OW95438  11.023   0.890   0.656
31144SOL    HW195439  10.939   0.884   0.702
31144SOL    HW295440  11.003  11.902 -10.473
31145SOL     OW95441   3.380   6.645   6.063
31145SOL    HW195442  14.335  -4.349   6.063
31145SOL    HW295443  -7.618 -15.406  -4.895
31146SOL     OW95444   0.525   6.446   1.526
31146SOL    HW195445   0.447  -4.543  12.543
31146SOL    HW295446  11.622  -4.585   1.449
31147SOL     OW95447   9.701   7.043   0.038
31147SOL    HW195448   9.629 -14.988   0.078
31147SOL    HW295449   9.673  29.106  22.027
31148SOL     OW95450   2.394   0.757  11.616
31148SOL    HW195451  35.591   0.793  11.575
31148SOL    HW295452  24.408   0.828   0.570
31149SOL     OW95453   6.308  10.598   5.090
31149SOL    HW195454   6.292  10.530   5.025
31149SOL    HW295455  39.452  10.675   5.038
31150SOL     OW95456   5.635   3.635   2.919
31150SOL    HW195457   5.687   3.715   2.907
31150SOL    HW295458   5.552   3.666   2.954
31151SOL     OW95459   9.008   2.999   3.351
31151SOL    HW195460  20.052 -30.070   3.269
31151SOL    HW295461  20.138   2.973   3.368
31152SOL     OW95462   4.483   1.175   9.201
31152SOL    HW195463   4.403   1.197 -12.926
31152SOL    HW295464  15.555   1.095  31.237
31153SOL     OW95465  -1.829   1.298   6.500
31153SOL    HW195466  31.335   1.246   6.567
31153SOL    HW295467  -1.804   1.258   6.417
31154SOL     OW95468   0.319   9.192   7.495
31154SOL    HW195469   0.352   9.107   7.525
31154SOL    HW295470  22.410  -1.790   7.571
31155SOL     OW95471   5.836   9.589   6.278
31155SOL    HW195472   5.844   9.645   6.355
31155SOL    HW295473  -5.271  -1.410   6.225
31156SOL     OW95474   2.830   7.391   2.133
31156SOL    HW195475 -19.164  18.406   2.169
31156SOL    HW295476  -8.267   7.318   2.155
31157SOL     OW95477   8.051   8.749   8.271
31157SOL    HW195478   8.083  -2.331  -2.849
31157SOL    HW295479  -3.017  19.876  -2.795
31158SOL     OW95480   4.896   4.379   4.681
31158SOL    HW195481   4.856   4.446   4.627
31158SOL    HW295482   4.977   4.418  15.753
31159SOL     OW95483  -0.030   1.935   6.307
31159SOL    HW195484  10.929   1.906  17.304
31159SOL    HW295485  -0.057 -20.119   6.395
31160SOL     OW95486   6.384   5.936   9.066
31160SOL    HW195487  -4.560  -5.105  -1.975
31160SOL    HW295488  17.400 -16.159   9.157
31161SOL     OW95489   6.538   4.596   0.002
31161SOL    HW195490   6.564  -6.370  10.987
31161SOL    HW295491   6.599   4.599   0.076
31162SOL     OW95492   5.781   0.021   7.115
31162SOL    HW195493   5.747   0.071   7.189
31162SOL    HW295494   5.746  -0.067  29.207
31163SOL     OW95495   7.797   2.095   9.374
31163SOL    HW195496   7.790  24.085   9.408
31163SOL    HW295497   7.782  13.126   9.280
31164SOL     OW95498  11.734   8.288  11.499
31164SOL    HW195499 -10.334   8.341   0.380
31164SOL    HW295500  11.651  19.282  11.485
31165SOL     OW95501   6.552   7.474   2.659
31165SOL    HW195502  17.579  18.606  24.718
31165SOL    HW295503   6.588   7.437   2.579
31166SOL     OW95504   4.514   2.092   7.201
31166SOL    HW195505   4.563  24.113   7.143
31166SOL    HW295506   4.575   2.163  18.260
31167SOL     OW95507   0.935   3.176   9.117
31167SOL    HW195508  11.987   3.176   9.022
31167SOL    HW295509 -21.079   3.114  -1.890
31168SOL     OW95510   9.253   9.608  10.224
31168SOL    HW195511   9.217   9.638  10.140
31168SOL    HW295512   9.213   9.522  10.238
31169SOL     OW95513   3.476  11.651   7.790
31169SOL    HW195514   3.476  11.633   7.696
31169SOL    HW295515   3.545   0.677   7.802
31170SOL     OW95516   9.545   3.051  -0.042
31170SOL    HW195517   9.616  -8.046  10.970
31170SOL    HW295518   9.547   3.047   0.054
31171SOL     OW95519   2.923   4.892   7.571
31171SOL    HW195520   2.972   4.853  18.538
31171SOL    HW295521   2.938  15.873   7.645
31172SOL     OW95522   5.052   1.180   8.849
31172SOL    HW195523   5.004   1.262  -2.199
31172SOL    HW295524  16.023   1.113  -2.187
31173SOL     OW95525   2.914   1.796   1.100
31173SOL    HW195526   2.930   1.877   1.147
31173SOL    HW295527   2.831   1.764   1.134
31174SOL     OW95528   5.560   0.646   8.133
31174SOL    HW195529   5.631   0.690  19.219
31174SOL    HW295530   5.481   0.666   8.184
31175SOL     OW95531   0.210   3.155   6.425
31175SOL    HW195532   0.279 -18.955   6.367
31175SOL    HW295533   0.129   3.123   6.386
31176SOL     OW95534   1.541   7.781   4.077
31176SOL    HW195535   1.541   7.850   4.144
31176SOL    HW295536   1.451  29.826   4.078
31177SOL     OW95537   3.276   6.172  10.151
31177SOL    HW195538  14.226   6.202  21.175
31177SOL    HW295539  14.370  17.271  10.101
31178SOL     OW95540   8.066   7.101   8.206
31178SOL    HW195541   8.001   7.139   8.147
31178SOL    HW295542   8.133   7.168 -24.904
31179SOL     OW95543   4.644   9.979   1.612
31179SOL    HW195544   4.565  10.008  12.606
31179SOL    HW295545 -17.408   9.900  12.605
31180SOL     OW95546   2.018   9.263   9.764
31180SOL    HW195547   2.036   9.332   9.700
31180SOL    HW295548   1.927   9.238  -1.294
31181SOL     OW95549   3.825   9.214   9.936
31181SOL    HW195550  36.900 -23.874  10.016
31181SOL    HW295551   3.902   9.270   9.929
31182SOL     OW95552   0.987   9.091   8.026
31182SOL    HW195553   1.057   9.110   7.964
31182SOL    HW295554   0.915   9.060   7.972
31183SOL     OW95555   8.544   8.732   2.167
31183SOL    HW195556   8.600  19.699   2.195
31183SOL    HW295557  -2.577   8.691   2.140
31184SOL     OW95558  -1.092   7.799   3.227
31184SOL    HW195559   9.914   7.841  14.187
31184SOL    HW295560   9.880 -14.344   3.250
31185SOL     OW95561   0.554   9.955   0.440
31185SOL    HW195562   0.575   9.876   0.491
31185SOL    HW295563   0.469   9.984   0.474
31186SOL     OW95564   8.665   5.253   2.628
31186SOL    HW195565   8.687   5.210   2.545
31186SOL    HW295566   8.721   5.330   2.631
31187SOL     OW95567   6.327  11.475   6.950
31187SOL    HW195568   6.260 -21.611   7.010
31187SOL    HW295569   6.284   0.363   6.904
31188SOL     OW95570   4.526   4.797   7.626
31188SOL    HW195571   4.598  -6.305  18.673
31188SOL    HW295572   4.560   4.866   7.569
31189SOL     OW95573   3.612   4.617   8.648
31189SOL    HW195574   3.561   4.698  19.694
31189SOL    HW295575   3.663   4.628   8.567
31190SOL     OW95576   9.310   5.468   3.788
31190SOL    HW195577   9.229   5.491  14.782
31190SOL    HW295578   9.288  38.594 -18.198
31191SOL     OW95579   2.967   3.530   8.111
31191SOL    HW195580   2.898   3.494   8.055
31191SOL    HW295581   2.968   3.473   8.188
31192SOL     OW95582   6.975   1.744   7.247
31192SOL    HW195583   6.910   1.742   7.317
31192SOL    HW295584   6.985  12.877  18.267
31193SOL     OW95585  11.569  10.564   4.966
31193SOL    HW195586   0.478  10.541   4.888
31193SOL    HW295587  11.543  -0.386   4.986
31194SOL     OW95588  11.229   1.370   4.326
31194SOL    HW195589  11.261   1.452  15.328
31194SOL    HW295590   0.151  12.362   4.251
31195SOL     OW95591  10.713   4.888   2.048
31195SOL    HW195592  10.746  -6.082   2.105
31195SOL    HW295593  10.777   4.817   2.059
31196SOL     OW95594   3.780   7.732   4.151
31196SOL    HW195595   3.755   7.655  -6.940
31196SOL    HW295596   3.713  18.836   4.132
31197SOL     OW95597   8.124   9.354  -1.017
31197SOL    HW195598   8.145 -23.671  43.140
31197SOL    HW295599   8.179   9.318  10.092
31198SOL     OW95600   8.345   9.413   1.675
31198SOL    HW195601   8.439  31.482   1.688
31198SOL    HW295602   8.328  -1.533   1.688
31199SOL     OW95603   9.909   8.759   8.063
31199SOL    HW195604   9.957  30.809  19.181
31199SOL    HW295605   9.881  19.888   8.084
31200SOL     OW95606   1.608   5.378   5.272
31200SOL    HW195607  12.565  -5.688   5.312
31200SOL    HW295608   1.599  16.513   5.261
31201SOL     OW95609   1.748   8.582   8.925
31201SOL    HW195610  12.868   8.531   8.928
31201SOL    HW295611   1.760   8.639   8.849
31202SOL     OW95612   4.800  10.445   5.213
31202SOL    HW195613   4.853  10.519   5.244
31202SOL    HW295614  -6.180 -11.685   5.158
31203SOL     OW95615   6.561  10.399  10.823
31203SOL    HW195616   6.607  10.406  10.739
31203SOL    HW295617   6.472  10.374  10.800
31204SOL     OW95618   1.838   1.462  10.729
31204SOL    HW195619   1.776   1.427  10.792
31204SOL    HW295620   1.922  -9.617  10.753
31205SOL     OW95621   0.876   0.157   7.176
31205SOL    HW195622   0.966   0.131   7.157
31205SOL    HW295623   0.840  11.222   7.091
31206SOL     OW95624   7.396   4.627   1.409
31206SOL    HW195625   7.457   4.561   1.439
31206SOL    HW295626   7.446   4.709   1.412
31207SOL     OW95627   2.262   1.820  11.540
31207SOL    HW195628   2.349   1.784   0.516
31207SOL    HW295629   2.233  12.821 -10.622
31208SOL     OW95630   5.472   9.828  -0.057
31208SOL    HW195631  -5.643   9.880  -0.030
31208SOL    HW295632   5.439   9.772  32.991
31209SOL     OW95633   8.961  10.382   3.355
31209SOL    HW195634   8.876  10.364   3.396
31209SOL    HW295635   8.970  -0.725  -7.753
31210SOL     OW95636   3.022   8.190   9.520
31210SOL    HW195637   3.012   8.219  31.509
31210SOL    HW295638   3.045   8.270   9.568
31211SOL     OW95639   8.887   9.579  -1.390
31211SOL    HW195640   8.853   9.542   9.568
31211SOL    HW295641   8.907  20.542  31.783
31212SOL     OW95642   4.692   5.141   5.668
31212SOL    HW195643   4.722   5.215   5.721
31212SOL    HW295644  -6.271   5.084   5.662
31213SOL     OW95645   5.889   5.233   1.935
31213SOL    HW195646   5.898   5.327  -9.085
31213SOL    HW295647  16.995  -5.848   1.991
31214SOL     OW95648   8.844   5.764   0.618
31214SOL    HW195649  -2.215  16.896   0.605
31214SOL    HW295650 -13.281   5.719   0.546
31215SOL     OW95651   4.083   0.677  11.168
31215SOL    HW195652   4.097  11.807   0.155
31215SOL    HW295653   4.061   0.683  11.075
31216SOL     OW95654   2.683   1.259   2.418
31216SOL    HW195655   2.614   1.276  13.394
31216SOL    HW295656   2.648  -9.748   2.501
31217SOL     OW95657  11.193   2.730   5.200
31217SOL    HW195658   0.084  13.738   5.142
31217SOL    HW295659  11.249  -8.386  27.293
31218SOL     OW95660   6.993   0.712   3.994
31218SOL    HW195661  62.252  11.691  26.031
31218SOL    HW295662   6.972   0.671   4.078
31219SOL     OW95663   9.618   1.140   1.167
31219SOL    HW195664   9.617  12.102   1.110
31219SOL    HW295665  20.572   1.181  23.231
31220SOL     OW95666  11.398  -0.131   8.676
31220SOL    HW195667 -21.705  11.003   8.676
31220SOL    HW295668   0.316  10.892   8.592
31221SOL     OW95669   2.360   2.003   1.659
31221SOL    HW195670  -8.644   2.091   1.672
31221SOL    HW295671   2.438   1.948  -9.394
31222SOL     OW95672   6.059   4.390   3.562
31222SOL    HW195673   6.105   4.440   3.494
31222SOL    HW295674   6.102   4.417   3.643
31223SOL     OW95675   8.975  -0.448   4.527
31223SOL    HW195676 -24.118  -0.502 -17.626
31223SOL    HW295677   8.930  10.667   4.487
31224SOL     OW95678  12.384   3.171   9.138
31224SOL    HW195679  12.358 -29.983   9.053
31224SOL    HW295680 -20.781   3.254  42.264
31225SOL     OW95681  11.359  11.000  10.451
31225SOL    HW195682   0.234  10.979  10.412
31225SOL    HW295683  11.415  10.927  10.425
31226SOL     OW95684   3.760   1.518   7.828
31226SOL    HW195685  14.795  12.545   7.922
31226SOL    HW295686   3.853   1.507   7.806
31227SOL     OW95687  -0.335   6.068   0.416
31227SOL    HW195688  21.823   6.122  11.448
31227SOL    HW295689  -0.394  17.142 -10.689
31228SOL     OW95690   6.215  10.056   6.465
31228SOL    HW195691   6.276  21.025   6.444
31228SOL    HW295692   6.159  10.021   6.534
31229SOL     OW95693   2.109   8.125  10.683
31229SOL    HW195694   2.170   8.199  -0.359
31229SOL    HW295695   2.150  19.098 -22.491
31230SOL     OW95696   8.954  11.876   1.404
31230SOL    HW195697 -13.099  11.956   1.450
31230SOL    HW295698   8.974 -10.273   1.466
31231SOL     OW95699   1.226   5.947   1.963
31231SOL    HW195700   1.300   5.982  12.954
31231SOL    HW295701   1.235  28.063  13.090
31232SOL     OW95702   9.817   8.492   1.280
31232SOL    HW195703  -1.255   8.469  12.232
31232SOL    HW295704 -12.278   8.414   1.333
31233SOL     OW95705   2.798   2.322  12.306
31233SOL    HW195706   2.875   2.352   1.315
31233SOL    HW295707  -8.213   2.318  -9.864
31234SOL     OW95708   3.941   1.167   2.362
31234SOL    HW195709   4.020   1.131   2.401
31234SOL    HW295710   3.886   1.192   2.436
31235SOL     OW95711   2.028   0.947   8.559
31235SOL    HW195712   2.101   0.914   8.610
31235SOL    HW295713  13.052   1.036   8.592
31236SOL     OW95714   3.175   4.628   3.925
31236SOL    HW195715   3.096  15.667 -29.138
31236SOL    HW295716   3.220   4.547   3.947
31237SOL     OW95717   8.261   9.004   0.066
31237SOL    HW195718  19.326   9.090   0.033
31237SOL    HW295719  19.206   8.998  22.128
31238SOL     OW95720   6.178   0.014   9.402
31238SOL    HW195721   6.162  10.961   9.382
31238SOL    HW295722  -4.906  11.068 -23.633
31239SOL     OW95723   9.201   3.224   4.352
31239SOL    HW195724  -1.811   3.179   4.432
31239SOL    HW295725  -1.917   3.272  15.418
31240SOL     OW95726   0.422   4.159  10.405
31240SOL    HW195727   0.431   4.064  10.402
31240SOL    HW295728   0.512  -6.848  10.400
31241SOL     OW95729   6.999   5.985   2.348
31241SOL    HW195730   6.926   5.925   2.362
31241SOL    HW295731  18.014   6.035   2.270
31242SOL     OW95732   3.989   0.717  10.143
31242SOL    HW195733  48.087   0.660 -11.984
31242SOL    HW295734   3.989   0.683  10.232
31243SOL     OW95735   0.673   9.835   1.166
31243SOL    HW195736 -10.329 -23.259   1.250
31243SOL    HW295737   0.611   9.764   1.187
31244SOL     OW95738  10.504   0.658  11.536
31244SOL    HW195739  -0.549   0.703 -32.539
31244SOL    HW295740  10.598   0.636  11.535
31245SOL     OW95741   5.091   5.692   3.630
31245SOL    HW195742   5.072   5.771   3.682
31245SOL    HW295743  16.203   5.650   3.677
31246SOL     OW95744   5.253  10.772  10.076
31246SOL    HW195745  27.274  10.774  10.000
31246SOL    HW295746  38.346  10.848  10.128
31247SOL     OW95747   3.266  -2.067   5.696
31247SOL    HW195748   3.309  20.028  -5.259
31247SOL    HW295749  -7.706  42.049   5.643
31248SOL     OW95750   1.833   3.074   9.357
31248SOL    HW195751  23.924 -19.100   9.349
31248SOL    HW295752   1.756   3.093  -1.736
31249SOL     OW95753   7.632   0.798   0.659
31249SOL    HW195754   7.624 -10.332   0.690
31249SOL    HW295755   7.559   0.844   0.702
31250SOL     OW95756  11.105   5.443   6.996
31250SOL    HW195757   0.145  38.548   7.048
31250SOL    HW295758 -11.016   5.357  -4.046
31251SOL     OW95759   9.679   4.817   7.062
31251SOL    HW195760   9.750   4.845   7.119
31251SOL    HW295761   9.643   4.739   7.105
31252SOL     OW95762   7.556   3.367   4.577
31252SOL    HW195763   7.584   3.327  -6.545
31252SOL    HW295764  18.671   3.355 -17.443
31253SOL     OW95765   9.120   8.143   2.980
31253SOL    HW195766   9.128   8.065   3.035
31253SOL    HW295767 -24.086   8.177   2.999
31254SOL     OW95768  10.422   7.164   6.195
31254SOL    HW195769 -11.752  29.242  17.232
31254SOL    HW295770  10.448   7.137  17.146
31255SOL     OW95771   8.110  12.415   5.112
31255SOL    HW195772  19.145   1.418   5.026
31255SOL    HW295773   8.178 -20.654   5.159
31256SOL     OW95774   1.320   3.466   4.175
31256SOL    HW195775  -9.787   3.526  26.222
31256SOL    HW295776  23.444  -7.525   4.244
31257SOL     OW95777   7.992   9.591   9.288
31257SOL    HW195778  -3.062 -12.418   9.225
31257SOL    HW295779   7.909   9.543  -1.750
31258SOL     OW95780   7.976   4.383   6.003
31258SOL    HW195781   7.906   4.320  -5.021
31258SOL    HW295782   7.986  26.509 -15.993
31259SOL     OW95783   4.422   2.087   7.699
31259SOL    HW195784   4.460   2.026 -14.443
31259SOL    HW295785  -6.702   2.111   7.662
31260SOL     OW95786   7.173   8.059   0.316
31260SOL    HW195787   7.109 -25.130   0.317
31260SOL    HW295788   7.232  -3.001   0.244
31261SOL     OW95789   5.273   2.998   5.743
31261SOL    HW195790  -5.762  13.942   5.737
31261SOL    HW295791  -5.727   3.029   5.661
31262SOL     OW95792   9.946   4.779   4.382
31262SOL    HW195793   9.870   4.824   4.345
31262SOL    HW295794  10.019  26.884  59.523
31263SOL     OW95795   4.132   7.541   7.559
31263SOL    HW195796   4.104  -3.444  40.751
31263SOL    HW295797   4.177  -3.573   7.601
31264SOL     OW95798   6.573   7.364   2.184
31264SOL    HW195799  17.622   7.302   2.112
31264SOL    HW295800   6.479  -3.658   2.189
31265SOL     OW95801   2.129   0.994   4.486
31265SOL    HW195802   2.106   1.019   4.575
31265SOL    HW295803  13.226   1.064   4.455
31266SOL     OW95804   1.216   7.220   5.902
31266SOL    HW195805   1.203  40.298   5.816
31266SOL    HW295806  -9.775  29.379   5.884
31267SOL     OW95807   2.032  -1.054   4.941
31267SOL    HW195808   1.957  20.970  -6.121
31267SOL    HW295809  -9.046  32.148   4.968
31268SOL     OW95810   4.369   4.993  10.648
31268SOL    HW195811 -17.715   4.921  10.711
31268SOL    HW295812   4.278   5.015  10.630
31269SOL     OW95813  10.830   7.191  10.086
31269SOL    HW195814  10.740  29.283  10.056
31269SOL    HW295815  10.835  40.358  -0.871
31270SOL     OW95816   9.289   9.604   6.784
31270SOL    HW195817   9.238   9.619   6.863
31270SOL    HW295818   9.357   9.671   6.786
31271SOL     OW95819   5.454   3.769   0.091
31271SOL    HW195820 -16.642   3.808  11.044
31271SOL    HW295821   5.458   3.675   0.075
31272SOL     OW95822  11.480   4.620   9.571
31272SOL    HW195823  11.386   4.612   9.555
31272SOL    HW295824   0.471  -6.360 -23.617
31273SOL     OW95825  10.619   3.539   8.251
31273SOL    HW195826  10.711   3.513  41.368
31273SOL    HW295827  10.570  25.538   8.234
31274SOL     OW95828   5.236  11.571   8.310
31274SOL    HW195829  16.265   0.594  30.317
31274SOL    HW295830   5.158  11.514   8.304
31275SOL     OW95831   0.062  10.255   8.073
31275SOL    HW195832  11.066  10.170   8.096
31275SOL    HW295833   0.088  10.293  -2.882
31276SOL     OW95834   9.037   7.367   4.179
31276SOL    HW195835   8.963   7.355   4.238
31276SOL    HW295836 -13.069   7.322 -17.981
31277SOL     OW95837   4.380   1.372   1.276
31277SOL    HW195838   4.342   1.444  12.264
31277SOL    HW295839   4.376   1.402   1.367
31278SOL     OW95840   7.853   8.332   3.632
31278SOL    HW195841  29.965 -24.867  14.632
31278SOL    HW295842   7.931 -24.747  25.751
31279SOL     OW95843   6.825   6.768   3.318
31279SOL    HW195844   6.823   6.721 -18.845
31279SOL    HW295845   6.909   6.813  14.358
31280SOL     OW95846   9.817   8.641   7.095
31280SOL    HW195847  -1.220  -2.364   7.006
31280SOL    HW295848   9.903  -2.439   7.107
31281SOL     OW95849  10.080   3.233   3.418
31281SOL    HW195850  21.169   3.267   3.344
31281SOL    HW295851  10.009   3.182   3.378
31282SOL     OW95852   9.697   5.979   0.738
31282SOL    HW195853  -1.333   5.927   0.658
31282SOL    HW295854   9.662   5.918 -10.237
31283SOL     OW95855   2.960   6.038   2.296
31283SOL    HW195856  -8.096  -5.005   2.390
31283SOL    HW295857   3.002   5.955   2.275
31284SOL     OW95858   8.592   4.622   7.113
31284SOL    HW195859   8.508  15.674   7.158
31284SOL    HW295860   8.572  15.671   7.020
31285SOL     OW95861   5.053   2.480   2.822
31285SOL    HW195862  -5.976  13.614   2.815
31285SOL    HW295863   5.082  24.539   2.912
31286SOL     OW95864   2.127   7.329   6.429
31286SOL    HW195865   2.152   7.406   6.379
31286SOL    HW295866   2.168   7.342   6.515
31287SOL     OW95867   4.427   2.682   3.910
31287SOL    HW195868   4.380   2.672   3.827
31287SOL    HW295869  26.596   2.700   3.884
31288SOL     OW95870   5.484   6.394   8.382
31288SOL    HW195871   5.391  17.418  19.409
31288SOL    HW295872  -5.516   6.307  19.420
31289SOL     OW95873   1.579   2.183   8.487
31289SOL    HW195874  12.648  -8.903  30.488
31289SOL    HW295875  12.523   2.180   8.484
31290SOL     OW95876   0.344   5.894   7.139
31290SOL    HW195877   0.370  16.851   7.181
31290SOL    HW295878   0.425   5.932   7.106
31291SOL     OW95879   2.672   0.291   2.642
31291SOL    HW195880 -30.407   0.375  13.661
31291SOL    HW295881   2.732  11.266  -8.437
31292SOL     OW95882  11.006   5.470   9.144
31292SOL    HW195883  11.095   5.483   9.113
31292SOL    HW295884 -11.120   5.435   9.069
31293SOL     OW95885   4.657   8.616  11.275
31293SOL    HW195886  -6.305   8.592   0.185
31293SOL    HW295887 -17.414  -2.473  11.357
31294SOL     OW95888   6.594  -0.062   7.141
31294SOL    HW195889 -15.419  11.047   7.134
31294SOL    HW295890  -4.521  -0.020   7.181
31295SOL     OW95891   2.782   2.122   7.222
31295SOL    HW195892  13.915   2.136   7.238
31295SOL    HW295893  13.803   2.169  18.180
31296SOL     OW95894   3.006  -1.000   2.339
31296SOL    HW195895  14.098  -0.924   2.366
31296SOL    HW295896  25.029  21.113   2.269
31297SOL     OW95897   3.238   9.531   1.169
31297SOL    HW195898   3.183   9.470   1.119
31297SOL    HW295899   3.208 -12.461   1.142
31298SOL     OW95900   8.607   2.927   3.252
31298SOL    HW195901   8.532   2.874   3.227
31298SOL    HW295902 -13.418   2.932 -18.906
31299SOL     OW95903   1.214  10.299   5.061
31299SOL    HW195904   1.242  10.389   5.079
31299SOL    HW295905  -9.803  10.251   5.140
31300SOL     OW95906   3.580  11.944   1.115
31300SOL    HW195907   3.577 -10.141   1.210
31300SOL    HW295908 -18.411  11.976   1.096
31301SOL     OW95909   1.086   3.502   3.697
31301SOL    HW195910   1.064  14.529  14.644
31301SOL    HW295911   1.178  14.567  -7.342
31302SOL     OW95912  10.741   9.745   0.609
31302SOL    HW195913  21.771 -23.291   0.562
31302SOL    HW295914  -0.227 -12.379   0.564
31303SOL     OW95915   3.938   0.486   5.149
31303SOL    HW195916  -7.088   0.479  27.323
31303SOL    HW295917  -7.163   0.416  27.208
31304SOL     OW95918   0.798   1.740   4.675
31304SOL    HW195919  45.000   1.736   4.590
31304SOL    HW295920   0.705   1.747   4.653
31305SOL     OW95921   3.959  -1.735   9.131
31305SOL    HW195922   3.996  20.413   9.077
31305SOL    HW295923  14.905  31.384   9.112
31306SOL     OW95924   3.038   5.878   1.553
31306SOL    HW195925   3.101   5.943 -20.495
31306SOL    HW295926   2.961   5.928   1.527
31307SOL     OW95927   0.850   5.565  10.809
31307SOL    HW195928   0.786   5.608  10.753
31307SOL    HW295929   0.820   5.583  10.898
31308SOL     OW95930   1.342   9.253   9.286
31308SOL    HW195931   1.418   9.269  20.269
31308SOL    HW295932   1.357   9.309   9.362
31309SOL     OW95933  10.677  10.932   0.279
31309SOL    HW195934  10.682 -22.091  11.306
31309SOL    HW295935  10.749 -22.206   0.338
31310SOL     OW95936   2.306   4.135   0.748
31310SOL    HW195937   2.353   4.118   0.829
31310SOL    HW295938  13.392  15.248   0.708
31311SOL     OW95939   7.299   7.679   6.157
31311SOL    HW195940   7.289 -14.489   6.191
31311SOL    HW295941   7.352  -3.315  28.301
31312SOL     OW95942   3.666   1.942  10.177
31312SOL    HW195943   3.710   1.959  10.259
31312SOL    HW295944  -7.319   1.876  10.134
31313SOL     OW95945   8.490   7.297   6.483
31313SOL    HW195946  -2.467   7.252   6.501
31313SOL    HW295947   8.479   7.357  17.596
31314SOL     OW95948   1.548   4.984   5.445
31314SOL    HW195949  -9.538   4.901 -27.685
31314SOL    HW295950   1.480   5.051  -5.603
31315SOL     OW95951  10.495   3.615   5.531
31315SOL    HW195952  10.431  36.799   5.501
31315SOL    HW295953  10.476  14.577 -16.600
31316SOL     OW95954   4.428   8.363   7.989
31316SOL    HW195955   4.408   8.383  19.120
31316SOL    HW295956   4.494  19.333  19.032
31317SOL     OW95957   6.498   7.896  10.408
31317SOL    HW195958   6.412   7.867  21.417
31317SOL    HW295959   6.554 -25.225  10.330
31318SOL     OW95960   8.595  10.110   0.072
31318SOL    HW195961   8.557  10.151  -0.006
31318SOL    HW295962   8.539  10.034   0.088
31319SOL     OW95963   1.795   9.255   4.640
31319SOL    HW195964   1.799   9.159   4.635
31319SOL    HW295965  12.926   9.283   4.639
31320SOL     OW95966   8.445   9.779   4.918
31320SOL    HW195967  19.394   9.797   4.893
31320SOL    HW295968  30.520   9.758   5.011
31321SOL     OW95969   6.653   1.182   9.143
31321SOL    HW195970   6.748   1.187   9.128
31321SOL    HW295971  28.719  -9.940   9.189
31322SOL     OW95972   6.662   2.842   3.901
31322SOL    HW195973   6.702   2.802   3.824
31322SOL    HW295974   6.735   2.876   3.952
31323SOL     OW95975   9.730   9.985   4.879
31323SOL    HW195976   9.805   9.969   4.936
31323SOL    HW295977   9.688  10.062   4.917
31324SOL     OW95978   3.844   4.326  10.957
31324SOL    HW195979  25.914   4.383  10.882
31324SOL    HW295980  25.888  26.456  11.030
31325SOL     OW95981   6.983  10.147   3.655
31325SOL    HW195982   6.907  -0.835  14.702
31325SOL    HW295983   6.976  10.088  14.770
31326SOL     OW95984   7.014   8.429   4.070
31326SOL    HW195985   6.989   8.478   4.148
31326SOL    HW295986   7.009   8.492  26.078
31327SOL     OW95987   4.781   1.188   2.714
31327SOL    HW195988   4.717   1.119   2.730
31327SOL    HW295989  -6.265   1.205   2.620
31328SOL     OW95990   4.212   7.373   0.881
31328SOL    HW195991   4.161  18.493   0.890
31328SOL    HW295992   4.247   7.377   0.791
31329SOL     OW95993   8.032   0.409   4.314
31329SOL    HW195994  41.186   0.445 -17.684
31329SOL    HW295995 -25.028   0.442 -17.834
31330SOL     OW95996  11.644   9.564   5.683
31330SOL    HW195997  11.703   9.489  -5.367
31330SOL    HW295998 -10.468   9.581 -16.485
31331SOL     OW95999   2.042   9.360   4.629
31331SOL    HW196000   2.087   9.289   4.583
31331SOL    HW296001 -19.986 -12.706 -17.370
31332SOL     OW96002  -0.196   2.118  11.892
31332SOL    HW196003  21.837  24.263 -43.359
31332SOL    HW296004  -0.266  35.191 -10.141
31333SOL     OW96005   7.135   8.109   7.485
31333SOL    HW196006 -14.943 -25.058   7.568
31333SOL    HW296007   7.063   8.171   7.495
31334SOL     OW96008   6.978   4.570  10.404
31334SOL    HW196009   6.925   4.585  21.365
31334SOL    HW296010   6.914   4.549  10.472
31335SOL     OW96011   1.593   8.227   6.929
31335SOL    HW196012  -9.418   8.315   6.904
31335SOL    HW296013  12.666 -13.909   6.861
31336SOL     OW96014   2.722   4.572   3.467
31336SOL    HW196015   2.712  -6.519   3.547
31336SOL    HW296016   2.640   4.622   3.460
31337SOL     OW96017   8.335   2.145   7.967
31337SOL    HW196018   8.392  24.187   7.900
31337SOL    HW296019   8.276  35.192 -14.088
31338SOL     OW96020   4.945   2.887   6.320
31338SOL    HW196021   4.912  13.842  17.391
31338SOL    HW296022 -28.100   2.907  17.418
31339SOL     OW96023  10.447   8.685   4.572
31339SOL    HW196024 -11.673   8.601   4.595
31339SOL    HW296025  10.541   8.670 -17.497
31340SOL     OW96026   3.350   2.748   3.817
31340SOL    HW196027   3.267   2.727  -7.265
31340SOL    HW296028 -18.729   2.696  -7.142
31341SOL     OW96029  10.682   4.098   0.501
31341SOL    HW196030  10.723  37.162   0.567
31341SOL    HW296031 -11.336   4.098   0.427
31342SOL     OW96032   8.720   2.984   2.165
31342SOL    HW196033   8.705  -7.961   2.169
31342SOL    HW296034  19.761   2.964  13.111
31343SOL     OW96035   2.404   4.904   1.644
31343SOL    HW196036  -8.659   4.993  23.749
31343SOL    HW296037 -19.756   4.854  12.695
31344SOL     OW96038   9.064   6.451  10.526
31344SOL    HW196039  20.127   6.450  10.433
31344SOL    HW296040   9.119   6.383 -11.514
31345SOL     OW96041   0.997   5.907   5.172
31345SOL    HW196042   0.947   5.827   5.186
31345SOL    HW296043   1.073   5.899   5.229
31346SOL     OW96044   4.535   3.470   4.133
31346SOL    HW196045  26.670   3.531  15.220
31346SOL    HW296046   4.540   3.499   4.042
31347SOL     OW96047  11.006   0.445   2.471
31347SOL    HW196048  10.927   0.487  13.545
31347SOL    HW296049  11.013   0.363  13.559
31348SOL     OW96050   9.718   7.434   4.213
31348SOL    HW196051  20.851   7.451   4.212
31348SOL    HW296052   9.703   7.379   4.290
31349SOL     OW96053   8.637   4.636   7.822
31349SOL    HW196054 -13.421   4.605   7.910
31349SOL    HW296055  52.880   4.659   7.783
31350SOL     OW96056   2.145   0.433   9.043
31350SOL    HW196057   2.139   0.373  42.236
31350SOL    HW296058   2.055   0.461   9.028
31351SOL     OW96059   7.418   0.225   3.924
31351SOL    HW196060   7.457   0.196   4.007
31351SOL    HW296061  -3.569  22.261   3.857
31352SOL     OW96062   9.838   3.413   0.071
31352SOL    HW196063  -1.242   3.495  22.178
31352SOL    HW296064 -12.199   3.434  44.146
31353SOL     OW96065   2.307   3.236   5.998
31353SOL    HW196066   2.393  -7.833   6.029
31353SOL    HW296067 -19.791  -7.726   6.051
31354SOL     OW96068   2.180   8.837   5.100
31354SOL    HW196069   2.244   8.892   5.145
31354SOL    HW296070   2.139   8.895  -6.004
31355SOL     OW96071  10.543   2.037  10.278
31355SOL    HW196072  10.534  13.040 -11.889
31355SOL    HW296073  10.533  -8.908 -11.814
31356SOL     OW96074   6.824   7.568   8.677
31356SOL    HW196075   6.772  -3.500   8.601
31356SOL    HW296076   6.913  -3.501  -2.383
31357SOL     OW96077   7.526   8.953   3.068
31357SOL    HW196078  18.614   8.890 -18.958
31357SOL    HW296079  18.624 -13.105   2.996
31358SOL     OW96080   0.412   1.834   6.467
31358SOL    HW196081   0.384   1.874 -15.530
31358SOL    HW296082  11.430   1.741 -15.602
31359SOL     OW96083   9.657   3.630   8.405
31359SOL    HW196084   9.688   3.620   8.316
31359SOL    HW296085 -23.528   3.698   8.400
31360SOL     OW96086   3.583   0.570   6.447
31360SOL    HW196087  14.613   0.501  -4.659
31360SOL    HW296088   3.570   0.525   6.530
31361SOL     OW96089  10.790   7.267   9.407
31361SOL    HW196090  10.788  -3.702  31.550
31361SOL    HW296091  10.700  18.275   9.403
31362SOL     OW96092   4.599   7.198  -0.094
31362SOL    HW196093   4.643 -14.966  -0.093
31362SOL    HW296094   4.508 -14.901  21.965
31363SOL     OW96095   2.852   1.342   0.708
31363SOL    HW196096  24.848   1.355   0.752
31363SOL    HW296097   2.858   1.247  11.735
31364SOL     OW96098   9.370   4.538  10.692
31364SOL    HW196099   9.465   4.527  10.679
31364SOL    HW296100   9.337  15.489  10.706
31365SOL     OW96101   6.823   9.796   0.575
31365SOL    HW196102  39.938  20.799   0.664
31365SOL    HW296103   6.841  20.760   0.519
31366SOL     OW96104   9.429   0.151   6.081
31366SOL    HW196105   9.511   0.111   6.112
31366SOL    HW296106   9.380  22.157   6.044
31367SOL     OW96107   5.673   7.017   8.885
31367SOL    HW196108   5.710  18.138  19.891
31367SOL    HW296109   5.666   6.960  19.848
31368SOL     OW96110   8.485   6.622   0.440
31368SOL    HW196111   8.574  28.666 -10.599
31368SOL    HW296112  -2.569   6.651  11.390
31369SOL     OW96113  10.063   1.179   2.788
31369SOL    HW196114  10.053  45.369   2.699
31369SOL    HW296115  21.071   1.251  24.922
31370SOL     OW96116   3.718   7.308   6.099
31370SOL    HW196117   3.776   7.287   6.172
31370SOL    HW296118   3.634   7.329   6.140
31371SOL     OW96119   8.216   5.134   8.328
31371SOL    HW196120  -2.815   5.229  -2.703
31371SOL    HW296121   8.126   5.121  41.415
31372SOL     OW96122   4.565   9.185   9.292
31372SOL    HW196123   4.485  -1.905   9.280
31372SOL    HW296124 -17.543  -1.764   9.301
31373SOL     OW96125   2.661   0.277   6.888
31373SOL    HW196126  -8.370   0.196 -15.141
31373SOL    HW296127  13.658   0.338  -4.091
31374SOL     OW96128  -3.078  11.593  12.563
31374SOL    HW196129  41.109   0.462  -9.518
31374SOL    HW296130  19.041   0.593  -9.593
31375SOL     OW96131   4.957  11.137   2.347
31375SOL    HW196132   5.029  11.101   2.295
31375SOL    HW296133   4.912 -44.001   2.288
31376SOL     OW96134   6.892   8.043   7.308
31376SOL    HW196135   6.919   7.951   7.300
31376SOL    HW296136  -4.080   8.091   7.260
31377SOL     OW96137   8.015   4.228   1.776
31377SOL    HW196138   7.977   4.246  -9.178
31377SOL    HW296139 -14.139   4.224  23.796
31378SOL     OW96140   1.825   3.659   1.190
31378SOL    HW196141  -9.214   3.616   1.105
31378SOL    HW296142   1.738   3.699  12.235
31379SOL     OW96143   5.826   2.336   1.701
31379SOL    HW196144  -5.119   2.347   1.709
31379SOL    HW296145 -27.326   2.345   1.790
31380SOL     OW96146   5.844   1.166   1.555
31380SOL    HW196147   5.826  -9.966  12.574
31380SOL    HW296148  -5.253   1.215  23.575
31381SOL     OW96149   7.888   8.459   7.859
31381SOL    HW196150   7.904   8.460  18.993
31381SOL    HW296151   7.973   8.476   7.820
31382SOL     OW96152  -1.298   6.919   7.772
31382SOL    HW196153   9.753  17.972   7.866
31382SOL    HW296154  20.858 -15.118   7.733
31383SOL     OW96155   2.481   3.577   3.695
31383SOL    HW196156   2.433   3.501   3.661
31383SOL    HW296157   2.533 -18.538   3.767
31384SOL     OW96158   6.234   8.843   1.343
31384SOL    HW196159   6.155   8.848   1.288
31384SOL    HW296160   6.298   8.896  12.336
31385SOL     OW96161   1.007   7.150   7.914
31385SOL    HW196162  12.040   7.056   7.898
31385SOL    HW296163 -10.046  18.230   7.828
31386SOL     OW96164   3.823  10.178   9.834
31386SOL    HW196165  25.857  10.220   9.760
31386SOL    HW296166   3.753  10.141   9.887
31387SOL     OW96167   6.575   4.690   4.305
31387SOL    HW196168   6.646   4.751   4.284
31387SOL    HW296169   6.572  15.728 -17.678
31388SOL     OW96170   7.720  10.318   6.093
31388SOL    HW196171  29.769 -11.729   6.007
31388SOL    HW296172   7.756  10.232  17.114
31389SOL     OW96173   9.041   5.653   9.421
31389SOL    HW196174  31.036   5.648  20.415
31389SOL    HW296175  20.139   5.695   9.359
31390SOL     OW96176   3.858   4.614   5.081
31390SOL    HW196177   3.766  -6.441   5.105
31390SOL    HW296178 -29.264   4.634   4.987
31391SOL     OW96179   2.320   2.143   7.535
31391SOL    HW196180   2.366   2.139   7.451
31391SOL    HW296181  35.363  24.165   7.524
31392SOL     OW96182  -2.094   3.134   2.831
31392SOL    HW196183  20.021   3.210   2.876
31392SOL    HW296184  30.994   3.168  13.787
31393SOL     OW96185   8.162   1.056  -1.403
31393SOL    HW196186   8.119   1.037  20.760
31393SOL    HW296187   8.201   1.142   9.650
31394SOL     OW96188   5.768   1.112  -0.611
31394SOL    HW196189   5.770   1.020  10.402
31394SOL    HW296190   5.754   1.111  -0.517
31395SOL     OW96191  11.652   6.298   3.763
31395SOL    HW196192  11.678   6.269  14.715
31395SOL    HW296193   0.531   6.346  14.789
31396SOL     OW96194   5.717   7.073   7.073
31396SOL    HW196195   5.697   7.038   6.987
31396SOL    HW296196   5.632   7.085   7.115
31397SOL     OW96197   4.392   1.901   1.171
31397SOL    HW196198  -6.709  -9.129 -20.836
31397SOL    HW296199   4.469   1.951  12.238
31398SOL     OW96200  10.271   7.497   2.265
31398SOL    HW196201  10.219  18.468   2.307
31398SOL    HW296202  10.339  18.557  13.369
31399SOL     OW96203   6.174   8.962   2.814
31399SOL    HW196204   6.252   8.929  13.898
31399SOL    HW296205   6.101   8.924  -8.177
31400SOL     OW96206   5.950   5.156   2.219
31400SOL    HW196207  17.029  -5.966   2.249
31400SOL    HW296208   6.015   5.222   2.241
31401SOL     OW96209   0.873   8.388   2.057
31401SOL    HW196210  45.064  19.338   2.059
31401SOL    HW296211   0.941  -2.601   2.102
31402SOL     OW96212  10.738   2.533   0.679
31402SOL    HW196213  10.717   2.626   0.680
31402SOL    HW296214  10.779  13.558   0.593
31403SOL     OW96215   2.878   8.624   3.585
31403SOL    HW196216   2.919   8.663   3.663
31403SOL    HW296217   2.785   8.621  14.646
31404SOL     OW96218   4.699   0.962   3.810
31404SOL    HW196219   4.731   0.901   3.744
31404SOL    HW296220   4.739   1.046   3.786
31405SOL     OW96221   1.812   6.463  10.601
31405SOL    HW196222   1.813   6.421  10.687
31405SOL    HW296223   1.887   6.426  10.555
31406SOL     OW96224  12.060   6.260  10.620
31406SOL    HW196225 -10.092   6.231  10.566
31406SOL    HW296226   1.066 -15.900  10.643
31407SOL     OW96227   0.563   0.304   0.112
31407SOL    HW196228  11.662   0.312  11.226
31407SOL    HW296229  22.639  11.250   0.094
31408SOL     OW96230   5.993   9.261   5.546
31408SOL    HW196231   5.939   9.184 -16.549
31408SOL    HW296232   6.079 -12.842   5.511
31409SOL     OW96233   1.272   6.359  11.372
31409SOL    HW196234  12.336 -26.800   0.415
31409SOL    HW296235  -9.720   6.442  11.371
31410SOL     OW96236   7.644   3.406   8.294
31410SOL    HW196237   7.632  -7.624   8.389
31410SOL    HW296238   7.692   3.324  19.324
31411SOL     OW96239   7.960   6.541   0.589
31411SOL    HW196240   8.018   6.542   0.666
31411SOL    HW296241   7.944  -4.591   0.572
31412SOL     OW96242   2.913   2.837   2.558
31412SOL    HW196243   2.911  13.825  24.718
31412SOL    HW296244   2.915  25.007  13.628
31413SOL     OW96245   4.751   2.538   6.773
31413SOL    HW196246  15.710   2.591   6.775
31413SOL    HW296247  15.773  13.512   6.706
31414SOL     OW96248   4.678   3.009   3.388
31414SOL    HW196249  37.725   3.065  -7.621
31414SOL    HW296250  26.812   3.066   3.336
31415SOL     OW96251   4.342   2.444   3.162
31415SOL    HW196252  -6.780   2.406   3.192
31415SOL    HW296253   4.317   2.511   3.100
31416SOL     OW96254   0.222  11.705   4.623
31416SOL    HW196255   0.189 -43.521   4.538
31416SOL    HW296256   0.163  11.776   4.649
31417SOL     OW96257   0.760   0.826   5.463
31417SOL    HW196258   0.672   0.833   5.501
31417SOL    HW296259   0.811   0.892   5.508
31418SOL     OW96260   3.041   9.580   5.914
31418SOL    HW196261   3.051 -12.527   6.005
31418SOL    HW296262   2.988 -12.568   5.874
31419SOL     OW96263   4.955  10.234   1.554
31419SOL    HW196264   4.937  10.153   1.602
31419SOL    HW296265 -17.110  10.300  12.661
31420SOL     OW96266  10.038   7.368   8.654
31420SOL    HW196267   9.957   7.349  19.741
31420SOL    HW296268  10.010  18.439   8.568
31421SOL     OW96269   7.839   0.463   4.110
31421SOL    HW196270  -3.130   0.489  26.248
31421SOL    HW296271   7.870   0.484  -7.017
31422SOL     OW96272   9.065   0.040   3.026
31422SOL    HW196273   9.113   0.120   3.003
31422SOL    HW296274   9.024   0.012 -30.174
31423SOL     OW96275   2.060   9.576   7.905
31423SOL    HW196276   2.081   9.660 -14.215
31423SOL    HW296277   2.125   9.515  -3.170
31424SOL     OW96278   8.340   3.122   5.444
31424SOL    HW196279  19.458  -7.863  -5.589
31424SOL    HW296280  -2.695   3.065  -5.519
31425SOL     OW96281   2.360   0.750   4.435
31425SOL    HW196282   2.379  22.736  26.501
31425SOL    HW296283   2.419   0.795  26.454
31426SOL     OW96284   1.067   7.251   0.495
31426SOL    HW196285   1.144   7.303   0.516
31426SOL    HW296286   1.095   7.191   0.426
31427SOL     OW96287   2.667   0.980   4.504
31427SOL    HW196288   2.728   0.908   4.488
31427SOL    HW296289   2.643   0.973  15.636
31428SOL     OW96290   3.902   6.922  10.617
31428SOL    HW196291   3.958  -4.195  10.617
31428SOL    HW296292   3.950   6.986  10.563
31429SOL     OW96293   4.269   4.778   8.148
31429SOL    HW196294   4.341   4.730   8.189
31429SOL    HW296295   4.282   4.869  30.253
31430SOL     OW96296   5.587   1.525   4.202
31430SOL    HW196297   5.632   1.609   4.212
31430SOL    HW296298   5.498   1.549   4.175
31431SOL     OW96299  11.166   8.319   0.147
31431SOL    HW196300  11.122   8.346  11.267
31431SOL    HW296301   0.093  -2.660   0.080
31432SOL     OW96302   4.978   8.735   2.455
31432SOL    HW196303   5.040   8.745   2.527
31432SOL    HW296304   5.019   8.780   2.381
31433SOL     OW96305   4.453   6.844   4.527
31433SOL    HW196306   4.539   6.884 -17.538
31433SOL    HW296307   4.468   6.780  -6.583
31434SOL     OW96308   6.847  11.309   5.959
31434SOL    HW196309   6.762  11.334   5.993
31434SOL    HW296310   6.835 -21.813 -16.215
31435SOL     OW96311   4.893   0.985   4.473
31435SOL    HW196312   4.840   1.048  15.464
31435SOL    HW296313  -6.092   0.943   4.406
31436SOL     OW96314   6.555   6.073   0.194
31436SOL    HW196315   6.570   6.014  11.308
31436SOL    HW296316   6.542   6.015   0.119
31437SOL     OW96317  10.487   1.925   2.954
31437SOL    HW196318  10.397  12.941   2.929
31437SOL    HW296319  10.540  46.060   2.878
31438SOL     OW96320   9.268   5.355  11.288
31438SOL    HW196321  -1.832  16.330  11.252
31438SOL    HW296322   9.283   5.326   0.339
31439SOL     OW96323   5.490   0.427   3.444
31439SOL    HW196324  16.474   0.398   3.372
31439SOL    HW296325   5.496   0.350   3.502
31440SOL     OW96326   3.097  11.037   8.503
31440SOL    HW196327   3.131  10.948  -2.535
31440SOL    HW296328   3.174   0.053   8.489
31441SOL     OW96329   3.397   6.058   3.084
31441SOL    HW196330   3.472  39.202   3.138
31441SOL    HW296331   3.357  17.025   3.131
31442SOL     OW96332   0.534   1.056   1.278
31442SOL    HW196333   0.628   1.050   1.290
31442SOL    HW296334   0.513   1.147  -9.743
31443SOL     OW96335   6.568   3.031   8.551
31443SOL    HW196336  39.731   2.990   8.477
31443SOL    HW296337   6.636  14.119   8.598
31444SOL     OW96338   3.479   6.152   5.821
31444SOL    HW196339   3.461  17.285  -5.205
31444SOL    HW296340   3.477   6.141   5.726
31445SOL     OW96341   4.322   0.835   1.832
31445SOL    HW196342   4.359   0.763   1.781
31445SOL    HW296343 -28.867  11.909  12.817
31446SOL     OW96344   1.492   2.716   6.542
31446SOL    HW196345  -9.632  13.752   6.587
31446SOL    HW296346   1.484   2.791  17.522
31447SOL     OW96347   5.609   1.108   1.772
31447SOL    HW196348 -16.509   1.030   1.733
31447SOL    HW296349   5.555   1.180   1.741
31448SOL     OW96350   8.644  10.296   4.978
31448SOL    HW196351   8.659  10.205   4.955
31448SOL    HW296352   8.550  10.302   4.995
31449SOL     OW96353   7.200  -0.192   3.246
31449SOL    HW196354   7.129  -0.204   3.183
31449SOL    HW296355   7.181  10.784 -18.764
31450SOL     OW96356   3.949   0.594   5.479
31450SOL    HW196357  -7.067   0.508   5.446
31450SOL    HW296358   3.982  11.695   5.414
31451SOL     OW96359   1.739   8.934   5.261
31451SOL    HW196360   1.720  19.885   5.293
31451SOL    HW296361  12.872  19.972  16.281
31452SOL     OW96362   9.811   2.879   4.022
31452SOL    HW196363   9.722   2.914   4.016
31452SOL    HW296364  20.875   2.893   4.114
31453SOL     OW96365   8.491   8.422   6.392
31453SOL    HW196366   8.500  19.377   6.350
31453SOL    HW296367  19.562   8.408   6.482
31454SOL     OW96368   1.995   9.615   9.224
31454SOL    HW196369   1.968  -1.514   9.202
31454SOL    HW296370   2.066   9.634   9.163
31455SOL     OW96371   6.076   5.045   9.277
31455SOL    HW196372   6.104   5.105   9.209
31455SOL    HW296373   6.026   5.099   9.339
31456SOL     OW96374  10.794  -0.192  13.272
31456SOL    HW196375  10.825  -0.145  -8.729
31456SOL    HW296376  10.727  10.905  -8.844
31457SOL     OW96377   6.569   2.416   1.057
31457SOL    HW196378  17.619  -8.568   0.980
31457SOL    HW296379  17.696   2.411  34.213
31458SOL     OW96380   7.440   3.623   7.738
31458SOL    HW196381   7.523   3.601  18.819
31458SOL    HW296382   7.456  25.692   7.644
31459SOL     OW96383   3.929   9.276   6.674
31459SOL    HW196384   3.993   9.244  -4.302
31459SOL    HW296385   3.846  -1.762   6.722
31460SOL     OW96386  12.556   9.019   6.198
31460SOL    HW196387 -20.524   8.932  -4.849
31460SOL    HW296388  -9.473  31.140  -4.771
31461SOL     OW96389  10.373  10.633  10.409
31461SOL    HW196390  10.440  10.600  10.349
31461SOL    HW296391  10.422  10.668  10.483
31462SOL     OW96392  12.529  -0.974   8.925
31462SOL    HW196393  -9.465  10.102   8.900
31462SOL    HW296394   1.428  21.177   8.911
31463SOL     OW96395   0.436   2.437   3.242
31463SOL    HW196396   0.435   2.479   3.156
31463SOL    HW296397   0.349  13.438  -7.789
31464SOL     OW96398   3.969   3.548   3.442
31464SOL    HW196399   3.917   3.566   3.365
31464SOL    HW296400   4.043   3.609   3.437
31465SOL     OW96401   2.729   4.449   9.010
31465SOL    HW196402   2.665   4.391 -24.150
31465SOL    HW296403   2.705   4.537  -2.060
31466SOL     OW96404   3.003   9.479   5.526
31466SOL    HW196405  -8.115   9.473  16.511
31466SOL    HW296406   3.075 -23.658   5.466
31467SOL     OW96407  10.365   8.114   6.599
31467SOL    HW196408  10.423  19.227   6.621
31467SOL    HW296409  10.377  30.181  17.544
31468SOL     OW96410  10.896   1.637   6.476
31468SOL    HW196411  10.945  -9.402  -4.645
31468SOL    HW296412  10.897   1.546  -4.535
31469SOL     OW96413   7.945   5.336   7.350
31469SOL    HW196414   8.010 -38.815  18.460
31469SOL    HW296415   7.963 -16.668   7.293
31470SOL     OW96416   9.445   5.204   4.421
31470SOL    HW196417   9.462  16.268   4.511
31470SOL    HW296418   9.363   5.248   4.399
31471SOL     OW96419   0.378   7.645   4.643
31471SOL    HW196420  22.500  29.701   4.725
31471SOL    HW296421  11.473  18.753  -6.435
31472SOL     OW96422   7.714   3.680   6.616
31472SOL    HW196423   7.739   3.590  28.677
31472SOL    HW296424   7.622   3.675  17.682
31473SOL     OW96425  11.298   3.979   4.985
31473SOL    HW196426   0.188  81.236   5.047
31473SOL    HW296427 -10.706  14.969  16.057
31474SOL     OW96428   4.659   8.726   3.569
31474SOL    HW196429   4.723  19.741   3.635
31474SOL    HW296430  15.623   8.669   3.587
31475SOL     OW96431   0.714   3.663   6.325
31475SOL    HW196432  11.792   3.596  -4.657
31475SOL    HW296433   0.790   3.707 -26.832
31476SOL     OW96434   9.900   4.800   5.501
31476SOL    HW196435   9.866  15.868   5.416
31476SOL    HW296436   9.946   4.877   5.535
31477SOL     OW96437   8.890   2.256   2.990
31477SOL    HW196438   8.861 -30.771   2.989
31477SOL    HW296439   8.810   2.205  14.035
31478SOL     OW96440   2.939   7.609   6.422
31478SOL    HW196441   3.008   7.599   6.488
31478SOL    HW296442  14.016  18.612   6.342
31479SOL     OW96443   5.801   0.680   2.193
31479SOL    HW196444   5.800   0.627   2.113
31479SOL    HW296445   5.709   0.697   2.213
31480SOL     OW96446   4.163   3.727   3.445
31480SOL    HW196447   4.174  -7.244   3.379
31480SOL    HW296448   4.226   3.749   3.514
31481SOL     OW96449   3.235   6.662   7.242
31481SOL    HW196450   3.184   6.719   7.300
31481SOL    HW296451   3.326  17.716  40.387
31482SOL     OW96452   1.419   3.911   0.591
31482SOL    HW196453  -9.569  15.031   0.596
31482SOL    HW296454   1.484  25.920   0.580
31483SOL     OW96455   9.230   7.141   1.672
31483SOL    HW196456  20.227  -3.938  -9.444
31483SOL    HW296457   9.300   7.195   1.635
31484SOL     OW96458  12.882   1.731   2.723
31484SOL    HW196459 -20.181   1.657   2.746
31484SOL    HW296460  12.942  -9.234   2.720
31485SOL     OW96461   7.855   4.872   9.840
31485SOL    HW196462  -3.268  -6.212   9.856
31485SOL    HW296463 -36.275   4.838   9.755
31486SOL     OW96464  10.563   4.291   3.027
31486SOL    HW196465  -0.417   4.366  14.058
31486SOL    HW296466  10.490   4.312   2.968
31487SOL     OW96467   8.219   6.351   2.553
31487SOL    HW196468   8.210   6.446   2.562
31487SOL    HW296469   8.279   6.326  13.663
31488SOL     OW96470   8.096   5.998   6.000
31488SOL    HW196471  19.192   5.946   6.057
31488SOL    HW296472   8.034   6.040   6.059
31489SOL     OW96473   9.568   9.580   8.275
31489SOL    HW196474   9.530  -1.382   8.232
31489SOL    HW296475   9.518  31.651 -13.723
31490SOL     OW96476   8.919   6.412   4.651
31490SOL    HW196477  -2.030 -15.695  -6.403
31490SOL    HW296478   8.917   6.503   4.621
31491SOL     OW96479   3.278   3.515   3.517
31491SOL    HW196480   3.312 -18.567   3.606
31491SOL    HW296481  -7.775   3.608   3.499
31492SOL     OW96482   6.137   2.432   0.877
31492SOL    HW196483   6.064 -19.596   0.912
31492SOL    HW296484  -4.928  13.380   0.892
31493SOL     OW96485   4.194   9.163  10.447
31493SOL    HW196486   4.151  -1.797  10.479
31493SOL    HW296487   4.204  -1.931  10.526
31494SOL     OW96488   7.559  10.690   2.580
31494SOL    HW196489  29.718  10.729   2.617
31494SOL    HW296490   7.581  10.597   2.570
31495SOL     OW96491   4.028   6.207   1.625
31495SOL    HW196492   3.943  17.209   1.603
31495SOL    HW296493   4.035   6.196   1.720
31496SOL     OW96494   8.184   5.995   5.198
31496SOL    HW196495 -36.024  -5.048   5.117
31496SOL    HW296496   8.271  17.065   5.172
31497SOL     OW96497   5.044   2.698   1.286
31497SOL    HW196498  16.126   2.665  12.405
31497SOL    HW296499   4.963   2.738  12.357
31498SOL     OW96500   6.079   2.686   6.650
31498SOL    HW196501   6.064 -19.355   6.736
31498SOL    HW296502  -4.868   2.661   6.651
31499SOL     OW96503   3.803   7.096   9.755
31499SOL    HW196504  14.806   7.044   9.683
31499SOL    HW296505   3.875 -14.934 -12.365
31500SOL     OW96506   5.730   2.349   1.041
31500SOL    HW196507   5.749   2.280   0.978
31500SOL    HW296508  -5.405   2.358 -10.001
31501SOL     OW96509   6.217  -0.484   6.330
31501SOL    HW196510   6.244  21.530   6.265
31501SOL    HW296511   6.235  -0.399   6.289
31502SOL     OW96512   5.015   8.237   0.069
31502SOL    HW196513   4.996  -2.838  11.022
31502SOL    HW296514   5.110  -2.797   0.073
31503SOL     OW96515   4.703   9.849   9.512
31503SOL    HW196516  15.814  20.856   9.566
31503SOL    HW296517   4.625   9.837   9.566
31504SOL     OW96518   7.789   9.560   2.203
31504SOL    HW196519  -3.156  20.594   2.189
31504SOL    HW296520   7.778   9.625   2.272
31505SOL     OW96521   4.964   6.845   4.767
31505SOL    HW196522   4.946   6.932   4.803
31505SOL    HW296523   4.960   6.786   4.842
31506SOL     OW96524   6.665  12.459   5.181
31506SOL    HW196525   6.582   1.452  27.225
31506SOL    HW296526   6.685 -20.603  27.334
31507SOL     OW96527   9.283   7.330   7.660
31507SOL    HW196528   9.314   7.332   7.750
31507SOL    HW296529   9.354  -3.668   7.609
31508SOL     OW96530   5.758   4.613   2.033
31508SOL    HW196531  16.849   4.673   1.978
31508SOL    HW296532  16.718   4.597   1.983
31509SOL     OW96533   6.510   4.154   1.664
31509SOL    HW196534  17.628   4.208   1.657
31509SOL    HW296535   6.448   4.208   1.713
31510SOL     OW96536   3.645   5.348   3.643
31510SOL    HW196537   3.640   5.322   3.551
31510SOL    HW296538  36.685   5.310   3.683
31511SOL     OW96539   7.692   5.108   7.659
31511SOL    HW196540   7.657   5.106  40.689
31511SOL    HW296541   7.647   5.181   7.702
31512SOL     OW96542   5.264   7.537   0.409
31512SOL    HW196543   5.171   7.544  22.509
31512SOL    HW296544   5.266   7.486   0.328
31513SOL     OW96545   6.089   8.799   2.569
31513SOL    HW196546 -15.982   8.888   2.604
31513SOL    HW296547   6.168   8.755   2.600
31514SOL     OW96548   4.225   9.087   8.749
31514SOL    HW196549   4.171  20.201   8.725
31514SOL    HW296550   4.195  -1.978   8.836
31515SOL     OW96551  10.082  10.202   1.674
31515SOL    HW196552  10.007  21.218   1.730
31515SOL    HW296553  21.086  10.199   1.586
31516SOL     OW96554   2.514   2.907   0.706
31516SOL    HW196555   2.509  -8.174   0.793
31516SOL    HW296556   2.564  24.924   0.653
31517SOL     OW96557   0.818   5.014   8.242
31517SOL    HW196558   0.737   5.049   8.279
31517SOL    HW296559   0.797   4.997   8.150
31518SOL     OW96560   2.929   0.910   3.182
31518SOL    HW196561   2.900   0.857  14.296
31518SOL    HW296562  -8.147 -10.174   3.105
31519SOL     OW96563   5.981  12.028   6.634
31519SOL    HW196564   5.954   0.933  -4.333
31519SOL    HW296565  17.058   1.066  -4.363
31520SOL     OW96566   0.784   8.055   9.657
31520SOL    HW196567  11.767  -3.062   9.657
31520SOL    HW296568 -10.309 -13.955   9.695
31521SOL     OW96569  10.016   9.363   8.411
31521SOL    HW196570  10.023   9.337   8.503
31521SOL    HW296571  10.095   9.415  -2.645
31522SOL     OW96572   4.528   1.467   2.947
31522SOL    HW196573   4.596   1.408  -8.059
31522SOL    HW296574   4.477  23.492   2.887
31523SOL     OW96575   7.532  10.004  -0.697
31523SOL    HW196576   7.518  21.062  32.515
31523SOL    HW296577   7.449  10.026  21.340
31524SOL     OW96578  11.513   8.080   7.165
31524SOL    HW196579  11.604   8.096   7.139
31524SOL    HW296580   0.438   8.167   7.185
31525SOL     OW96581   4.535   4.124   2.541
31525SOL    HW196582  15.642  26.137  -8.484
31525SOL    HW296583   4.477   4.085  13.516
31526SOL     OW96584   4.612  -0.471   4.968
31526SOL    HW196585  26.774  10.543   4.928
31526SOL    HW296586   4.636  -0.405   5.033
31527SOL     OW96587   6.601   5.417   9.245
31527SOL    HW196588 -15.387  27.505  -1.823
31527SOL    HW296589  -4.489   5.420   9.163
31528SOL     OW96590   7.436   6.515   2.241
31528SOL    HW196591   7.343   6.534  13.283
31528SOL    HW296592   7.448  17.486   2.307
31529SOL     OW96593   1.359   4.215   7.085
31529SOL    HW196594  -9.766  15.256   7.041
31529SOL    HW296595  23.417   4.202   7.177
31530SOL     OW96596   5.793   8.113   7.448
31530SOL    HW196597   5.745  30.271 -14.659
31530SOL    HW296598   5.766   8.045  29.466
31531SOL     OW96599   6.744   9.190   8.260
31531SOL    HW196600   6.667  20.280  19.325
31531SOL    HW296601   6.816  20.292   8.266
31532SOL     OW96602  10.486   4.364   4.163
31532SOL    HW196603  -0.558   4.364  48.226
31532SOL    HW296604  10.452 -17.629   4.189
31533SOL     OW96605  11.622   7.936   3.538
31533SOL    HW196606  11.643   7.894  14.661
31533SOL    HW296607   0.667   7.950   3.496
31534SOL     OW96608   5.166   0.342   2.514
31534SOL    HW196609   5.159   0.416  24.534
31534SOL    HW296610  27.231   0.265   2.459
31535SOL     OW96611   3.632   8.600  10.247
31535SOL    HW196612  -7.493   8.611  10.286
31535SOL    HW296613  14.733   8.606  10.320
31536SOL     OW96614   8.274   0.497   8.508
31536SOL    HW196615   8.345   0.544   8.553
31536SOL    HW296616  19.349   0.479   8.421
31537SOL     OW96617   3.941   1.450   2.273
31537SOL    HW196618   3.906   1.362   2.280
31537SOL    HW296619   3.890  23.581   2.336
31538SOL     OW96620   6.702   3.191   1.539
31538SOL    HW196621 -15.460   3.183   1.493
31538SOL    HW296622 -26.406   3.285   1.555
31539SOL     OW96623  10.323   1.239   9.124
31539SOL    HW196624  10.247   1.203   9.079
31539SOL    HW296625  10.391   1.241  20.095
31540SOL     OW96626   6.696   6.794   5.147
31540SOL    HW196627   6.619   6.773  27.173
31540SOL    HW296628   6.738   6.710  -5.877
31541SOL     OW96629   6.770  10.219   4.530
31541SOL    HW196630  28.877  10.233   4.621
31541SOL    HW296631   6.810  -0.904   4.505
31542SOL     OW96632   5.476   7.384   5.719
31542SOL    HW196633  16.562  -3.581   5.757
31542SOL    HW296634   5.390  18.459   5.695
31543SOL     OW96635   2.172  10.853   6.056
31543SOL    HW196636  24.277  -0.098   6.031
31543SOL    HW296637   2.173  10.804   5.974
31544SOL     OW96638   2.924   2.522   6.501
31544SOL    HW196639   2.998   2.500   6.445
31544SOL    HW296640  13.896  -8.581   6.477
31545SOL     OW96641   5.243   6.309   1.883
31545SOL    HW196642 -16.761  17.323   1.830
31545SOL    HW296643   5.255  50.422 -20.113
31546SOL     OW96644  10.075   2.352   8.173
31546SOL    HW196645  10.059   2.433   8.125
31546SOL    HW296646   9.988   2.319 -24.923
31547SOL     OW96647   9.427   9.840   2.469
31547SOL    HW196648   9.501   9.875   2.519
31547SOL    HW296649   9.450   9.749   2.454
31548SOL     OW96650   0.686   6.698  11.813
31548SOL    HW196651 -10.290   6.682 -10.197
31548SOL    HW296652   0.601   6.682  11.853
31549SOL     OW96653  10.488   9.912   1.097
31549SOL    HW196654 -11.569  10.002  12.115
31549SOL    HW296655  10.415   9.890  34.158
31550SOL     OW96656   4.298  10.250   4.678
31550SOL    HW196657  -6.652  -0.757   4.669
31550SOL    HW296658   4.308  10.158 -17.375
31551SOL     OW96659   5.494   0.595   2.521
31551SOL    HW196660   5.464   0.516   2.566
31551SOL    HW296661   5.589   0.589   2.524
31552SOL     OW96662   5.491   3.412   3.474
31552SOL    HW196663   5.467  25.507   3.383
31552SOL    HW296664   5.442  25.412   3.498
31553SOL     OW96665   8.502   5.784   7.220
31553SOL    HW196666   8.491   5.691   7.236
31553SOL    HW296667  30.672   5.802   7.244
31554SOL     OW96668   7.058   3.216   3.391
31554SOL    HW196669  18.100   3.124   3.364
31554SOL    HW296670   6.969   3.230   3.422
31555SOL     OW96671   7.989   2.400  -2.028
31555SOL    HW196672   8.031  13.381  42.067
31555SOL    HW296673   7.938   2.460  19.997
31556SOL     OW96674   9.188   5.649   2.072
31556SOL    HW196675   9.219   5.571   2.027
31556SOL    HW296676   9.093   5.642   2.070
31557SOL     OW96677  10.769   8.841   6.952
31557SOL    HW196678  -0.252  -2.105   6.939
31557SOL    HW296679  10.757   8.833   7.047
31558SOL     OW96680   3.068   6.802   6.691
31558SOL    HW196681  -7.890  -4.254   6.643
31558SOL    HW296682   3.034  -4.324   6.713
31559SOL     OW96683   8.599   5.277   0.229
31559SOL    HW196684   8.504   5.287   0.238
31559SOL    HW296685 -13.463   5.185   0.249
31560SOL     OW96686   3.077   5.362  10.789
31560SOL    HW196687   3.002   5.311  10.759
31560SOL    HW296688   3.043  -5.589  10.800
31561SOL     OW96689   0.426   3.226   3.968
31561SOL    HW196690   0.439   3.132   3.984
31561SOL    HW296691   0.349   3.249  -7.019
31562SOL     OW96692   6.049   2.538   4.247
31562SOL    HW196693   5.974   2.543   4.187
31562SOL    HW296694   6.011   2.509  37.448
31563SOL     OW96695   1.761   7.875   5.932
31563SOL    HW196696  12.865   7.823  17.021
31563SOL    HW296697  12.848  -3.131   5.857
31564SOL     OW96698   5.387   2.222   0.788
31564SOL    HW196699  16.442   2.235   0.881
31564SOL    HW296700  -5.565   2.209   0.750
31565SOL     OW96701   4.002   2.428   9.210
31565SOL    HW196702  14.968   2.390   9.163
31565SOL    HW296703   4.008   2.518   9.178
31566SOL     OW96704   9.863   3.330   0.372
31566SOL    HW196705  -1.141   3.309   0.286
31566SOL    HW296706   9.773   3.297  33.488
31567SOL     OW96707   1.215  10.814   1.617
31567SOL    HW196708   1.287  10.759   1.586
31567SOL    HW296709   1.203  10.789   1.708
31568SOL     OW96710   1.220   9.435   1.257
31568SOL    HW196711   1.232   9.514   1.204
31568SOL    HW296712   1.282   9.446   1.330
31569SOL     OW96713   9.686   6.522   2.251
31569SOL    HW196714  20.779   6.467  -8.731
31569SOL    HW296715   9.739   6.600   2.236
31570SOL     OW96716   5.809   8.248   3.665
31570SOL    HW196717   5.746   8.186   3.702
31570SOL    HW296718   5.765  19.373 -18.409
31571SOL     OW96719   3.571   8.099   3.212
31571SOL    HW196720   3.485  30.169  -7.787
31571SOL    HW296721   3.622  30.226   3.277
31572SOL     OW96722  10.039   9.767   6.657
31572SOL    HW196723  10.055   9.850   6.703
31572SOL    HW296724  21.154   9.756  -4.439
31573SOL     OW96725   6.198  10.688   6.723
31573SOL    HW196726  -4.895  10.715   6.648
31573SOL    HW296727   6.271  10.641   6.683
31574SOL     OW96728   7.379   1.331   9.206
31574SOL    HW196729  29.547  34.481   9.224
31574SOL    HW296730  18.369  -9.687   9.285
31575SOL     OW96731  10.392   0.795   2.853
31575SOL    HW196732  10.381   0.846  -8.267
31575SOL    HW296733  21.424   0.704  -8.215
31576SOL     OW96734   7.100   2.846   6.485
31576SOL    HW196735   7.186   2.884   6.503
31576SOL    HW296736   7.078  13.837  17.605
31577SOL     OW96737   1.792   3.119   2.755
31577SOL    HW196738   1.804  -7.837   2.802
31577SOL    HW296739   1.779   3.055   2.825
31578SOL     OW96740   7.113   3.170   9.041
31578SOL    HW196741   7.126   3.116   9.119
31578SOL    HW296742   7.059  14.156   8.983
31579SOL     OW96743   7.108   8.684   0.927
31579SOL    HW196744   7.079   8.695 -10.203
31579SOL    HW296745   7.184  -2.298   0.935
31580SOL     OW96746   3.988  -0.186   3.013
31580SOL    HW196747   4.047  10.816  -8.091
31580SOL    HW296748   3.901  10.830   2.983
31581SOL     OW96749   2.864   1.448   3.003
31581SOL    HW196750  36.021   1.385  36.060
31581SOL    HW296751  24.888   1.395   3.060
31582SOL     OW96752   8.444   4.159   8.401
31582SOL    HW196753  -2.632  15.230   8.484
31582SOL    HW296754   8.539  15.197   8.416
31583SOL     OW96755   0.523   6.533   9.705
31583SOL    HW196756   0.592   6.546  20.810
31583SOL    HW296757   0.472  39.579  20.779
31584SOL     OW96758   1.406  10.160   6.582
31584SOL    HW196759   1.333 -11.862   6.557
31584SOL    HW296760   1.476  10.220   6.606
31585SOL     OW96761   2.988   8.542   7.651
31585SOL    HW196762   2.970   8.636 -14.427
31585SOL    HW296763  -8.024   8.524   7.561
31586SOL     OW96764   1.776   5.127   0.062
31586SOL    HW196765  12.812   5.157   0.152
31586SOL    HW296766   1.699  16.206   0.020
31587SOL     OW96767   2.070   0.631   5.118
31587SOL    HW196768   1.996   0.672   5.163
31587SOL    HW296769   2.096   0.696   5.052
31588SOL     OW96770   7.732  10.769  10.623
31588SOL    HW196771   7.651  10.759  10.573
31588SOL    HW296772   7.771  10.850 -11.488
31589SOL     OW96773   7.089   1.740   4.942
31589SOL    HW196774   7.137   1.664   4.975
31589SOL    HW296775   6.999   1.725  16.010
31590SOL     OW96776   4.744   7.976   8.035
31590SOL    HW196777   4.777   7.896   7.993
31590SOL    HW296778  15.788  -3.082   8.128
31591SOL     OW96779   5.872   9.728   7.307
31591SOL    HW196780   5.886  20.849   7.258
31591SOL    HW296781   5.958   9.686   7.309
31592SOL     OW96782   8.198   4.036   8.333
31592SOL    HW196783   8.182  -6.983  19.465
31592SOL    HW296784   8.278   4.084  19.351
31593SOL     OW96785   5.504   6.001   5.214
31593SOL    HW196786   5.478   5.994  16.162
31593SOL    HW296787   5.578   5.941   5.223
31594SOL     OW96788   2.032   5.952   6.851
31594SOL    HW196789   2.078  17.070   6.883
31594SOL    HW296790   1.956   5.986   6.804
31595SOL     OW96791   2.215   5.616   9.150
31595SOL    HW196792   2.297   5.587   9.191
31595SOL    HW296793  13.281   5.653   9.066
31596SOL     OW96794   0.205   2.505   9.761
31596SOL    HW196795   0.301  -8.536   9.768
31596SOL    HW296796   0.187   2.475  31.751
31597SOL     OW96797   0.454  10.505   5.236
31597SOL    HW196798  33.540  10.416  -5.793
31597SOL    HW296799   0.511  10.499   5.159
31598SOL     OW96800   8.460   8.126   3.513
31598SOL    HW196801   8.406  30.169   3.584
31598SOL    HW296802  19.529   8.211   3.546
31599SOL     OW96803   2.190   8.686  10.381
31599SOL    HW196804  -8.888   8.706  10.466
31599SOL    HW296805   2.122   8.638  10.334
31600SOL     OW96806   7.578   9.425   5.981
31600SOL    HW196807   7.598   9.503   5.929
31600SOL    HW296808   7.637   9.431   6.056
31601SOL     OW96809   7.647   0.985   0.386
31601SOL    HW196810   7.650   0.959   0.478
31601SOL    HW296811   7.588   0.922   0.345
31602SOL     OW96812  10.312   9.415   3.050
31602SOL    HW196813  10.371   9.466   3.106
31602SOL    HW296814  10.249   9.479  -8.023
31603SOL     OW96815   6.529   5.280   3.279
31603SOL    HW196816   6.448   5.264   3.329
31603SOL    HW296817   6.544   5.198   3.232
31604SOL     OW96818   5.972  10.104   9.943
31604SOL    HW196819   5.993  21.117  -1.007
31604SOL    HW296820   6.015  10.039   9.888
31605SOL     OW96821   4.907   4.687   6.607
31605SOL    HW196822   4.818   4.672   6.638
31605SOL    HW296823   4.962   4.646  17.714
31606SOL     OW96824  -0.007   8.845   8.645
31606SOL    HW196825   0.023   8.754   8.644
31606SOL    HW296826  33.170 -13.191  19.748
31607SOL     OW96827   2.063   1.383   3.541
31607SOL    HW196828   2.128   1.393 -18.607
31607SOL    HW296829   1.979  34.495  -7.544
31608SOL     OW96830   3.936   1.083   3.677
31608SOL    HW196831   3.962   1.068 -18.312
31608SOL    HW296832   3.895   1.169   3.677
31609SOL     OW96833   6.217   4.544   5.611
31609SOL    HW196834   6.263 -17.516   5.529
31609SOL    HW296835  -4.878  -6.419   5.625
31610SOL     OW96836   8.659   0.776   7.305
31610SOL    HW196837   8.647 -10.332   7.371
31610SOL    HW296838   8.574   0.781   7.260
31611SOL     OW96839   1.385   4.847   0.450
31611SOL    HW196840   1.385   4.941   0.464
31611SOL    HW296841   1.400   4.836   0.356
31612SOL     OW96842   7.226   7.750   9.017
31612SOL    HW196843  -3.750   7.679   9.028
31612SOL    HW296844  -3.888   7.725   9.072
31613SOL     OW96845   2.400   8.236   5.290
31613SOL    HW196846   2.305   8.247   5.293
31613SOL    HW296847 -19.666 -13.921   5.236
31614SOL     OW96848   5.053  10.684   0.508
31614SOL    HW196849   5.141  10.716  11.524
31614SOL    HW296850   5.003  -0.275   0.525
31615SOL     OW96851   5.087   3.555  10.080
31615SOL    HW196852  16.077   3.637  10.075
31615SOL    HW296853 -16.940   3.563  10.159
31616SOL     OW96854   7.169   2.959   3.116
31616SOL    HW196855   7.099   2.963   3.050
31616SOL    HW296856  -3.809   3.026   3.089
31617SOL     OW96857   2.203   3.480   7.707
31617SOL    HW196858   2.109  -7.560   7.725
31617SOL    HW296859   2.232 -29.728   7.726
31618SOL     OW96860   9.209   6.754   2.541
31618SOL    HW196861   9.178  -4.314   2.455
31618SOL    HW296862  -1.755  -4.230   2.522
31619SOL     OW96863   7.692   5.956  -0.988
31619SOL    HW196864   7.728   6.012  21.159
31619SOL    HW296865  18.682 -16.190  -0.940
31620SOL     OW96866   1.857   9.703  11.544
31620SOL    HW196867   1.824   9.738   0.422
31620SOL    HW296868 -20.189 -12.299  11.591
31621SOL     OW96869   2.461  10.966   6.942
31621SOL    HW196870   2.408  11.044   6.953
31621SOL    HW296871   2.538  10.981  18.038
31622SOL     OW96872   0.618   4.842   7.845
31622SOL    HW196873   0.664   4.925   7.837
31622SOL    HW296874   0.688  26.856   7.851
31623SOL     OW96875   0.785   8.510   9.363
31623SOL    HW196876   0.763   8.508 -12.809
31623SOL    HW296877   0.706  19.517  -1.633
31624SOL     OW96878   8.897   4.569   3.911
31624SOL    HW196879  -2.211   4.553   3.976
31624SOL    HW296880 -13.180  15.703 -18.178
31625SOL     OW96881   5.268   8.427   4.321
31625SOL    HW196882   5.279   8.520   4.302
31625SOL    HW296883   5.204   8.424  15.431
31626SOL     OW96884   4.878   4.707   8.116
31626SOL    HW196885   4.971  -6.355   8.106
31626SOL    HW296886   4.842  -6.338 -14.052
31627SOL     OW96887   4.545  10.586   2.543
31627SOL    HW196888   4.539  10.585   2.448
31627SOL    HW296889   4.459  10.618  13.611
31628SOL     OW96890   2.526   9.813   0.817
31628SOL    HW196891   2.547   9.741   0.757
31628SOL    HW296892   2.611   9.843   0.849
31629SOL     OW96893   0.458   6.247   5.221
31629SOL    HW196894   0.470   6.177   5.157
31629SOL    HW296895   0.544  28.335   5.262
31630SOL     OW96896   6.105   7.713   2.151
31630SOL    HW196897   6.059   7.630  13.179
31630SOL    HW296898   6.197   7.692   2.139
31631SOL     OW96899   5.776  10.809   9.852
31631SOL    HW196900   5.692  10.806   9.898
31631SOL    HW296901   5.759  -0.278   9.770
31632SOL     OW96902   3.006   5.103   0.682
31632SOL    HW196903  -8.074   5.183   0.648
31632SOL    HW296904  13.971   5.052   0.717
31633SOL     OW96905   3.181   9.365   3.933
31633SOL    HW196906 -18.828  20.441   3.987
31633SOL    HW296907   3.141   9.441   3.890
31634SOL     OW96908   6.140   9.501   9.727
31634SOL    HW196909   6.162  -1.470   9.789
31634SOL    HW296910   6.063   9.458  -1.275
31635SOL     OW96911  10.942   4.881   7.593
31635SOL    HW196912 -11.059   4.913   7.547
31635SOL    HW296913  -0.156   4.852   7.524
31636SOL     OW96914   5.509   6.323   2.520
31636SOL    HW196915  -5.507   6.252   2.461
31636SOL    HW296916   5.552  -4.739   2.603
31637SOL     OW96917   3.709   2.152  10.573
31637SOL    HW196918   3.748  -8.935 -11.580
31637SOL    HW296919   3.616   2.130 -11.511
31638SOL     OW96920   0.071   5.092   6.384
31638SOL    HW196921  33.180   5.043   6.302
31638SOL    HW296922   0.162   5.123  -4.657
31639SOL     OW96923  10.170   4.523   3.589
31639SOL    HW196924 -11.828   4.574   3.588
31639SOL    HW296925  10.134   4.535   3.501
31640SOL     OW96926   1.517   6.866   4.751
31640SOL    HW196927   1.523   6.960   4.767
31640SOL    HW296928  -9.617   6.848  -6.291
31641SOL     OW96929   4.909   3.496  10.751
31641SOL    HW196930   4.977  25.593  10.817
31641SOL    HW296931   4.927   3.558  10.681
31642SOL     OW96932   8.434   5.196  10.125
31642SOL    HW196933   8.347   5.164  10.101
31642SOL    HW296934   8.494   5.129  10.092
31643SOL     OW96935   2.006   8.879   7.582
31643SOL    HW196936   1.960   8.799   7.608
31643SOL    HW296937   2.047  -2.129   7.663
31644SOL     OW96938   2.180   7.081   6.274
31644SOL    HW196939  -8.884  18.200   6.320
31644SOL    HW296940   2.215  18.063  17.382
31645SOL     OW96941   8.760   9.374   5.377
31645SOL    HW196942   8.764   9.449  16.358
31645SOL    HW296943  -2.360  31.467   5.428
31646SOL     OW96944   8.001  11.257   8.848
31646SOL    HW196945   8.059   0.181   8.914
31646SOL    HW296946  41.175 -10.811   8.771
31647SOL     OW96947   5.466   5.003   8.697
31647SOL    HW196948   5.546   5.049  19.711
31647SOL    HW296949   5.484   4.911  -2.362
31648SOL     OW96950   3.955   8.190   6.290
31648SOL    HW196951   3.865   8.170   6.268
31648SOL    HW296952  15.031   8.230   6.211
31649SOL     OW96953   7.899   1.847   8.943
31649SOL    HW196954   7.816   1.800   8.943
31649SOL    HW296955   7.881   1.928   8.992
31650SOL     OW96956   2.116  10.485   2.016
31650SOL    HW196957  13.153  10.578   1.993
31650SOL    HW296958  13.194  10.483  24.183
31651SOL     OW96959   3.045   9.685   3.648
31651SOL    HW196960   3.065   9.773   3.617
31651SOL    HW296961   3.110   9.668   3.716
31652SOL     OW96962   3.455   4.374   5.584
31652SOL    HW196963  -7.572  15.474  -5.382
31652SOL    HW296964   3.511   4.409   5.515
31653SOL     OW96965   0.440   4.655   5.992
31653SOL    HW196966   0.443   4.738  -5.000
31653SOL    HW296967   0.369   4.606  -5.007
31654SOL     OW96968   1.909   8.150   3.327
31654SOL    HW196969  12.946  30.288   3.251
31654SOL    HW296970   1.922   8.063   3.289
31655SOL     OW96971   0.929   0.400  10.575
31655SOL    HW196972   0.876  22.403  -0.439
31655SOL    HW296973  11.910   0.454  10.522
31656SOL     OW96974   5.607   3.257   1.388
31656SOL    HW196975  -5.439  14.231   1.458
31656SOL    HW296976 -27.567   3.223   1.318
31657SOL     OW96977   4.931   4.441  10.586
31657SOL    HW196978   4.996  37.588  10.650
31657SOL    HW296979   4.852   4.424  10.637
31658SOL     OW96980   8.634   8.352   6.657
31658SOL    HW196981  19.696   8.423   6.718
31658SOL    HW296982   8.559   8.308   6.698
31659SOL     OW96983   8.002  10.101   9.180
31659SOL    HW196984   8.064  -0.884   9.132
31659SOL    HW296985   7.918  21.156  31.215
31660SOL     OW96986   6.725   1.968   0.938
31660SOL    HW196987 -15.427   1.980   0.877
31660SOL    HW296988   6.791   2.030  22.987
31661SOL     OW96989   2.235   0.593   6.526
31661SOL    HW196990 -19.790 -10.433   6.449
31661SOL    HW296991  13.307  11.697   6.590
31662SOL     OW96992   3.910  11.354   0.654
31662SOL    HW196993  -7.170   0.399   0.635
31662SOL    HW296994  14.915  11.296 -10.453
31663SOL     OW96995   3.116   6.199   1.960
31663SOL    HW196996   3.103   6.212   2.054
31663SOL    HW296997  -8.011 -15.869  12.962
31664SOL     OW96998   7.810   6.884   3.698
31664SOL    HW196999   7.864   6.868  25.855
31664SOL    HW297000  29.816   6.823   3.706
31665SOL     OW97001   7.971  11.531  10.373
31665SOL    HW197002  19.061   0.573  10.368
31665SOL    HW297003  29.964  11.554  21.377
31666SOL     OW97004   1.391   5.874   4.664
31666SOL    HW197005   1.356   5.917  15.626
31666SOL    HW297006   1.446   5.804   4.630
31667SOL     OW97007   7.969  11.032   5.172
31667SOL    HW197008  30.102  -0.038   5.245
31667SOL    HW297009   7.879  11.019   5.201
31668SOL     OW97010   5.992   5.463   8.567
31668SOL    HW197011  -4.972   5.466  19.548
31668SOL    HW297012   5.994   5.547   8.613
31669SOL     OW97013   1.388   0.771   2.067
31669SOL    HW197014   1.330   0.701   2.098
31669SOL    HW297015   1.467  22.841   2.121
31670SOL     OW97016   7.918   4.902  -2.658
31670SOL    HW197017   7.904   4.926  41.592
31670SOL    HW297018  29.997   4.985   8.335
31671SOL     OW97019   7.505   7.091   7.464
31671SOL    HW197020  51.671   7.131  -3.662
31671SOL    HW297021   7.583   7.036   7.472
31672SOL     OW97022   0.203   5.082   0.329
31672SOL    HW197023   0.151 -28.103   0.285
31672SOL    HW297024   0.167   5.086   0.418
31673SOL     OW97025   9.238  10.077   1.808
31673SOL    HW197026   9.187  10.098  -9.309
31673SOL    HW297027 -12.898  10.020   1.860
31674SOL     OW97028   5.076   0.714   1.129
31674SOL    HW197029   5.010   0.783 -20.948
31674SOL    HW297030   5.159   0.761  23.215
31675SOL     OW97031   5.170   1.970   7.673
31675SOL    HW197032   5.240   1.990   7.611
31675SOL    HW297033   5.187   1.880   7.701
31676SOL     OW97034   5.010   8.364   2.402
31676SOL    HW197035   4.976  -2.765   2.409
31676SOL    HW297036  -6.107   8.419   2.393
31677SOL     OW97037   6.621   3.640  11.144
31677SOL    HW197038   6.623   3.726   0.146
31677SOL    HW297039   6.582   3.582   0.170
31678SOL     OW97040  11.141   2.817   7.330
31678SOL    HW197041 -10.879  13.930   7.346
31678SOL    HW297042  11.182   2.770   7.257
31679SOL     OW97043   0.887   7.739   8.594
31679SOL    HW197044   0.884   7.803   8.665
31679SOL    HW297045   0.897  18.694   8.638
31680SOL     OW97046   4.006   8.600   8.918
31680SOL    HW197047   4.007   8.686   8.876
31680SOL    HW297048   4.064  19.586  30.943
31681SOL     OW97049   0.207   4.304   2.484
31681SOL    HW197050   0.149  -6.779  -8.618
31681SOL    HW297051   0.148  -6.684  24.618
31682SOL     OW97052   8.564   8.453   2.433
31682SOL    HW197053   8.593   8.383  -8.549
31682SOL    HW297054   8.545  30.489   2.350
31683SOL     OW97055  10.257   9.432   9.264
31683SOL    HW197056  10.219  -1.656   9.191
31683SOL    HW297057  10.321   9.373 -23.816
31684SOL     OW97058   4.367   2.628   9.320
31684SOL    HW197059  15.494   2.665  31.414
31684SOL    HW297060   4.308   2.702   9.334
31685SOL     OW97061   3.879   5.599   3.348
31685SOL    HW197062  26.033 -16.539  -7.700
31685SOL    HW297063   3.841   5.578   3.434
31686SOL     OW97064   3.756   7.059   8.990
31686SOL    HW197065  14.823  40.267   9.010
31686SOL    HW297066   3.796  18.045  -1.980
31687SOL     OW97067  10.719   4.970   8.502
31687SOL    HW197068  -0.292   4.927   8.421
31687SOL    HW297069  10.716 -17.179  19.606
31688SOL     OW97070   5.940   7.879   2.314
31688SOL    HW197071  -5.030   7.816   2.296
31688SOL    HW297072   5.983   7.951   2.360
31689SOL     OW97073   3.383   7.361   0.104
31689SOL    HW197074   3.293   7.386   0.123
31689SOL    HW297075   3.384   7.266   0.111
31690SOL     OW97076  10.628   4.715   2.903
31690SOL    HW197077  10.587   4.784   2.850
31690SOL    HW297078  10.637   4.753   2.990
31691SOL     OW97079   2.043  10.545   2.671
31691SOL    HW197080   2.051  -0.558   2.742
31691SOL    HW297081   1.998  10.497   2.601
31692SOL     OW97082   5.711   6.080   4.643
31692SOL    HW197083 -27.462   6.158   4.641
31692SOL    HW297084  16.840   6.113   4.643
31693SOL     OW97085  10.228   9.586   3.518
31693SOL    HW197086  10.160   9.520 -29.586
31693SOL    HW297087  10.253   9.575 -18.653
31694SOL     OW97088   1.135   8.901   5.594
31694SOL    HW197089   1.144  -2.101   5.506
31694SOL    HW297090   1.140   8.806 -16.499
31695SOL     OW97091   0.270   1.232   3.023
31695SOL    HW197092   0.251  12.357   3.062
31695SOL    HW297093  33.360  34.359   2.932
31696SOL     OW97094   4.717  10.577   7.539
31696SOL    HW197095  -6.348  10.637   7.468
31696SOL    HW297096   4.638  10.526  29.635
31697SOL     OW97097   5.706   0.502   3.170
31697SOL    HW197098   5.736   0.471   3.255
31697SOL    HW297099  16.681   0.570  -7.849
31698SOL     OW97100   6.014   2.795   4.097
31698SOL    HW197101   5.976   2.863   4.042
31698SOL    HW297102  17.050  13.755   4.044
31699SOL     OW97103   7.882   8.526   8.152
31699SOL    HW197104   7.834   8.509   8.233
31699SOL    HW297105   7.972  -2.541 -13.908
31700SOL     OW97106   6.254   4.917   4.971
31700SOL    HW197107   6.261   4.838  16.064
31700SOL    HW297108   6.190   4.895   4.904
31701SOL     OW97109   5.857   4.165   6.609
31701SOL    HW197110   5.769   4.153   6.645
31701SOL    HW297111  27.992   4.180  17.725
31702SOL     OW97112   5.274  10.366   2.489
31702SOL    HW197113  -5.732  10.446  -8.590
31702SOL    HW297114   5.266 -11.692   2.582
31703SOL     OW97115   2.322   0.472   1.252
31703SOL    HW197116   2.356  11.464   1.177
31703SOL    HW297117   2.322   0.408   1.323
31704SOL     OW97118   5.270   8.974   6.276
31704SOL    HW197119  16.225   9.016   6.264
31704SOL    HW297120  16.305  -2.103  17.404
31705SOL     OW97121  11.250   2.391   0.691
31705SOL    HW197122   0.280 -30.745  11.668
31705SOL    HW297123   0.203  13.526   0.693
31706SOL     OW97124   2.828   3.881   5.504
31706SOL    HW197125   2.760  25.982  -5.599
31706SOL    HW297126   2.887   3.956   5.503
31707SOL     OW97127   5.725   0.850   3.673
31707SOL    HW197128  27.713   0.823  47.820
31707SOL    HW297129   5.759   0.859   3.584
31708SOL     OW97130   8.874   5.821   3.488
31708SOL    HW197131   8.870   5.909   3.527
31708SOL    HW297132  30.878   5.818  25.507
31709SOL     OW97133   3.506   6.825   3.399
31709SOL    HW197134  -7.620   6.867   3.393
31709SOL    HW297135   3.563   6.893   3.434
31710SOL     OW97136   1.758   5.617   5.578
31710SOL    HW197137  12.804   5.645   5.669
31710SOL    HW297138   1.736   5.524   5.583
31711SOL     OW97139  10.151   4.384   7.561
31711SOL    HW197140  -0.824  15.401   7.628
31711SOL    HW297141  -0.868   4.327   7.487
31712SOL     OW97142   2.815   6.632   2.771
31712SOL    HW197143   2.721   6.629   2.758
31712SOL    HW297144   2.839   6.723 -19.324
31713SOL     OW97145   8.409   3.058   7.978
31713SOL    HW197146   8.359   3.125   8.023
31713SOL    HW297147 -24.768   2.982   7.974
31714SOL     OW97148   7.390   9.364   0.635
31714SOL    HW197149   7.301  -1.712   0.636
31714SOL    HW297150  29.506   9.335   0.552
31715SOL     OW97151  10.654   3.394   7.258
31715SOL    HW197152  10.628   3.303   7.269
31715SOL    HW297153  10.707   3.413   7.336
31716SOL     OW97154   2.109   1.365   6.765
31716SOL    HW197155   2.042   1.427   6.739
31716SOL    HW297156   2.149   1.403   6.843
31717SOL     OW97157   2.108   6.131   5.779
31717SOL    HW197158  46.241   6.057  27.913
31717SOL    HW297159   2.090   6.208  16.872
31718SOL     OW97160   5.474   2.147   1.933
31718SOL    HW197161 -38.643   2.097   2.003
31718SOL    HW297162  -5.557   2.239   1.959
31719SOL     OW97163   2.857   1.158   6.263
31719SOL    HW197164  -8.103   1.194  17.342
31719SOL    HW297165   2.829  34.343   6.200
31720SOL     OW97166   4.040   3.616   9.385
31720SOL    HW197167   4.077   3.558   9.319
31720SOL    HW297168   4.080   3.701   9.368
31721SOL     OW97169   4.758   3.365   2.132
31721SOL    HW197170   4.842  14.408   2.086
31721SOL    HW297171   4.708   3.437   2.094
31722SOL     OW97172   6.767   1.209   7.163
31722SOL    HW197173   6.825   1.245   7.096
31722SOL    HW297174   6.808  -9.806  29.325
31723SOL     OW97175   5.751   4.064  -1.432
31723SOL    HW197176   5.805   4.085  20.570
31723SOL    HW297177   5.805   4.090  53.840
31724SOL     OW97178   9.286   9.603   3.957
31724SOL    HW197179   9.215   9.582   4.017
31724SOL    HW297180   9.262   9.560   3.875
31725SOL     OW97181   4.450   8.240   5.205
31725SOL    HW197182   4.461  19.246   5.294
31725SOL    HW297183  -6.526  30.270  16.192
31726SOL     OW97184  12.333  11.396   5.489
31726SOL    HW197185  -9.691 -21.695   5.416
31726SOL    HW297186 -65.013  22.501 -27.625
31727SOL     OW97187   9.496  10.228   6.465
31727SOL    HW197188  20.589  10.223 -15.693
31727SOL    HW297189   9.495  21.178   6.499
31728SOL     OW97190   8.111   4.999   4.545
31728SOL    HW197191  19.141   4.956   4.629
31728SOL    HW297192   8.027   5.043   4.531
31729SOL     OW97193   9.717   7.443   3.858
31729SOL    HW197194  -1.343  -3.613   3.766
31729SOL    HW297195 -23.486   7.438   3.903
31730SOL     OW97196   2.622  -0.911   3.385
31730SOL    HW197197   2.580  21.093 -18.736
31730SOL    HW297198  -8.371  -0.949   3.460
31731SOL     OW97199  10.107   0.610   5.107
31731SOL    HW197200  10.100   0.705   5.121
31731SOL    HW297201  -1.013   0.574  -5.895
31732SOL     OW97202   2.280   8.123   7.776
31732SOL    HW197203   2.272   8.046  -3.319
31732SOL    HW297204  -8.832  -2.925   7.839
31733SOL     OW97205   4.816   2.342   1.374
31733SOL    HW197206   4.891   2.370  -9.717
31733SOL    HW297207  -6.296  -8.698   1.312
31734SOL     OW97208  10.133   3.473   8.501
31734SOL    HW197209  10.071 -29.715   8.523
31734SOL    HW297210  10.180  -7.599   8.424
31735SOL     OW97211   2.962   6.923   6.335
31735SOL    HW197212   2.892   6.931   6.400
31735SOL    HW297213   3.003  -4.030   6.333
31736SOL     OW97214  -0.409   5.487   8.450
31736SOL    HW197215  32.791  60.681   8.399
31736SOL    HW297216  -0.411  38.523   8.498
31737SOL     OW97217   4.230   4.388  10.890
31737SOL    HW197218  -6.732   4.334  10.873
31737SOL    HW297219   4.171   4.330  10.938
31738SOL     OW97220   2.218   7.824   3.363
31738SOL    HW197221  -8.911   7.812  14.432
31738SOL    HW297222   2.266   7.751   3.400
31739SOL     OW97223   8.364   7.324   0.999
31739SOL    HW197224  19.416  40.533   1.028
31739SOL    HW297225   8.341  18.316  23.158
31740SOL     OW97226   5.026   4.727   6.105
31740SOL    HW197227   5.014   4.706   6.197
31740SOL    HW297228   5.120   4.740   6.095
31741SOL     OW97229   6.383  14.027   2.537
31741SOL    HW197230   6.419  -7.986 -19.601
31741SOL    HW297231   6.299 -19.114  -8.540
31742SOL     OW97232   5.826   6.365  11.227
31742SOL    HW197233  16.790  -4.616 -10.855
31742SOL    HW297234  -5.153 -15.679  11.161
31743SOL     OW97235   9.121   7.123   7.560
31743SOL    HW197236   9.183   7.183  -3.438
31743SOL    HW297237   9.084  -3.866   7.487
31744SOL     OW97238  10.243   6.203  -0.091
31744SOL    HW197239  -0.705   6.184  -0.069
31744SOL    HW297240  -0.839   6.215  33.112
31745SOL     OW97241   3.837   3.329   7.906
31745SOL    HW197242   3.839   3.290  -3.220
31745SOL    HW297243   3.767   3.283   7.952
31746SOL     OW97244   1.649   0.679   3.475
31746SOL    HW197245   1.653  22.852  14.534
31746SOL    HW297246   1.655 -21.442   3.561
31747SOL     OW97247  10.455  11.063   7.558
31747SOL    HW197248  10.457   0.090   7.627
31747SOL    HW297249  10.449  10.980   7.606
31748SOL     OW97250   2.071   9.152   2.741
31748SOL    HW197251   2.141   9.188   2.686
31748SOL    HW297252   1.999  -1.902  -8.359
31749SOL     OW97253   4.327   9.559   0.698
31749SOL    HW197254   4.359   9.628 -21.324
31749SOL    HW297255   4.360  31.661  11.651
31750SOL     OW97256  -0.322  10.288  10.308
31750SOL    HW197257  -0.369  10.310  10.388
31750SOL    HW297258  10.652  10.295  -0.801
31751SOL     OW97259  11.770   6.014   6.447
31751SOL    HW197260 -10.356   5.939   6.409
31751SOL    HW297261   0.664  50.217   6.500
31752SOL     OW97262   7.643   9.581   4.342
31752SOL    HW197263   7.583   9.526 -39.765
31752SOL    HW297264   7.630   9.551  -6.788
31753SOL     OW97265   4.164  -3.080   2.437
31753SOL    HW197266   4.244  52.126 -19.591
31753SOL    HW297267   4.192   7.920   2.354
31754SOL     OW97268   9.678   1.379   1.346
31754SOL    HW197269   9.772   1.375   1.364
31754SOL    HW297270   9.666  -9.714  -9.773
31755SOL     OW97271   3.257  10.811   2.978
31755SOL    HW197272   3.309  10.826   3.058
31755SOL    HW297273 -51.892  -0.182  13.949
31756SOL     OW97274   8.033   4.219   3.457
31756SOL    HW197275   7.967   4.154  25.558
31756SOL    HW297276 -13.991  15.265  14.574
31757SOL     OW97277   4.341   9.919   1.122
31757SOL    HW197278   4.278   9.854   1.150
31757SOL    HW297279   4.372  -1.151   1.036
31758SOL     OW97280   6.841   3.598  -0.068
31758SOL    HW197281   6.821   3.681  10.930
31758SOL    HW297282  17.803  14.616  -0.017
31759SOL     OW97283   7.390   1.281  10.701
31759SOL    HW197284  18.488  -9.692  -0.375
31759SOL    HW297285   7.320   1.272  -0.404
31760SOL     OW97286   2.290   1.419   6.368
31760SOL    HW197287   2.256  -9.671  -4.745
31760SOL    HW297288   2.271  12.406   6.445
31761SOL     OW97289   8.595   7.304   4.790
31761SOL    HW197290   8.545  18.405 -17.237
31761SOL    HW297291   8.650   7.359 -17.345
31762SOL     OW97292   0.658   5.090   0.896
31762SOL    HW197293 -10.370   5.119   0.806
31762SOL    HW297294   0.678   4.997  11.933
31763SOL     OW97295  10.884   1.471   9.577
31763SOL    HW197296  10.789   1.484   9.585
31763SOL    HW297297  -0.119  -9.521   9.652
31764SOL     OW97298   8.165   7.766   7.308
31764SOL    HW197299  -2.853  18.738   7.372
31764SOL    HW297300   8.249  -3.238  29.360
31765SOL     OW97301   6.529   7.229   1.873
31765SOL    HW197302  -4.566  -3.831   1.798
31765SOL    HW297303  -4.446  -3.749   1.838
31766SOL     OW97304   2.465   3.735   7.389
31766SOL    HW197305   2.559  -7.284   7.389
31766SOL    HW297306   2.423  -7.221 -14.670
31767SOL     OW97307   8.272  10.023   2.487
31767SOL    HW197308 -13.727  -1.061  13.499
31767SOL    HW297309   8.276  10.022   2.582
31768SOL     OW97310   6.292   2.508   9.145
31768SOL    HW197311   6.206   2.497  -1.854
31768SOL    HW297312 -15.731   2.445  31.270
31769SOL     OW97313   2.646   6.923   8.726
31769SOL    HW197314   2.586 -15.132   8.655
31769SOL    HW297315   2.732   6.954   8.696
31770SOL     OW97316   0.880   9.696   9.332
31770SOL    HW197317  11.866   9.621   9.358
31770SOL    HW297318   0.827   9.742   9.267
31771SOL     OW97319   3.642   9.501   5.745
31771SOL    HW197320 -18.444   9.565  27.895
31771SOL    HW297321   3.607   9.546   5.668
31772SOL     OW97322   3.634   6.538   5.628
31772SOL    HW197323  14.745  28.595   5.688
31772SOL    HW297324   3.663  17.545   5.543
31773SOL     OW97325  -0.580   6.244  10.660
31773SOL    HW197326  10.480   6.334  -0.406
31773SOL    HW297327  -0.635   6.253  21.777
31774SOL     OW97328   6.424   9.272  14.723
31774SOL    HW197329   6.459  -1.824  14.792
31774SOL    HW297330   6.407   9.356 -51.471
31775SOL     OW97331   9.192   1.953  10.252
31775SOL    HW197332   9.216   2.029  10.199
31775SOL    HW297333 -12.844  13.007  21.376
31776SOL     OW97334   2.335   7.294   9.713
31776SOL    HW197335   2.281   7.350   9.769
31776SOL    HW297336   2.338   7.210  20.797
31777SOL     OW97337   9.083   2.335   7.437
31777SOL    HW197338   9.083   2.426   7.406
31777SOL    HW297339  31.071   2.307   7.428
31778SOL     OW97340   8.415   1.286   8.022
31778SOL    HW197341  -2.701   1.330   8.060
31778SOL    HW297342 -24.724   1.278  -3.111
31779SOL     OW97343   0.572   2.964  10.249
31779SOL    HW197344   0.494   2.960  21.233
31779SOL    HW297345   0.603   2.873 -22.865
31780SOL     OW97346   6.104   7.878   4.397
31780SOL    HW197347   6.124   7.792   4.360
31780SOL    HW297348 -15.890  29.992  -6.616
31781SOL     OW97349   6.574   4.055   9.357
31781SOL    HW197350   6.587   3.961  -1.673
31781SOL    HW297351   6.600   4.074   9.267
31782SOL     OW97352   3.868   4.179   4.321
31782SOL    HW197353  26.020 -17.878   4.378
31782SOL    HW297354   3.880  -6.805 -17.835
31783SOL     OW97355  10.544   6.432  10.320
31783SOL    HW197356  10.539   6.336  21.361
31783SOL    HW297357  10.604  -4.589  10.248
31784SOL     OW97358   3.205   6.796   9.764
31784SOL    HW197359 -18.881   6.759   9.675
31784SOL    HW297360   3.162  28.810   9.820
31785SOL     OW97361   5.850   7.264   3.812
31785SOL    HW197362  27.964   7.278   3.900
31785SOL    HW297363   5.817   7.174   3.814
31786SOL     OW97364   4.909   8.476   0.160
31786SOL    HW197365   4.972  -2.502   0.199
31786SOL    HW297366   4.961   8.400   0.136
31787SOL     OW97367   8.066   2.874  10.352
31787SOL    HW197368   8.076   2.967  10.332
31787SOL    HW297369  -2.987   2.871  10.446
31788SOL     OW97370   5.510   2.127   2.407
31788SOL    HW197371  16.597   2.111   2.489
31788SOL    HW297372   5.431   2.073   2.414
31789SOL     OW97373   0.986   1.308   5.246
31789SOL    HW197374   0.987  -9.827   5.253
31789SOL    HW297375   1.044   1.328   5.173
31790SOL     OW97376   9.263   5.563   6.898
31790SOL    HW197377   9.190  -5.417   6.910
31790SOL    HW297378   9.223   5.478   6.880
31791SOL     OW97379   8.766   8.479   7.062
31791SOL    HW197380   8.798   8.422  -4.048
31791SOL    HW297381   8.679 -13.634 -37.076
31792SOL     OW97382   1.726   9.905   5.638
31792SOL    HW197383   1.678  -1.117   5.720
31792SOL    HW297384   1.659   9.909   5.570
31793SOL     OW97385  11.096   3.620   6.625
31793SOL    HW197386  11.048   3.701  -4.432
31793SOL    HW297387   0.051   3.609   6.720
31794SOL     OW97388  10.093   1.746   8.012
31794SOL    HW197389  -0.953  -9.224   7.946
31794SOL    HW297390  10.002   1.733   8.041
31795SOL     OW97391   3.489   7.779   1.785
31795SOL    HW197392   3.431  29.925   1.747
31795SOL    HW297393   3.545  29.831  12.752
31796SOL     OW97394   7.228   8.397   3.260
31796SOL    HW197395  18.218   8.434   3.187
31796SOL    HW297396   7.308  -2.590  14.303
31797SOL     OW97397   7.375  10.388   2.351
31797SOL    HW197398  18.404  10.366   2.258
31797SOL    HW297399   7.423  10.471   2.351
31798SOL     OW97400   9.366   9.460   2.738
31798SOL    HW197401   9.413   9.480   2.656
31798SOL    HW297402   9.277   9.440   2.711
31799SOL     OW97403  10.582  -1.783   9.036
31799SOL    HW197404  10.594  20.349   9.114
31799SOL    HW297405  10.504   9.204   9.054
31800SOL     OW97406   4.345   8.919   6.692
31800SOL    HW197407   4.397   8.875  50.783
31800SOL    HW297408   4.363   9.012  17.718
31801SOL     OW97409   2.489   4.075  10.139
31801SOL    HW197410  24.588  15.043  10.079
31801SOL    HW297411  13.551   4.040  10.226
31802SOL     OW97412   5.409   8.240   6.237
31802SOL    HW197413  -5.587   8.159   6.209
31802SOL    HW297414 -16.651  -2.794  17.370
31803SOL     OW97415   5.053   3.123   5.394
31803SOL    HW197416 -16.973  14.223   5.342
31803SOL    HW297417  49.158   3.179   5.450
31804SOL     OW97418   7.884   4.343   2.033
31804SOL    HW197419   7.824   4.403   1.989
31804SOL    HW297420   7.862  -6.689   2.125
31805SOL     OW97421   6.134   1.194  11.626
31805SOL    HW197422   6.154  -9.757 -21.522
31805SOL    HW297423   6.069   1.206  11.696
31806SOL     OW97424   0.395   4.637   3.990
31806SOL    HW197425   0.379   4.692   3.913
31806SOL    HW297426   0.307   4.618   4.024
31807SOL     OW97427   6.321   7.004   0.270
31807SOL    HW197428 -26.865  18.109  22.366
31807SOL    HW297429  -4.758   6.945   0.205
31808SOL     OW97430   4.525   4.200   4.258
31808SOL    HW197431  -6.539   4.145   4.332
31808SOL    HW297432  -6.475   4.278   4.298
31809SOL     OW97433   8.048   2.158  -0.200
31809SOL    HW197434   8.109   2.174  -0.128
31809SOL    HW297435  -3.033  24.322  10.824
31810SOL     OW97436   2.503   3.416   8.504
31810SOL    HW197437   2.482  14.470  19.451
31810SOL    HW297438  13.484   3.476   8.551
31811SOL     OW97439   3.935  -0.427   2.133
31811SOL    HW197440   3.902  21.578  13.223
31811SOL    HW297441   3.859  10.668  13.156
31812SOL     OW97442   7.317   8.930   3.844
31812SOL    HW197443   7.383  -2.176   3.828
31812SOL    HW297444   7.259 -13.187   3.910
31813SOL     OW97445   5.887   8.599   5.169
31813SOL    HW197446   5.945 -24.591   5.194
31813SOL    HW297447   5.801  -2.482  16.198
31814SOL     OW97448   1.714   0.466   4.560
31814SOL    HW197449   1.802   0.438   4.534
31814SOL    HW297450   1.681   0.515   4.485
31815SOL     OW97451   2.647  -1.156   2.630
31815SOL    HW197452   2.569  20.891  35.793
31815SOL    HW297453   2.661  -1.218  13.598
31816SOL     OW97454   9.256   3.496   6.122
31816SOL    HW197455   9.162   3.499   6.137
31816SOL    HW297456  20.332   3.458   6.203
31817SOL     OW97457   1.741   5.775  10.997
31817SOL    HW197458  12.740  -5.350  10.978
31817SOL    HW297459   1.819   5.753  11.047
31818SOL     OW97460  -1.162  10.318   3.229
31818SOL    HW197461  20.997  10.311   3.281
31818SOL    HW297462  -1.224  10.260   3.273
31819SOL     OW97463   2.342  12.232  -0.266
31819SOL    HW197464   2.407 -20.908  10.841
31819SOL    HW297465   2.355   1.126  -0.334
31820SOL     OW97466   1.009   4.107   5.953
31820SOL    HW197467   1.078   4.052   5.916
31820SOL    HW297468   1.011  15.226   5.901
31821SOL     OW97469   2.336   4.795   2.984
31821SOL    HW197470   2.395   4.736   3.031
31821SOL    HW297471   2.385   4.877   2.977
31822SOL     OW97472   1.718   0.904  10.879
31822SOL    HW197473   1.687   0.861  -0.240
31822SOL    HW297474   1.698 -10.197  -0.090
31823SOL     OW97475   6.018   4.608  12.432
31823SOL    HW197476 -16.074  -6.401   1.482
31823SOL    HW297477  -4.979  -6.517  -9.638
31824SOL     OW97478   5.948   1.987   4.924
31824SOL    HW197479  17.036   1.975   5.005
31824SOL    HW297480  28.047  -9.130   4.872
31825SOL     OW97481   3.299   5.647   9.615
31825SOL    HW197482   3.248   5.635   9.695
31825SOL    HW297483  14.401   5.717   9.636
31826SOL     OW97484  10.660   3.795   6.006
31826SOL    HW197485  10.660   3.723   5.942
31826SOL    HW297486  10.728  25.933   5.976
31827SOL     OW97487   5.992   6.995   2.497
31827SOL    HW197488  -5.042   6.899  24.570
31827SOL    HW297489   5.905   7.016  13.502
31828SOL     OW97490   6.073   8.707   7.151
31828SOL    HW197491   6.089  -2.245 -14.894
31828SOL    HW297492   5.987   8.712   7.110
31829SOL     OW97493   0.031   6.699  10.326
31829SOL    HW197494   0.124   6.719  10.336
31829SOL    HW297495   0.001   6.755  10.254
31830SOL     OW97496   6.675   9.652   7.120
31830SOL    HW197497   6.633   9.734   7.096
31830SOL    HW297498   6.763  31.737   7.083
31831SOL     OW97499   3.242  11.028   2.022
31831SOL    HW197500   3.310  11.096   2.018
31831SOL    HW297501   3.290  10.946 -31.106
31832SOL     OW97502   5.021   0.213   8.752
31832SOL    HW197503   5.091   0.209   8.687
31832SOL    HW297504  16.050   0.306   8.771
31833SOL     OW97505   2.645   3.475   7.642
31833SOL    HW197506  13.771   3.515   7.646
31833SOL    HW297507   2.662  14.420  29.714
31834SOL     OW97508  10.982   4.454  12.379
31834SOL    HW197509  11.015   4.540 -20.714
31834SOL    HW297510  -0.088   4.415   1.421
31835SOL     OW97511   6.124  10.387  -0.304
31835SOL    HW197512   6.209  10.356  10.703
31835SOL    HW297513   6.094  10.449  -0.371
31836SOL     OW97514  -0.419   2.287   2.327
31836SOL    HW197515  32.751   2.228   2.272
31836SOL    HW297516  -0.358   2.313   2.397
31837SOL     OW97517   3.560   3.655   9.357
31837SOL    HW197518   3.645   3.612   9.344
31837SOL    HW297519   3.575 -18.363   9.428
31838SOL     OW97520   7.885   8.587   0.590
31838SOL    HW197521  -3.063   8.578   0.617
31838SOL    HW297522   7.888   8.642   0.511
31839SOL     OW97523   0.223   2.120   1.895
31839SOL    HW197524  22.347  -8.972 -20.118
31839SOL    HW297525   0.134  -8.953   1.894
31840SOL     OW97526   2.338  11.134   8.249
31840SOL    HW197527  -8.635  11.170   8.307
31840SOL    HW297528   2.258   0.141   8.273
31841SOL     OW97529   6.488   7.542   6.015
31841SOL    HW197530   6.405   7.532  -4.978
31841SOL    HW297531   6.554   7.549   6.085
31842SOL     OW97532   2.309   1.925  -0.326
31842SOL    HW197533   2.220   1.918  10.747
31842SOL    HW297534   2.362   1.876  21.817
31843SOL     OW97535   6.659  -0.354   4.047
31843SOL    HW197536  17.638  -0.423   4.072
31843SOL    HW297537   6.602  10.758   4.019
31844SOL     OW97538   9.255   5.623   6.125
31844SOL    HW197539   9.344   5.602 -15.982
31844SOL    HW297540   9.200  16.612   6.065
31845SOL     OW97541   5.352   9.043   5.111
31845SOL    HW197542  38.401  20.115   5.053
31845SOL    HW297543  -5.725   8.964   5.151
31846SOL     OW97544   3.945   9.799   5.276
31846SOL    HW197545   3.903  -1.325  -5.779
31846SOL    HW297546  -7.012  20.833  -5.812
31847SOL     OW97547   0.045   9.412   7.899
31847SOL    HW197548   0.106  20.490 -25.157
31847SOL    HW297549   0.057   9.463   7.819
31848SOL     OW97550   4.292   0.810   1.405
31848SOL    HW197551  15.356 -10.232  23.392
31848SOL    HW297552  37.481   0.858   1.448
31849SOL     OW97553  -0.144   4.736   1.076
31849SOL    HW197554  -0.130 -17.293   1.157
31849SOL    HW297555  10.889 -17.277   1.007
31850SOL     OW97556   1.924   3.926   2.823
31850SOL    HW197557   1.989   3.919   2.893
31850SOL    HW297558   1.957   3.869   2.754
31851SOL     OW97559   1.615   7.966   0.177
31851SOL    HW197560   1.583  19.047   0.257
31851SOL    HW297561   1.562  -3.034  11.146
31852SOL     OW97562  -0.931   2.640  11.029
31852SOL    HW197563  -0.974   2.664   0.072
31852SOL    HW297564  21.225   2.589   0.016
31853SOL     OW97565   8.990  -1.131   1.782
31853SOL    HW197566   8.989   9.815   1.762
31853SOL    HW297567  -2.096  31.995   1.865
31854SOL     OW97568   1.933  11.997   6.692
31854SOL    HW197569   1.940  11.919   6.636
31854SOL    HW297570   1.997 -10.097   6.761
31855SOL     OW97571  10.459  -0.229   8.752
31855SOL    HW197572  -0.611  10.860   8.828
31855SOL    HW297573  10.388  10.750  19.772
31856SOL     OW97574   4.984   7.073   7.714
31856SOL    HW197575  -6.028  29.071   7.671
31856SOL    HW297576  -6.151   7.071   7.710
31857SOL     OW97577   8.481   4.582   1.168
31857SOL    HW197578   8.450   4.563   1.257
31857SOL    HW297579   8.402  -6.461  12.153
31858SOL     OW97580  -0.619  13.943   4.508
31858SOL    HW197581  10.444 -19.157   4.599
31858SOL    HW297582  21.539 -19.157   4.458
31859SOL     OW97583   0.662   2.817   5.646
31859SOL    HW197584  22.746   2.894   5.701
31859SOL    HW297585   0.753   2.800 -16.460
31860SOL     OW97586   9.137   1.929   7.919
31860SOL    HW197587   9.201   1.999   7.905
31860SOL    HW297588   9.179  -9.189   7.885
31861SOL     OW97589   5.681   6.682  10.870
31861SOL    HW197590  -5.338  -4.272  10.907
31861SOL    HW297591  -5.387   6.701  10.780
31862SOL     OW97592   9.095   8.064  10.790
31862SOL    HW197593  31.127  -2.893  10.780
31862SOL    HW297594   9.173  -2.952  10.841
31863SOL     OW97595   7.419   1.916   8.894
31863SOL    HW197596  -3.614   1.850   8.825
31863SOL    HW297597  40.449   1.950   8.886
31864SOL     OW97598   7.595   4.035   7.499
31864SOL    HW197599   7.689   4.048   7.499
31864SOL    HW297600   7.572   4.025   7.406
31865SOL     OW97601   8.657   2.787  -0.137
31865SOL    HW197602   8.612   2.871  -0.132
31865SOL    HW297603   8.693  -8.256  10.814
31866SOL     OW97604   2.188   0.460   2.207
31866SOL    HW197605   2.281   0.484 -19.873
31866SOL    HW297606   2.166  22.530   2.299
31867SOL     OW97607   3.246   4.046  10.958
31867SOL    HW197608 -18.771   4.056  10.886
31867SOL    HW297609   3.300  -6.986  11.037
31868SOL     OW97610   5.106   7.750   9.773
31868SOL    HW197611   5.036  18.854   9.765
31868SOL    HW297612   5.061  18.709   9.799
31869SOL     OW97613   3.939   9.062   4.630
31869SOL    HW197614   4.009  20.125 -17.511
31869SOL    HW297615 -18.175   8.979   4.596
31870SOL     OW97616   2.338   1.682   3.136
31870SOL    HW197617   2.354   1.658  -7.812
31870SOL    HW297618   2.410   1.742   3.114
31871SOL     OW97619  11.014   7.113   3.464
31871SOL    HW197620  10.948   7.155 -18.560
31871SOL    HW297621  10.981  -3.917  -7.665
31872SOL     OW97622   0.156  10.363   9.118
31872SOL    HW197623   0.170  10.434   9.056
31872SOL    HW297624   0.172  10.401  31.283
31873SOL     OW97625   5.699   4.520   9.644
31873SOL    HW197626  16.829  -6.550  -1.389
31873SOL    HW297627 -16.374   4.604   9.599
31874SOL     OW97628   7.814  10.117   3.828
31874SOL    HW197629  29.891  10.026   3.798
31874SOL    HW297630   7.863  -0.876  25.839
31875SOL     OW97631   2.100  10.900   2.929
31875SOL    HW197632  -8.969  -0.219   2.884
31875SOL    HW297633   2.056  -0.068   2.883
31876SOL     OW97634   6.564   2.676   5.077
31876SOL    HW197635   6.474   2.708  16.127
31876SOL    HW297636   6.555  -8.450  16.076
31877SOL     OW97637   0.885   9.705   1.052
31877SOL    HW197638   0.880   9.748  12.006
31877SOL    HW297639   0.805   9.732   1.097
31878SOL     OW97640  14.624   2.015   3.922
31878SOL    HW197641 -18.479   1.948   3.988
31878SOL    HW297642 -18.492  -8.942   3.972
31879SOL     OW97643  10.190   5.419   8.666
31879SOL    HW197644  10.177   5.505   8.705
31879SOL    HW297645  10.121   5.365  19.743
31880SOL     OW97646   6.112   8.599   5.544
31880SOL    HW197647   6.190   8.597  -5.440
31880SOL    HW297648  -4.984   8.665   5.584
31881SOL     OW97649   9.208  11.288   7.274
31881SOL    HW197650   9.279   0.260   7.338
31881SOL    HW297651  31.306   0.165   7.232
31882SOL     OW97652   2.650   6.617   0.835
31882SOL    HW197653   2.742   6.598   0.815
31882SOL    HW297654   2.606   6.614   0.750
31883SOL     OW97655   8.152   0.923   8.549
31883SOL    HW197656   8.232   0.917   8.601
31883SOL    HW297657   8.174   0.882   8.465
31884SOL     OW97658   3.302   9.467   7.215
31884SOL    HW197659   3.362   9.525   7.263
31884SOL    HW297660 -18.865   9.495   7.243
31885SOL     OW97661   6.021  -0.287   4.848
31885SOL    HW197662   6.109  21.760   4.830
31885SOL    HW297663   5.971  -0.365   4.871
31886SOL     OW97664   1.965   5.164  10.664
31886SOL    HW197665  -9.090  -5.897 -11.507
31886SOL    HW297666   1.887  16.253  10.690
31887SOL     OW97667  10.213   1.110   5.415
31887SOL    HW197668  10.162   1.121   5.334
31887SOL    HW297669  10.154  -9.977 -16.605
31888SOL     OW97670   4.963   2.716   3.313
31888SOL    HW197671   5.055   2.709   3.288
31888SOL    HW297672   4.914   2.688  -7.804
31889SOL     OW97673   4.713   9.539   7.766
31889SOL    HW197674   4.704   9.507   7.676
31889SOL    HW297675  -6.265   9.478   7.806
31890SOL     OW97676   5.791   8.844   8.883
31890SOL    HW197677  -5.234   8.761   8.929
31890SOL    HW297678   5.726   8.890   8.937
31891SOL     OW97679   6.151   4.516   2.233
31891SOL    HW197680  -4.899  15.589  13.361
31891SOL    HW297681  17.188   4.594   2.177
31892SOL     OW97682   4.447  -1.395  11.513
31892SOL    HW197683   4.490  31.669 -10.632
31892SOL    HW297684   4.505  20.761  11.522
31893SOL     OW97685   2.997   5.191   1.237
31893SOL    HW197686  -8.112   5.200  23.251
31893SOL    HW297687   3.032   5.280  12.287
31894SOL     OW97688   7.198   1.949   1.932
31894SOL    HW197689   7.253  23.954  -9.134
31894SOL    HW297690   7.260   2.019   1.954
31895SOL     OW97691   4.982   6.367   8.020
31895SOL    HW197692   4.972  17.430  19.152
31895SOL    HW297693   4.942   6.280   8.013
31896SOL     OW97694   9.925   3.174   7.221
31896SOL    HW197695  -1.037   3.181   7.278
31896SOL    HW297696  -1.162  14.138   7.255
31897SOL     OW97697   9.493  10.122   2.187
31897SOL    HW197698   9.446  10.039   2.187
31897SOL    HW297699  -1.614  10.188   2.171
31898SOL     OW97700   0.561   6.542   8.827
31898SOL    HW197701   0.508  28.560   8.878
31898SOL    HW297702  11.656   6.585   8.892
31899SOL     OW97703  10.806   1.118   5.717
31899SOL    HW197704  10.885   1.064   5.712
31899SOL    HW297705  10.807   1.155  27.884
31900SOL     OW97706  11.907   0.065   0.934
31900SOL    HW197707 -10.169   0.129   1.005
31900SOL    HW297708   0.958  11.098   0.903
31901SOL     OW97709   6.567   1.932   1.322
31901SOL    HW197710   6.491   1.988   1.308
31901SOL    HW297711   6.641   1.985  12.334
31902SOL     OW97712   3.559   9.498  -1.212
31902SOL    HW197713  -7.559   9.544  -1.181
31902SOL    HW297714   3.544   9.407  20.893
31903SOL     OW97715   1.638  11.118   7.969
31903SOL    HW197716  -9.343   0.084   7.894
31903SOL    HW297717   1.690  11.074   8.037
31904SOL     OW97718   4.164   3.648   7.396
31904SOL    HW197719   4.078   3.684   7.374
31904SOL    HW297720   4.145   3.573  18.492
31905SOL     OW97721   5.619   2.937   2.362
31905SOL    HW197722   5.529   2.968   2.354
31905SOL    HW297723   5.673  -8.026  -8.696
31906SOL     OW97724   6.741   6.692   4.262
31906SOL    HW197725   6.743 -15.291   4.257
31906SOL    HW297726   6.672   6.666   4.201
31907SOL     OW97727   0.779  10.205   4.248
31907SOL    HW197728   0.824  10.124   4.270
31907SOL    HW297729   0.696  -0.840   4.296
31908SOL     OW97730   1.047   9.115   0.497
31908SOL    HW197731  12.144   9.183   0.535
31908SOL    HW297732  23.171   9.087   0.417
31909SOL     OW97733   8.000   7.858   1.134
31909SOL    HW197734   7.944   7.798   1.084
31909SOL    HW297735  -3.063   7.840   1.226
31910SOL     OW97736  -1.209   9.219   2.986
31910SOL    HW197737  -1.166   9.145   3.028
31910SOL    HW297738  54.004   9.293   3.045
31911SOL     OW97739   0.914   3.438   2.292
31911SOL    HW197740  22.949  14.562  -8.737
31911SOL    HW297741   0.905   3.419   2.198
31912SOL     OW97742   1.027   8.408   5.784
31912SOL    HW197743   1.038  30.405  -5.304
31912SOL    HW297744   1.079   8.395  16.904
31913SOL     OW97745   1.646   0.524   2.851
31913SOL    HW197746   1.643   0.476   2.768
31913SOL    HW297747   1.584   0.479  -8.132
31914SOL     OW97748   4.109   2.844  11.203
31914SOL    HW197749  -7.007  -8.139  11.211
31914SOL    HW297750   4.089   2.770   0.220
31915SOL     OW97751   5.391   3.712   3.026
31915SOL    HW197752  16.366  14.690   2.991
31915SOL    HW297753   5.375  14.752   3.121
31916SOL     OW97754  10.240   2.831   8.722
31916SOL    HW197755  10.302   2.818   8.793
31916SOL    HW297756  10.234   2.745  19.719
31917SOL     OW97757   5.751   4.413   7.386
31917SOL    HW197758   5.780   4.381   7.472
31917SOL    HW297759   5.768   4.507   7.389
31918SOL     OW97760   1.939   6.659   9.255
31918SOL    HW197761  12.915  -4.379   9.326
31918SOL    HW297762   1.920 -15.500   9.207
31919SOL     OW97763   3.564   9.087   9.026
31919SOL    HW197764   3.483   9.036   9.017
31919SOL    HW297765  14.651 -24.047   8.945
31920SOL     OW97766   0.151   9.910   2.029
31920SOL    HW197767   0.205   9.989  46.190
31920SOL    HW297768   0.213   9.838   2.039
31921SOL     OW97769   5.808   5.342  10.713
31921SOL    HW197770 -27.390   5.364  10.762
31921SOL    HW297771   5.873   5.405  10.745
31922SOL     OW97772   6.503   5.274  -0.973
31922SOL    HW197773   6.543   5.339  21.049
31922SOL    HW297774   6.424   5.246  -1.021
31923SOL     OW97775   0.120   7.779  10.174
31923SOL    HW197776   0.050   7.843  10.173
31923SOL    HW297777   0.148   7.774  10.265
31924SOL     OW97778   8.028   4.813   2.175
31924SOL    HW197779   8.027   4.861   2.258
31924SOL    HW297780   8.119  37.904   2.164
31925SOL     OW97781   2.953   4.878   4.820
31925SOL    HW197782   2.858   4.886  26.898
31925SOL    HW297783   2.975  -6.204   4.737
31926SOL     OW97784   1.754   3.902   5.172
31926SOL    HW197785  -9.247 -18.262   5.189
31926SOL    HW297786  -9.380   3.886  -5.865
31927SOL     OW97787   5.411   7.136   0.580
31927SOL    HW197788  16.433   7.057  11.672
31927SOL    HW297789   5.403  -3.831   0.642
31928SOL     OW97790   3.693  14.118   5.873
31928SOL    HW197791   3.645  -7.912  39.058
31928SOL    HW297792   3.779 -18.959   5.870
31929SOL     OW97793   3.725   7.471   1.849
31929SOL    HW197794  -7.365   7.411   1.904
31929SOL    HW297795   3.700   7.447   1.760
31930SOL     OW97796   6.027  10.380   6.073
31930SOL    HW197797   5.997  -0.697  -4.884
31930SOL    HW297798   5.993  10.321   6.006
31931SOL     OW97799   6.974   0.170   8.878
31931SOL    HW197800  -3.989  11.173   8.922
31931SOL    HW297801   6.930   0.094  -2.200
31932SOL     OW97802   0.878  -0.050   2.194
31932SOL    HW197803   0.972  10.970  13.225
31932SOL    HW297804  22.953   0.013  13.306
31933SOL     OW97805   5.780   4.262  10.014
31933SOL    HW197806   5.806   4.344  10.055
31933SOL    HW297807   5.804  15.233  10.077
31934SOL     OW97808   6.998   4.009   5.587
31934SOL    HW197809   7.054   4.042   5.517
31934SOL    HW297810   6.912   4.048 -16.510
31935SOL     OW97811   7.656   0.508   8.901
31935SOL    HW197812  18.653   0.486   8.818
31935SOL    HW297813   7.749   0.489   8.887
31936SOL     OW97814   5.660   9.900   6.387
31936SOL    HW197815   5.734   9.866   6.336
31936SOL    HW297816   5.608   9.950  17.364
31937SOL     OW97817   7.507   1.752   2.335
31937SOL    HW197818   7.422  -9.303   2.293
31937SOL    HW297819   7.568   1.696  -8.752
31938SOL     OW97820  10.703   7.421   4.008
31938SOL    HW197821  10.791   7.454  -7.011
31938SOL    HW297822  10.717   7.330   3.982
31939SOL     OW97823   7.052   6.310   8.906
31939SOL    HW197824  -4.003   6.401   8.930
31939SOL    HW297825   7.008   6.299   8.822
31940SOL     OW97826  10.827   1.345   1.609
31940SOL    HW197827  10.893   1.415   1.610
31940SOL    HW297828  10.870  12.309   1.648
31941SOL     OW97829   7.866   9.847  -1.786
31941SOL    HW197830   7.909   9.925  20.257
31941SOL    HW297831 -58.358   9.855  20.388
31942SOL     OW97832   7.436   5.089   2.969
31942SOL    HW197833   7.373   5.123   2.905
31942SOL    HW297834   7.428  16.034   2.963
31943SOL     OW97835   3.765   4.970   2.931
31943SOL    HW197836   3.771   5.022 -19.068
31943SOL    HW297837   3.856   4.948   2.910
31944SOL     OW97838   7.951   5.703   5.463
31944SOL    HW197839   8.028  27.777   5.519
31944SOL    HW297840  40.999  27.747   5.517
31945SOL     OW97841   8.688   0.452  10.555
31945SOL    HW197842   8.714   0.387  10.489
31945SOL    HW297843  -2.279   0.451  10.618
31946SOL     OW97844   7.713   5.108   3.059
31946SOL    HW197845  -3.415   5.082   3.036
31946SOL    HW297846   7.705   5.144   3.147
31947SOL     OW97847   1.814  -0.467   1.905
31947SOL    HW197848   1.729  -0.478   1.863
31947SOL    HW297849   1.876  10.575   1.833
31948SOL     OW97850   8.482   2.124   6.939
31948SOL    HW197851 -13.540  -8.901   7.014
31948SOL    HW297852   8.395   2.114   6.978
31949SOL     OW97853   3.320  10.234   7.447
31949SOL    HW197854   3.312  10.325   7.475
31949SOL    HW297855   3.234  10.211  40.532
31950SOL     OW97856   4.760   1.938  12.027
31950SOL    HW197857   4.705   1.899 -10.121
31950SOL    HW297858   4.737   2.031  12.027
31951SOL     OW97859   5.981   2.281   2.370
31951SOL    HW197860   6.049   2.334   2.326
31951SOL    HW297861   5.918   2.346 -30.716
31952SOL     OW97862   1.790   6.914  10.762
31952SOL    HW197863   1.881  -4.101 -22.373
31952SOL    HW297864   1.763   6.868 -11.396
31953SOL     OW97865   5.875   1.951   1.957
31953SOL    HW197866   5.800   1.951  -9.143
31953SOL    HW297867   5.916   2.037 -20.135
31954SOL     OW97868   7.120   8.205   9.077
31954SOL    HW197869  18.085  19.186   9.088
31954SOL    HW297870 -14.998   8.292   9.073
31955SOL     OW97871   5.872   7.289   4.979
31955SOL    HW197872   5.820   7.210   4.962
31955SOL    HW297873  -5.230   7.355  -6.033
31956SOL     OW97874   1.218   3.430   9.201
31956SOL    HW197875   1.307   3.460   9.221
31956SOL    HW297876  12.201  36.607   9.252
31957SOL     OW97877   3.210   3.439   6.307
31957SOL    HW197878  -7.790   3.486   6.233
31957SOL    HW297879  -7.894   3.381  17.306
31958SOL     OW97880   5.665   1.781  10.549
31958SOL    HW197881   5.731   1.830  10.500
31958SOL    HW297882  -5.448   1.772  10.489
31959SOL     OW97883   1.747   2.179   4.887
31959SOL    HW197884  34.833  -8.790   4.831
31959SOL    HW297885 -20.357   2.099   4.841
31960SOL     OW97886  10.916   5.627   6.989
31960SOL    HW197887  10.983   5.559   6.990
31960SOL    HW297888  10.964   5.709   6.985
31961SOL     OW97889   1.145   2.900   7.286
31961SOL    HW197890  12.275   2.913  18.296
31961SOL    HW297891   1.097  -8.067   7.247
31962SOL     OW97892   0.223   1.925   9.108
31962SOL    HW197893   0.291   1.910   9.174
31962SOL    HW297894   0.266   1.977 -13.039
31963SOL     OW97895   7.595   3.280  12.450
31963SOL    HW197896   7.524   3.344   1.414
31963SOL    HW297897  18.623  14.276  -9.714
31964SOL     OW97898   4.981   2.375   3.379
31964SOL    HW197899   4.905   2.320   3.361
31964SOL    HW297900   5.055  13.366   3.343
31965SOL     OW97901   3.586   2.620   6.987
31965SOL    HW197902  25.731  24.633   7.008
31965SOL    HW297903  14.621   2.620   6.892
31966SOL     OW97904   7.330   2.714   5.384
31966SOL    HW197905   7.348  13.771   5.292
31966SOL    HW297906   7.309   2.800   5.421
31967SOL     OW97907   9.419   5.650   4.996
31967SOL    HW197908   9.367   5.726  -6.018
31967SOL    HW297909 -45.697   5.687   4.963
31968SOL     OW97910  10.073  11.017  10.066
31968SOL    HW197911  10.076  11.087  21.040
31968SOL    HW297912  10.159  10.975  10.060
31969SOL     OW97913   4.270   8.719   7.466
31969SOL    HW197914   4.326  30.847   7.407
31969SOL    HW297915   4.233   8.649   7.412
31970SOL     OW97916   5.555   5.567   9.897
31970SOL    HW197917 -16.548   5.516   9.974
31970SOL    HW297918   5.522   5.515   9.823
31971SOL     OW97919  10.172  -1.001   2.004
31971SOL    HW197920  10.134  21.013  12.984
31971SOL    HW297921  10.217  -1.051   2.070
31972SOL     OW97922  10.785   1.733   7.748
31972SOL    HW197923  21.851   1.648  -3.327
31972SOL    HW297924  -0.351   1.729   7.748
31973SOL     OW97925   1.908   2.548  10.247
31973SOL    HW197926  23.995  -8.573  10.297
31973SOL    HW297927   1.993   2.591 -11.821
31974SOL     OW97928   0.193  10.106   5.365
31974SOL    HW197929   0.118  10.161   5.387
31974SOL    HW297930   0.234  10.149   5.290
31975SOL     OW97931   1.600   7.182   8.391
31975SOL    HW197932 -20.431   7.250   8.343
31975SOL    HW297933   1.668   7.132   8.435
31976SOL     OW97934   1.672   8.992   1.262
31976SOL    HW197935   1.635   8.911  -9.811
31976SOL    HW297936   1.708   9.036   1.184
31977SOL     OW97937   1.164   3.888   6.946
31977SOL    HW197938   1.165   3.932  -4.009
31977SOL    HW297939   1.074  25.976  28.993
31978SOL     OW97940   9.207   1.722   7.464
31978SOL    HW197941   9.181   1.796 -36.749
31978SOL    HW297942  -1.785  23.743 -14.674
31979SOL     OW97943   6.735   1.017  10.649
31979SOL    HW197944   6.798   0.954  10.613
31979SOL    HW297945  -4.346   1.057  10.572
31980SOL     OW97946  12.105   9.736   6.894
31980SOL    HW197947  12.166   9.808   6.910
31980SOL    HW297948  -9.920  20.697 -26.223
31981SOL     OW97949   3.587   9.786   3.093
31981SOL    HW197950   3.493   9.789   3.074
31981SOL    HW297951   3.600 -12.224  36.276
31982SOL     OW97952   9.580   7.557   2.924
31982SOL    HW197953 -34.599  -3.407   2.980
31982SOL    HW297954  20.650   7.596 -19.237
31983SOL     OW97955   3.406   2.396   3.433
31983SOL    HW197956   3.420   2.399   3.338
31983SOL    HW297957  -7.588   2.473   3.466
31984SOL     OW97958   4.045   6.317   0.130
31984SOL    HW197959   3.986   6.324  11.244
31984SOL    HW297960  37.251  17.376   0.166
31985SOL     OW97961   4.644   8.088   5.098
31985SOL    HW197962  -6.348   8.038   5.031
31985SOL    HW297963   4.701  30.165   5.175
31986SOL     OW97964   4.667  -0.293   3.417
31986SOL    HW197965  48.881  -0.215   3.415
31986SOL    HW297966   4.728  21.713   3.406
31987SOL     OW97967   4.642   1.359   1.878
31987SOL    HW197968  -6.422  12.311   1.848
31987SOL    HW297969   4.719  -9.658   1.826
31988SOL     OW97970  11.117   8.791   0.380
31988SOL    HW197971  11.209  19.810  22.472
31988SOL    HW297972   0.073   8.828 -10.747
31989SOL     OW97973   9.249   1.634   3.970
31989SOL    HW197974   9.241  12.731   3.894
31989SOL    HW297975   9.236  -9.349   4.046
31990SOL     OW97976   6.468   8.675   6.084
31990SOL    HW197977   6.473   8.623   6.004
31990SOL    HW297978   6.377 -13.410   6.112
31991SOL     OW97979   3.230   2.334   2.237
31991SOL    HW197980   3.202   2.422 -19.867
31991SOL    HW297981   3.270   2.345   2.324
31992SOL     OW97982   0.468  11.288   4.916
31992SOL    HW197983   0.433  11.357   4.859
31992SOL    HW297984   0.392   0.216   4.964
31993SOL     OW97985   4.325   5.129   2.375
31993SOL    HW197986 -28.793   5.204   2.435
31993SOL    HW297987   4.404   5.080  -8.642
31994SOL     OW97988   3.351   3.753   1.992
31994SOL    HW197989   3.322   3.741   2.083
31994SOL    HW297990   3.434   3.706 -20.092
31995SOL     OW97991   3.701   1.494   7.378
31995SOL    HW197992   3.684   1.487   7.471
31995SOL    HW297993   3.654   1.420  29.418
31996SOL     OW97994   4.943   6.297   1.750
31996SOL    HW197995   5.017   6.298   1.810
31996SOL    HW297996   4.982   6.284   1.664
31997SOL     OW97997   7.521  11.547   5.230
31997SOL    HW197998   7.570 -10.459  -5.848
31997SOL    HW297999   7.429  11.572   5.223
31998SOL     OW98000  10.282   1.241   5.127
31998SOL    HW198001  10.355   1.256   5.187
31998SOL    HW298002  10.321  23.269   5.055
31999SOL     OW98003   6.695   9.908   9.116
31999SOL    HW198004  -4.306   9.970   9.178
31999SOL    HW298005  -4.424   9.952  20.125
32000SOL     OW98006   6.355   8.114   1.475
32000SOL    HW198007   6.403   8.033   1.458
32000SOL    HW298008   6.268   8.086  23.583
32001SOL     OW98009   3.028   9.592   7.615
32001SOL    HW198010  13.994  20.570 -14.460
32001SOL    HW298011   3.018  20.686  -3.347
32002SOL     OW98012   6.669   6.326   8.251
32002SOL    HW198013   6.653   6.265   8.179
32002SOL    HW298014   6.742   6.287  19.339
32003SOL     OW98015   7.172   7.597   9.646
32003SOL    HW198016   7.125  18.566   9.602
32003SOL    HW298017   7.188  18.603  -1.305
32004SOL     OW98018   3.243   3.443   4.565
32004SOL    HW198019   3.258  36.630   4.631
32004SOL    HW298020 -29.952   3.474  15.556
32005SOL     OW98021   7.809   4.572   5.847
32005SOL    HW198022  18.802  26.661   5.763
32005SOL    HW298023   7.898  26.628   5.822
32006SOL     OW98024   5.999   8.690   1.172
32006SOL    HW198025 -16.153  -2.358  -9.806
32006SOL    HW298026  -5.011   8.600   1.158
32007SOL     OW98027   3.479   7.988   1.297
32007SOL    HW198028   3.560  -3.043   1.346
32007SOL    HW298029  14.524  30.134   1.229
32008SOL     OW98030   8.790   9.123   5.203
32008SOL    HW198031   8.874  -1.964  -5.832
32008SOL    HW298032   8.790   9.178   5.281
32009SOL     OW98033   3.539   5.119   2.845
32009SOL    HW198034   3.619   5.067   2.859
32009SOL    HW298035  14.594   5.200   2.894
32010SOL     OW98036   2.479   5.421   7.017
32010SOL    HW198037   2.401 -16.705  18.086
32010SOL    HW298038   2.494  -5.551   7.083
32011SOL     OW98039   4.017   4.416   3.788
32011SOL    HW198040 -17.968   4.407  -7.263
32011SOL    HW298041  -7.049   4.335   3.833
32012SOL     OW98042  10.441   7.166  10.791
32012SOL    HW198043  10.484   7.141  -0.330
32012SOL    HW298044  10.472   7.255  10.808
32013SOL     OW98045   7.344   6.647   3.302
32013SOL    HW198046   7.318  17.620   3.238
32013SOL    HW298047   7.281   6.636  14.413
32014SOL     OW98048   4.777   4.251   1.140
32014SOL    HW198049   4.758   4.164   1.174
32014SOL    HW298050  -6.260   4.240   1.045
32015SOL     OW98051   2.224   6.658   9.406
32015SOL    HW198052   2.182   6.721   9.465
32015SOL    HW298053   2.151   6.619   9.357
32016SOL     OW98054   9.133  -0.202   8.150
32016SOL    HW198055  -1.824  21.874   8.198
32016SOL    HW298056   9.085  -0.279  19.219
32017SOL     OW98057   9.211   7.888   9.366
32017SOL    HW198058   9.128  18.965   9.396
32017SOL    HW298059  20.233   7.855   9.278
32018SOL     OW98060  10.779   5.994   1.060
32018SOL    HW198061  -0.260   5.998  12.196
32018SOL    HW298062  10.746   5.906   1.041
32019SOL     OW98063   7.652   6.849   6.764
32019SOL    HW198064   7.640   6.756  -4.295
32019SOL    HW298065   7.568   6.889  -4.298
32020SOL     OW98066   4.861   2.371   4.408
32020SOL    HW198067  -6.189  -8.598   4.473
32020SOL    HW298068 -28.244   2.417 -17.754
32021SOL     OW98069   0.287   6.527   2.739
32021SOL    HW198070   0.328 -15.604   2.809
32021SOL    HW298071   0.254   6.461   2.677
32022SOL     OW98072   7.237   6.166   2.212
32022SOL    HW198073   7.270   6.107   2.144
32022SOL    HW298074 -14.873   6.107   2.281
32023SOL     OW98075   2.178   1.444   7.039
32023SOL    HW198076   2.196   1.363  18.127
32023SOL    HW298077   2.263   1.486   7.028
32024SOL     OW98078   3.129   7.559  10.159
32024SOL    HW198079   3.192   7.629 -11.933
32024SOL    HW298080   3.056   7.600  10.205
32025SOL     OW98081   6.217   0.381   7.876
32025SOL    HW198082   6.288  22.440  -3.102
32025SOL    HW298083   6.169   0.453   7.916
32026SOL     OW98084   7.699   2.863   8.129
32026SOL    HW198085   7.727   2.774   8.150
32026SOL    HW298086   7.773   2.918  -2.883
32027SOL     OW98087   5.143   3.199   2.651
32027SOL    HW198088   5.086   3.137   2.697
32027SOL    HW298089   5.092   3.224   2.573
32028SOL     OW98090   6.896  -0.489   1.303
32028SOL    HW198091   6.823  -0.542   1.272
32028SOL    HW298092   6.916  10.517   1.390
32029SOL     OW98093   1.902   9.297   6.515
32029SOL    HW198094   1.895  20.379   6.429
32029SOL    HW298095 -31.123  20.342   6.537
32030SOL     OW98096   6.886   7.114   3.466
32030SOL    HW198097   6.915   7.065   3.543
32030SOL    HW298098   6.791  18.141   3.465
32031SOL     OW98099   5.375   6.539   8.160
32031SOL    HW198100   5.426   6.510   8.235
32031SOL    HW298101  16.355   6.466   8.142
32032SOL     OW98102   2.927   8.699  10.107
32032SOL    HW198103 -30.248  19.665  21.125
32032SOL    HW298104  -8.160   8.776  10.076
32033SOL     OW98105   6.166  -0.028   2.588
32033SOL    HW198106   6.154  -0.077   2.506
32033SOL    HW298107   6.110  11.089   2.577
32034SOL     OW98108   4.483   2.137   8.540
32034SOL    HW198109 -17.677  -8.946  19.551
32034SOL    HW298110   4.553   2.087  19.538
32035SOL     OW98111   5.090   8.188  -0.486
32035SOL    HW198112   5.092   8.219  43.762
32035SOL    HW298113  -5.964  -2.946  -0.479
32036SOL     OW98114   2.605  11.111   8.902
32036SOL    HW198115  -8.365  11.045   8.897
32036SOL    HW298116 -19.530   0.053  19.866
32037SOL     OW98117   5.008   7.266   6.867
32037SOL    HW198118   5.048   7.262  -4.260
32037SOL    HW298119  16.106   7.324   6.917
32038SOL     OW98120   8.296   2.889   4.409
32038SOL    HW198121  19.376   2.870   4.324
32038SOL    HW298122   8.289   2.985 -39.747
32039SOL     OW98123   7.544  10.038   7.883
32039SOL    HW198124  18.604  21.126   7.804
32039SOL    HW298125   7.517  10.105   7.946
32040SOL     OW98126   4.876   7.414   7.469
32040SOL    HW198127   4.903 -47.796   7.560
32040SOL    HW298128   4.813   7.486 -36.687
32041SOL     OW98129   6.651   4.807   5.336
32041SOL    HW198130  28.639   4.804  16.346
32041SOL    HW298131   6.662   4.726  27.465
32042SOL     OW98132   4.568   1.076   8.174
32042SOL    HW198133   4.503   1.009   8.195
32042SOL    HW298134   4.521  23.238  -2.855
32043SOL     OW98135   9.111   6.697   2.297
32043SOL    HW198136 -24.098   6.728  24.385
32043SOL    HW298137   9.142 -37.419  13.256
32044SOL     OW98138  10.303   6.046   9.079
32044SOL    HW198139 -11.729   5.991  20.181
32044SOL    HW298140  10.342   6.025   8.994
32045SOL     OW98141   1.485   8.529   7.101
32045SOL    HW198142   1.467   8.540 -14.884
32045SOL    HW298143   1.445   8.444 -26.039
32046SOL     OW98144   5.099   3.561   4.910
32046SOL    HW198145   5.022   3.617 -17.185
32046SOL    HW298146   5.079   3.516 -28.127
32047SOL     OW98147  10.992   9.757   5.911
32047SOL    HW198148  11.073   9.769   5.862
32047SOL    HW298149  -0.026   9.785   6.000
32048SOL     OW98150   2.681   0.885  11.556
32048SOL    HW198151   2.773  34.020  11.576
32048SOL    HW298152   2.643   0.973   0.505
32049SOL     OW98153   6.370   2.205   1.722
32049SOL    HW198154   6.454   2.167   1.748
32049SOL    HW298155   6.388   2.248   1.638
32050SOL     OW98156   8.369   2.539   6.779
32050SOL    HW198157   8.399   2.608   6.839
32050SOL    HW298158   8.420   2.462   6.804
32051SOL     OW98159   4.495   6.742   3.318
32051SOL    HW198160  -6.537 -15.351  14.452
32051SOL    HW298161   4.493 -15.426  14.321
32052SOL     OW98162   0.344   6.640   8.669
32052SOL    HW198163  22.406   6.558  30.703
32052SOL    HW298164  11.443   6.617   8.740
32053SOL     OW98165   2.723   4.333   8.161
32053SOL    HW198166   2.636  -6.728  19.169
32053SOL    HW298167   2.766  -6.664  30.166
32054SOL     OW98168   4.329   9.339   1.716
32054SOL    HW198169   4.346   9.328  12.662
32054SOL    HW298170   4.246   9.294  -9.309
32055SOL     OW98171   4.597   7.958   9.104
32055SOL    HW198172   4.544   8.008   9.041
32055SOL    HW298173   4.617   8.020   9.173
32056SOL     OW98174  10.811   3.410   4.101
32056SOL    HW198175  10.905   3.428 -17.980
32056SOL    HW298176  10.773   3.473   4.040
32057SOL     OW98177   5.146   2.595   6.117
32057SOL    HW198178   5.232   2.626   6.144
32057SOL    HW298179   5.122   2.653   6.045
32058SOL     OW98180   2.914  11.018   5.858
32058SOL    HW198181   2.953  11.105   5.871
32058SOL    HW298182   2.988  10.963   5.833
32059SOL     OW98183   2.180   9.640   2.791
32059SOL    HW198184  -8.940   9.611  13.789
32059SOL    HW298185   2.153   9.714   2.846
32060SOL     OW98186   3.499   1.115   9.657
32060SOL    HW198187   3.473   1.032   9.616
32060SOL    HW298188  14.460   1.144   9.704
32061SOL     OW98189  10.548  11.002   1.232
32061SOL    HW198190  10.597  11.083   1.237
32061SOL    HW298191  10.482  11.009  -9.738
32062SOL     OW98192  10.315   8.042  10.348
32062SOL    HW198193  10.229   8.002  10.337
32062SOL    HW298194  10.297   8.136  10.351
32063SOL     OW98195   4.965   6.347   0.753
32063SOL    HW198196 -17.156   6.397   0.683
32063SOL    HW298197   5.057  -4.667  11.788
32064SOL     OW98198   1.392   7.922   2.782
32064SOL    HW198199   1.375  -3.023   2.791
32064SOL    HW298200   1.470   7.906   2.833
32065SOL     OW98201   6.172   9.183  -0.580
32065SOL    HW198202  28.177  31.317  -0.605
32065SOL    HW298203   6.249   9.230  10.428
32066SOL     OW98204   6.109   5.581   7.004
32066SOL    HW198205   6.181   5.636  -4.067
32066SOL    HW298206   6.030 -16.458  -4.072
32067SOL     OW98207   8.897   8.654   4.007
32067SOL    HW198208 -24.150   8.596  -7.005
32067SOL    HW298209   8.892   8.642   3.912
32068SOL     OW98210  11.385   0.191   8.461
32068SOL    HW198211   0.275   0.134   8.429
32068SOL    HW298212  11.384  22.257   8.556
32069SOL     OW98213   5.149   4.017   9.669
32069SOL    HW198214  -5.932   3.931   9.674
32069SOL    HW298215   5.220   4.013   9.733
32070SOL     OW98216   5.754   2.162   8.162
32070SOL    HW198217   5.692   2.230  30.213
32070SOL    HW298218   5.733  13.126   8.107
32071SOL     OW98219   3.001  11.516   7.361
32071SOL    HW198220  -8.121  22.584 -25.798
32071SOL    HW298221   3.052 -21.639   7.288
32072SOL     OW98222   4.899   9.726   7.962
32072SOL    HW198223   4.835   9.699  18.936
32072SOL    HW298224   4.984  20.740  18.964
32073SOL     OW98225   8.045   9.215   1.093
32073SOL    HW198226   7.958   9.254   1.102
32073SOL    HW298227   8.081  20.294 -10.025
32074SOL     OW98228   8.500   5.826   5.079
32074SOL    HW198229  19.597   5.756  -5.930
32074SOL    HW298230  19.512   5.799  27.071
32075SOL     OW98231   7.171   2.048   0.165
32075SOL    HW198232   7.076   2.054  22.244
32075SOL    HW298233   7.202   2.138   0.171
32076SOL     OW98234   9.217   2.344   1.604
32076SOL    HW198235   9.198  24.430   1.697
32076SOL    HW298236   9.195  13.294  -9.458
32077SOL     OW98237   8.820   6.819   3.116
32077SOL    HW198238  -2.234   6.865   3.199
32077SOL    HW298239   8.823   6.726  14.181
32078SOL     OW98240   8.496   3.753   8.726
32078SOL    HW198241   8.426  25.785   8.772
32078SOL    HW298242   8.546  -7.244  19.835
32079SOL     OW98243   0.330   9.481   5.726
32079SOL    HW198244   0.315 -23.729   5.698
32079SOL    HW298245   0.421  -1.541 -16.379
32080SOL     OW98246  10.291   5.706   4.535
32080SOL    HW198247 -11.768 -16.281   4.554
32080SOL    HW298248  10.196   5.704   4.526
32081SOL     OW98249   9.581   6.649  10.335
32081SOL    HW198250  -1.397   6.578  -0.726
32081SOL    HW298251   9.521   6.609  10.398
32082SOL     OW98252   1.294   7.846   7.080
32082SOL    HW198253   1.339  62.986   7.018
32082SOL    HW298254   1.362  -3.169  18.182
32083SOL     OW98255   7.269  11.389   0.658
32083SOL    HW198256  18.351  11.335 -10.449
32083SOL    HW298257   7.256   0.434   0.616
32084SOL     OW98258   6.669   5.905  -0.396
32084SOL    HW198259   6.703   5.987  10.679
32084SOL    HW298260   6.687  -5.130  -0.490
32085SOL     OW98261   3.556   6.111  10.491
32085SOL    HW198262 -29.553   6.073  21.618
32085SOL    HW298263   3.643   6.105  -0.586
32086SOL     OW98264   4.868   2.317   4.712
32086SOL    HW198265  15.915   2.324   4.617
32086SOL    HW298266  15.943  13.439 -28.374
32087SOL     OW98267   3.290   6.496   1.932
32087SOL    HW198268   3.351   6.441  12.921
32087SOL    HW298269   3.264  17.481  -9.034
32088SOL     OW98270   0.518   0.727  10.649
32088SOL    HW198271  22.541   0.715  10.573
32088SOL    HW298272   0.485 -10.233  10.690
32089SOL     OW98273   5.092   3.747   1.814
32089SOL    HW198274  -6.043   3.756  12.855
32089SOL    HW298275   5.111   3.679  -9.162
32090SOL     OW98276   0.354   4.817   1.744
32090SOL    HW198277   0.394 -17.181   1.713
32090SOL    HW298278  22.345   4.818   1.706
32091SOL     OW98279   8.475   1.958   4.303
32091SOL    HW198280  -2.639  -9.052  15.395
32091SOL    HW298281  -2.547   1.869  15.374
32092SOL     OW98282   1.426  10.347   0.669
32092SOL    HW198283  12.516  10.416   0.711
32092SOL    HW298284  23.562  10.312   0.601
32093SOL     OW98285   5.963   2.087   1.301
32093SOL    HW198286  -5.100   2.180  12.348
32093SOL    HW298287  16.961   2.058   1.220
32094SOL     OW98288   1.249   1.282   3.488
32094SOL    HW198289   1.195   1.245   3.419
32094SOL    HW298290   1.297  12.393  25.525
32095SOL     OW98291   6.405   7.372  11.319
32095SOL    HW198292  -4.677   7.293   0.247
32095SOL    HW298293   6.347   7.404   0.348
32096SOL     OW98294   0.182   8.704   9.114
32096SOL    HW198295   0.118   8.682   9.181
32096SOL    HW298296  33.328   8.619   9.078
32097SOL     OW98297   8.551   6.414   4.008
32097SOL    HW198298   8.566   6.381  25.999
32097SOL    HW298299   8.572   6.340   4.065
32098SOL     OW98300   4.807   7.086   0.678
32098SOL    HW198301   4.881   7.076   0.739
32098SOL    HW298302   4.733   7.045   0.723
32099SOL     OW98303   3.215   8.397   0.405
32099SOL    HW198304   3.148   8.465   0.396
32099SOL    HW298305   3.214   8.374   0.498
32100SOL     OW98306   5.773   3.200   2.203
32100SOL    HW198307  16.756   3.277   2.205
32100SOL    HW298308   5.783 -18.899   2.110
32101SOL     OW98309   4.284   6.996   7.640
32101SOL    HW198310  -6.809   6.988  18.758
32101SOL    HW298311   4.369   6.960   7.666
32102SOL     OW98312   3.732   5.924   2.323
32102SOL    HW198313   3.647  -5.116   2.366
32102SOL    HW298314 -18.284   5.913  -8.645
32103SOL     OW98315   9.638  10.730   4.493
32103SOL    HW198316   9.708  10.673   4.525
32103SOL    HW298317   9.673  10.818  26.580
32104SOL     OW98318   9.055   4.043   9.681
32104SOL    HW198319   9.015   3.988   9.613
32104SOL    HW298320   9.079   3.982  -1.290
32105SOL     OW98321   5.330  -1.055   9.519
32105SOL    HW198322  16.360  -0.961  20.571
32105SOL    HW298323   5.242  43.068   9.530
32106SOL     OW98324   0.662   8.957   4.452
32106SOL    HW198325  11.734  20.059  15.556
32106SOL    HW298326   0.694   8.872  15.523
32107SOL     OW98327   3.655   2.316   8.801
32107SOL    HW198328   3.635   2.224   8.820
32107SOL    HW298329  14.711  13.357   8.706
32108SOL     OW98330   9.078   6.203   5.551
32108SOL    HW198331 -12.957  28.326   5.478
32108SOL    HW298332   8.988   6.192   5.521
32109SOL     OW98333   1.542   7.589   4.375
32109SOL    HW198334   1.490 -14.444   4.440
32109SOL    HW298335  12.672  -3.438   4.403
32110SOL     OW98336   7.798   2.561   3.362
32110SOL    HW198337  18.830   2.630  14.335
32110SOL    HW298338  29.872   2.609   3.446
32111SOL     OW98339   1.086   6.822   5.042
32111SOL    HW198340   1.156   6.823 -17.102
32111SOL    HW298341   1.080   6.913  -5.968
32112SOL     OW98342   8.612   5.138   2.049
32112SOL    HW198343   8.605  -5.941   1.963
32112SOL    HW298344   8.556 -27.903   2.046
32113SOL     OW98345   7.546   5.722   6.015
32113SOL    HW198346   7.497   5.804   6.008
32113SOL    HW298347  -3.546   5.668   6.073
32114SOL     OW98348   0.541   6.984   5.429
32114SOL    HW198349   0.477  -4.082   5.494
32114SOL    HW298350   0.618   7.008  -5.559
32115SOL     OW98351   5.561  11.183   8.547
32115SOL    HW198352   5.549   0.237   8.532
32115SOL    HW298353  27.634  11.143   8.460
32116SOL     OW98354   9.387   8.275   2.366
32116SOL    HW198355   9.414   8.325  -8.750
32116SOL    HW298356   9.363   8.341  -8.609
32117SOL     OW98357   5.857   6.245   9.583
32117SOL    HW198358   5.787   6.211  -1.401
32117SOL    HW298359  16.856   6.256   9.497
32118SOL     OW98360   5.529  11.100   8.823
32118SOL    HW198361   5.573  11.016   8.838
32118SOL    HW298362  16.549   0.060   8.729
32119SOL     OW98363   5.347   7.553   6.917
32119SOL    HW198364   5.382 -14.482   6.840
32119SOL    HW298365 -16.664  -3.549   6.941
32120SOL     OW98366   4.241   0.212   3.876
32120SOL    HW198367   4.334   0.187   3.873
32120SOL    HW298368   4.195   0.129   3.882
32121SOL     OW98369  10.050   6.598  10.686
32121SOL    HW198370  10.041   6.688  10.656
32121SOL    HW298371 -12.056   6.601 -22.340
32122SOL     OW98372   1.843  -0.494   5.576
32122SOL    HW198373  12.912  10.507   5.659
32122SOL    HW298374   1.908  -0.522   5.512
32123SOL     OW98375   5.647   1.488   8.483
32123SOL    HW198376   5.580  -9.613   8.453
32123SOL    HW298377   5.651  23.553   8.577
32124SOL     OW98378   6.318   8.650   1.512
32124SOL    HW198379   6.375   8.597  -9.583
32124SOL    HW298380 -15.815   8.700  -9.589
32125SOL     OW98381   7.543   5.160   1.155
32125SOL    HW198382   7.543   5.080   1.207
32125SOL    HW298383 -14.445   5.170   1.126
32126SOL     OW98384  -0.051   3.258   2.510
32126SOL    HW198385  10.893 -18.825   2.519
32126SOL    HW298386  -0.021   3.170   2.535
32127SOL     OW98387   1.554   8.247  -0.023
32127SOL    HW198388   1.637  19.285  10.969
32127SOL    HW298389  12.557  19.199  -0.035
32128SOL     OW98390   8.343   7.416   4.615
32128SOL    HW198391   8.410   7.370  15.705
32128SOL    HW298392  19.300  18.428   4.655
32129SOL     OW98393   8.762   7.089   0.025
32129SOL    HW198394   8.855  18.145   0.013
32129SOL    HW298395   8.718   7.160  -0.022
32130SOL     OW98396   3.646   2.576   6.441
32130SOL    HW198397 -18.360   2.627   6.406
32130SOL    HW298398  -7.358   2.531  17.556
32131SOL     OW98399   7.155   6.838   2.333
32131SOL    HW198400 -37.040  17.847 -19.664
32131SOL    HW298401   7.082   6.880   2.287
32132SOL     OW98402   0.471   1.283   0.216
32132SOL    HW198403   0.485   1.370   0.254
32132SOL    HW298404   0.559   1.251   0.196
32133SOL     OW98405  -2.240   7.308   9.619
32133SOL    HW198406  41.908   7.352   9.535
32133SOL    HW298407  -2.280   7.222   9.607
32134SOL     OW98408   3.138   1.365   4.603
32134SOL    HW198409   3.213  -9.639   4.556
32134SOL    HW298410   3.139   1.271   4.583
32135SOL     OW98411   1.011   8.584   7.409
32135SOL    HW198412   0.936   8.626  51.525
32135SOL    HW298413   0.995  19.636   7.503
32136SOL     OW98414  10.928  11.025   7.715
32136SOL    HW198415 -22.204  10.937   7.681
32136SOL    HW298416  -0.192  11.044   7.764
32137SOL     OW98417   3.162  10.247   3.802
32137SOL    HW198418   3.199  10.160  25.896
32137SOL    HW298419   3.114  10.239  14.759
32138SOL     OW98420   2.312   5.730   0.787
32138SOL    HW198421  24.452   5.796   0.754
32138SOL    HW298422  13.334   5.756   0.878
32139SOL     OW98423   2.832  11.744  10.158
32139SOL    HW198424   2.863 -10.274  10.224
32139SOL    HW298425   2.752  11.783  10.124
32140SOL     OW98426   4.444   6.199   2.085
32140SOL    HW198427   4.409   6.254   2.015
32140SOL    HW298428   4.514   6.251   2.124
32141SOL     OW98429  -0.463   3.287   2.424
32141SOL    HW198430  -0.505   3.372   2.435
32141SOL    HW298431  32.729  14.328  -8.555
32142SOL     OW98432   4.345   8.321   1.024
32142SOL    HW198433   4.378   8.410   1.036
32142SOL    HW298434   4.402  19.306   1.078
32143SOL     OW98435   9.041   5.870   3.232
32143SOL    HW198436   9.135  16.896 -29.873
32143SOL    HW298437  20.041   5.850   3.317
32144SOL     OW98438   2.858   7.971   8.697
32144SOL    HW198439  -8.178  -3.123   8.776
32144SOL    HW298440 -19.224   8.061  -2.308
32145SOL     OW98441   4.820   8.002   4.879
32145SOL    HW198442  -6.145   8.053 -17.170
32145SOL    HW298443   4.857   7.941   4.815
32146SOL     OW98444  11.035   2.226   8.065
32146SOL    HW198445  11.021   2.141   8.023
32146SOL    HW298446  11.060  13.244   8.155
32147SOL     OW98447   6.876   7.871   4.507
32147SOL    HW198448   6.900   7.962  26.605
32147SOL    HW298449  -4.095   7.840   4.448
32148SOL     OW98450  11.909   3.783   0.574
32148SOL    HW198451  11.834   3.758   0.521
32148SOL    HW298452 -21.134   3.766   0.518
32149SOL     OW98453   8.519   2.962  11.384
32149SOL    HW198454  19.473   2.962  11.427
32149SOL    HW298455   8.580   2.939   0.414
32150SOL     OW98456   0.592  10.044  10.841
32150SOL    HW198457   0.639   9.975  21.927
32150SOL    HW298458   0.598  10.121  -0.142
32151SOL     OW98459   3.683   7.020   8.016
32151SOL    HW198460   3.752   6.966   8.055
32151SOL    HW298461 -18.476  -4.070  19.069
32152SOL     OW98462   9.486   7.666   0.789
32152SOL    HW198463   9.536   7.639   0.867
32152SOL    HW298464   9.464   7.583   0.746
32153SOL     OW98465   8.998   6.282   1.410
32153SOL    HW198466   9.005  -4.839   1.460
32153SOL    HW298467   9.085   6.295   1.373
32154SOL     OW98468   5.680  10.719   9.604
32154SOL    HW198469   5.612  10.661   9.570
32154SOL    HW298470   5.714  10.764  -1.512
32155SOL     OW98471   0.267   7.090  -1.388
32155SOL    HW198472   0.325   7.038  -1.332
32155SOL    HW298473  11.308   7.044  31.646
32156SOL     OW98474   1.975   4.339   0.887
32156SOL    HW198475   1.934   4.405  11.982
32156SOL    HW298476  24.148  -6.683   0.895
32157SOL     OW98477   4.848   0.577   5.596
32157SOL    HW198478   4.795   0.508  16.596
32157SOL    HW298479  15.829   0.653   5.598
32158SOL     OW98480   3.298   1.405   3.419
32158SOL    HW198481   3.304   1.416   3.514
32158SOL    HW298482  25.361   1.311   3.407
32159SOL     OW98483   3.244   8.612  -0.415
32159SOL    HW198484 -29.942   8.550  -0.444
32159SOL    HW298485  25.404  19.600  54.785
32160SOL     OW98486   8.272   6.387   7.137
32160SOL    HW198487   8.256   6.360   7.227
32160SOL    HW298488  19.248  28.416 -14.994
32161SOL     OW98489  10.282   9.662   8.447
32161SOL    HW198490  -0.743   9.601   8.519
32161SOL    HW298491  10.329   9.741   8.472
32162SOL     OW98492   0.971   7.704   1.011
32162SOL    HW198493  34.068  -3.246   0.986
32162SOL    HW298494   0.998  29.741   0.930
32163SOL     OW98495  10.125   1.107  10.593
32163SOL    HW198496  10.036  12.163  10.560
32163SOL    HW298497  10.160  -9.998  10.533
32164SOL     OW98498   4.471   2.684   4.380
32164SOL    HW198499   4.545  35.815  -6.600
32164SOL    HW298500   4.457  13.811   4.342
32165SOL     OW98501  -0.441   4.796   9.231
32165SOL    HW198502  -0.433   4.891   9.227
32165SOL    HW298503  21.575   4.773   9.163
32166SOL     OW98504   7.408  10.059   1.661
32166SOL    HW198505  40.437  10.034  12.679
32166SOL    HW298506   7.417  10.148   1.626
32167SOL     OW98507   8.831   6.099   3.982
32167SOL    HW198508   8.904   6.092 -18.035
32167SOL    HW298509   8.772   6.028 -18.073
32168SOL     OW98510   9.307   7.127   7.282
32168SOL    HW198511   9.332   7.065   7.350
32168SOL    HW298512  -1.788   7.191  18.366
32169SOL     OW98513   7.835  10.313   6.888
32169SOL    HW198514   7.818 -11.791   6.979
32169SOL    HW298515  18.910  10.402   6.895
32170SOL     OW98516  10.659   2.429   2.553
32170SOL    HW198517  10.724   2.412  -8.418
32170SOL    HW298518  10.697  24.579   2.501
32171SOL     OW98519   8.792   9.918   5.723
32171SOL    HW198520   8.835  10.003  16.753
32171SOL    HW298521   8.719   9.921   5.661
32172SOL     OW98522   2.075   3.605   9.049
32172SOL    HW198523  -9.038  -7.375   9.034
32172SOL    HW298524   2.088   3.605   9.143
32173SOL     OW98525   4.242   6.992   1.706
32173SOL    HW198526 -17.796   6.907  12.764
32173SOL    HW298527 -17.773  -3.984  23.816
32174SOL     OW98528   3.978   3.424   7.350
32174SOL    HW198529  26.107   3.422   7.268
32174SOL    HW298530   3.893   3.386   7.327
32175SOL     OW98531   9.022   4.242   7.083
32175SOL    HW198532   8.959 -17.902   7.116
32175SOL    HW298533   8.970 -17.782  18.063
32176SOL     OW98534  -0.603   7.783   8.556
32176SOL    HW198535  32.434  -3.274   8.604
32176SOL    HW298536  10.491   7.832  30.698
32177SOL     OW98537   1.742   8.377   7.881
32177SOL    HW198538   1.750   8.405   7.972
32177SOL    HW298539  12.869   8.390   7.845
32178SOL     OW98540   5.090   3.819  10.674
32178SOL    HW198541   5.163   3.761  10.657
32178SOL    HW298542   5.089   3.881  10.601
32179SOL     OW98543   5.751   1.725   8.611
32179SOL    HW198544  16.701   1.722   8.644
32179SOL    HW298545   5.754  12.697 -24.575
32180SOL     OW98546   4.353   4.926   0.608
32180SOL    HW198547   4.409   4.974   0.669
32180SOL    HW298548 -17.772   4.862   0.662
32181SOL     OW98549   3.221   9.170   4.226
32181SOL    HW198550   3.245  -1.939   4.165
32181SOL    HW298551  14.345   9.203   4.259
32182SOL     OW98552   7.936   4.552   2.386
32182SOL    HW198553   7.963   4.606   2.312
32182SOL    HW298554  18.917   4.607  -8.603
32183SOL     OW98555   9.999   1.764   2.955
32183SOL    HW198556  10.017   1.857  14.009
32183SOL    HW298557  10.078  12.759   2.983
32184SOL     OW98558   7.794   7.138   6.573
32184SOL    HW198559   7.884   7.110  28.672
32184SOL    HW298560   7.804   7.228   6.543
32185SOL     OW98561   7.293   6.958   5.065
32185SOL    HW198562 -14.871 -15.078   5.051
32185SOL    HW298563   7.275  -4.175   5.055
32186SOL     OW98564   4.011   4.618  10.844
32186SOL    HW198565   4.059  15.611 -11.166
32186SOL    HW298566   3.979   4.698  10.887
32187SOL     OW98567   8.596   7.561   5.424
32187SOL    HW198568   8.659   7.551   5.353
32187SOL    HW298569  19.590  18.517  -5.611
32188SOL     OW98570   9.131  12.111  10.298
32188SOL    HW198571   9.074  12.051  10.347
32188SOL    HW298572   9.084 -43.004  10.298
32189SOL     OW98573  10.233   1.615   5.172
32189SOL    HW198574  -0.828  23.601   5.172
32189SOL    HW298575  10.181 -20.427 -16.835
32190SOL     OW98576   2.556   7.122   5.227
32190SOL    HW198577   2.590   7.035   5.208
32190SOL    HW298578   2.609  -3.858   5.173
32191SOL     OW98579   2.715   1.490   4.876
32191SOL    HW198580   2.769  12.600   4.911
32191SOL    HW298581 -30.423   1.434   4.951
32192SOL     OW98582   9.147  12.425   2.158
32192SOL    HW198583  20.146  -9.588   2.215
32192SOL    HW298584   9.180  -9.605   2.084
32193SOL     OW98585   7.783   0.844   4.895
32193SOL    HW198586   7.754   0.933   4.915
32193SOL    HW298587   7.722   0.813   4.828
32194SOL     OW98588   1.897   1.345   4.985
32194SOL    HW198589  -9.069   1.375   4.931
32194SOL    HW298590   1.827   1.327   4.922
32195SOL     OW98591   3.666   8.710   0.212
32195SOL    HW198592   3.739   8.723   0.271
32195SOL    HW298593  36.824   8.711  11.164
32196SOL     OW98594   2.877   6.942   5.290
32196SOL    HW198595   2.908   6.869  16.276
32196SOL    HW298596  -8.091   7.005   5.288
32197SOL     OW98597   1.523   8.908   5.851
32197SOL    HW198598  12.586  -2.086   5.931
32197SOL    HW298599   1.443   8.953   5.821
32198SOL     OW98600   6.177   8.539   7.788
32198SOL    HW198601   6.187   8.457   7.838
32198SOL    HW298602  17.266   8.604   7.839
32199SOL     OW98603   2.681   1.706   0.795
32199SOL    HW198604   2.679   1.677  11.743
32199SOL    HW298605   2.773   1.700  11.860
32200SOL     OW98606   6.998   2.154   6.685
32200SOL    HW198607  18.060   2.100   6.609
32200SOL    HW298608   6.920   2.202  -4.382
32201SOL     OW98609   6.168  11.689   3.975
32201SOL    HW198610   6.124 -10.448  14.952
32201SOL    HW298611   6.213  11.754  -7.119
32202SOL     OW98612   7.707   3.649   1.196
32202SOL    HW198613   7.764   3.616  12.305
32202SOL    HW298614  -3.286   3.627 -20.964
32203SOL     OW98615   7.593   9.184   1.100
32203SOL    HW198616   7.590   9.102   1.049
32203SOL    HW298617  18.667  20.197  -9.854
32204SOL     OW98618   9.272   8.824  10.616
32204SOL    HW198619   9.345   8.845  10.558
32204SOL    HW298620   9.211  19.815  10.561
32205SOL     OW98621  10.691  -0.045   9.833
32205SOL    HW198622  10.662  -0.125   9.789
32205SOL    HW298623  10.782  10.978   9.857
32206SOL     OW98624   7.675   8.460   2.152
32206SOL    HW198625  18.691   8.520   2.223
32206SOL    HW298626 -14.319   8.492  13.161
32207SOL     OW98627   1.162   0.229   3.087
32207SOL    HW198628  -9.837  11.334   3.030
32207SOL    HW298629   1.097   0.277   3.138
32208SOL     OW98630   6.223   2.539   5.330
32208SOL    HW198631  28.332   2.623  16.403
32208SOL    HW298632   6.301  24.562 -16.747
32209SOL     OW98633   4.651   9.722   0.822
32209SOL    HW198634  15.751 -12.283   0.829
32209SOL    HW298635  15.721   9.672  44.905
32210SOL     OW98636   9.071   7.134   0.642
32210SOL    HW198637   9.020  40.311   0.698
32210SOL    HW298638   9.117   7.077   0.702
32211SOL     OW98639   6.373   9.121   4.696
32211SOL    HW198640   6.340   9.201   4.735
32211SOL    HW298641  -4.603   9.087   4.759
32212SOL     OW98642   7.841   5.008   4.215
32212SOL    HW198643   7.748  27.066   4.202
32212SOL    HW298644   7.844   5.046  -6.737
32213SOL     OW98645   9.793   0.163   8.199
32213SOL    HW198646   9.857   0.095   8.179
32213SOL    HW298647   9.711   0.130   8.161
32214SOL     OW98648   8.601   6.183   4.676
32214SOL    HW198649   8.660  -4.877 -28.369
32214SOL    HW298650  19.697   6.182   4.599
32215SOL     OW98651   3.286   1.032   4.828
32215SOL    HW198652   3.373   1.043   4.866
32215SOL    HW298653   3.237   0.985  15.935
32216SOL     OW98654   7.065   7.275   1.481
32216SOL    HW198655   7.010   7.352  12.508
32216SOL    HW298656   7.102   7.285   1.568
32217SOL     OW98657   3.919   7.362   4.346
32217SOL    HW198658  15.042   7.357  15.433
32217SOL    HW298659 -18.190   7.452   4.362
32218SOL     OW98660  -1.074   5.024  10.401
32218SOL    HW198661  43.106   5.003  10.311
32218SOL    HW298662  54.139  27.022  21.489
32219SOL     OW98663  10.161  10.917   6.685
32219SOL    HW198664  -0.944  10.886   6.622
32219SOL    HW298665  21.281 -22.196  17.674
32220SOL     OW98666   2.084  10.856   7.136
32220SOL    HW198667   2.047  -0.097   7.122
32220SOL    HW298668 -20.008  -0.229  29.132
32221SOL     OW98669   3.148   6.987   5.476
32221SOL    HW198670  14.164   7.050  -5.632
32221SOL    HW298671   3.158   6.904   5.431
32222SOL     OW98672   4.152   8.376  11.318
32222SOL    HW198673 -17.982  19.494  11.318
32222SOL    HW298674   4.138   8.336 -10.675
32223SOL     OW98675   1.304   4.330   2.754
32223SOL    HW198676 -20.696   4.383   2.742
32223SOL    HW298677   1.315   4.289   2.839
32224SOL     OW98678  10.890   1.247   3.641
32224SOL    HW198679  10.921  -9.702  -7.396
32224SOL    HW298680  10.816   1.245   3.702
32225SOL     OW98681  10.336   3.756   2.393
32225SOL    HW198682  10.351   3.735 -19.778
32225SOL    HW298683  21.392   3.850   2.399
32226SOL     OW98684   3.261   6.107   8.674
32226SOL    HW198685   3.321   6.045   8.632
32226SOL    HW298686   3.317   6.180   8.700
32227SOL     OW98687  10.297   9.443   8.618
32227SOL    HW198688  -0.821   9.389   8.616
32227SOL    HW298689  10.368   9.381   8.634
32228SOL     OW98690   3.833   0.552  -0.365
32228SOL    HW198691   3.866   0.546  -0.455
32228SOL    HW298692   3.742   0.522  21.709
32229SOL     OW98693   4.074   3.606   4.322
32229SOL    HW198694   4.162   3.636   4.298
32229SOL    HW298695   4.022  25.696   4.242
32230SOL     OW98696   0.482   0.137  -0.724
32230SOL    HW198697  11.487   0.134  10.227
32230SOL    HW298698   0.415   0.094  32.448
32231SOL     OW98699   8.710   8.855   3.624
32231SOL    HW198700   8.669   8.898   3.550
32231SOL    HW298701 -13.394   8.908   3.700
32232SOL     OW98702   9.392   1.850  11.334
32232SOL    HW198703  -1.633  23.992  11.404
32232SOL    HW298704  -1.577   1.869   0.231
32233SOL     OW98705  10.305   6.391   3.505
32233SOL    HW198706  10.304   6.419   3.596
32233SOL    HW298707  10.357   6.311  14.544
32234SOL     OW98708   0.236   6.071   8.627
32234SOL    HW198709  11.328   6.138   8.672
32234SOL    HW298710   0.157   6.064   8.680
32235SOL     OW98711   4.102  -0.825  -0.011
32235SOL    HW198712   4.046  10.186  10.956
32235SOL    HW298713  -6.931  10.137   0.045
32236SOL     OW98714   1.708   8.397  -0.575
32236SOL    HW198715   1.711  -2.682  10.377
32236SOL    HW298716   1.646   8.468  21.496
32237SOL     OW98717  10.763   6.007   7.602
32237SOL    HW198718  21.708  -5.036   7.619
32237SOL    HW298719  -0.255   5.920 -25.548
32238SOL     OW98720   1.280   8.462   5.018
32238SOL    HW198721  12.357 -13.560   5.085
32238SOL    HW298722 -20.781  -2.666   5.049
32239SOL     OW98723   0.633   6.325   0.970
32239SOL    HW198724   0.552 -15.805   0.961
32239SOL    HW298725   0.693 -26.835   0.908
32240SOL     OW98726   8.102   7.400   0.888
32240SOL    HW198727   8.029   7.350   0.851
32240SOL    HW298728   8.173   7.336   0.897
32241SOL     OW98729   1.943   2.561   3.255
32241SOL    HW198730   2.018  68.825   3.307
32241SOL    HW298731   1.880  24.607   3.320
32242SOL     OW98732   0.322   7.421   3.070
32242SOL    HW198733   0.238   7.394 -19.048
32242SOL    HW298734   0.383   7.351  -7.991
32243SOL     OW98735   6.626   9.989   3.215
32243SOL    HW198736   6.555   9.946   3.167
32243SOL    HW298737   6.587  10.068   3.252
32244SOL     OW98738   1.682   1.916   2.854
32244SOL    HW198739  -9.264   1.903   2.867
32244SOL    HW298740   1.674   1.944   2.762
32245SOL     OW98741   4.332   8.131   8.640
32245SOL    HW198742  26.420   8.217   8.599
32245SOL    HW298743   4.409   8.082   8.611
32246SOL     OW98744   7.252   4.479   7.048
32246SOL    HW198745   7.310   4.536   7.099
32246SOL    HW298746   7.243  15.563   6.964
32247SOL     OW98747   3.327   9.197   0.703
32247SOL    HW198748   3.280   9.280   0.703
32247SOL    HW298749   3.387   9.204   0.777
32248SOL     OW98750   9.107  13.616   4.710
32248SOL    HW198751  20.124 -19.569  -6.395
32248SOL    HW298752   9.026  -8.414   4.724
32249SOL     OW98753   7.892  10.656   8.608
32249SOL    HW198754   7.862  10.566   8.599
32249SOL    HW298755  18.860  10.701   8.652
32250SOL     OW98756   8.866   8.752   7.449
32250SOL    HW198757   8.887   8.842   7.473
32250SOL    HW298758   8.947   8.703   7.466
32251SOL     OW98759   3.452   4.514   2.022
32251SOL    HW198760   3.493   4.438   2.063
32251SOL    HW298761  14.529   4.518   1.934
32252SOL     OW98762   6.098   7.743   1.723
32252SOL    HW198763   6.024  18.821 -20.309
32252SOL    HW298764  17.106   7.659   1.691
32253SOL     OW98765   1.717  -1.999   8.540
32253SOL    HW198766   1.760  20.055   8.458
32253SOL    HW298767   1.623  20.072  -2.519
32254SOL     OW98768   8.957   8.673   4.335
32254SOL    HW198769   8.868  19.682  -6.720
32254SOL    HW298770   8.950   8.731   4.412
32255SOL     OW98771   7.680   2.254   2.655
32255SOL    HW198772   7.700   2.282  -8.295
32255SOL    HW298773   7.693   2.159   2.656
32256SOL     OW98774   2.930   3.029   9.870
32256SOL    HW198775   2.851  25.159  -1.185
32256SOL    HW298776   2.946  -8.056   9.787
32257SOL     OW98777  -1.451   3.267   6.980
32257SOL    HW198778  -1.525   3.320   6.952
32257SOL    HW298779  42.779   3.294   6.923
32258SOL     OW98780   7.213   0.886   3.180
32258SOL    HW198781  -3.911   0.868  14.259
32258SOL    HW298782  29.356   0.849   3.241
32259SOL     OW98783   1.905   9.281   7.023
32259SOL    HW198784   1.854  20.254  18.017
32259SOL    HW298785   1.839   9.342  -3.981
32260SOL     OW98786   4.790   5.352   1.927
32260SOL    HW198787   4.718   5.397  24.051
32260SOL    HW298788   4.824  -5.622   1.866
32261SOL     OW98789   2.942   0.895   4.786
32261SOL    HW198790  47.123   0.818   4.734
32261SOL    HW298791   2.848 -10.132  -6.269
32262SOL     OW98792   5.713   7.571   8.897
32262SOL    HW198793   5.670   7.528  19.863
32262SOL    HW298794   5.779  18.547   8.927
32263SOL     OW98795   6.216   1.764   4.049
32263SOL    HW198796  17.341   1.774   4.092
32263SOL    HW298797  -4.841   1.850 -18.068
32264SOL     OW98798   4.516   8.357   6.745
32264SOL    HW198799   4.422   8.344   6.733
32264SOL    HW298800   4.529   8.352   6.840
32265SOL     OW98801   3.957   3.379   4.891
32265SOL    HW198802   3.951  14.403   4.986
32265SOL    HW298803  -7.105  14.511   4.881
32266SOL     OW98804   7.763   3.214   9.297
32266SOL    HW198805  29.929  -7.791   9.320
32266SOL    HW298806  18.819  14.196  31.301
32267SOL     OW98807   5.113   3.459   3.341
32267SOL    HW198808   5.166   3.534   3.313
32267SOL    HW298809   5.106   3.468   3.436
32268SOL     OW98810   4.594  10.815   0.853
32268SOL    HW198811   4.668  10.873   0.871
32268SOL    HW298812 -17.545  10.867   0.801
32269SOL     OW98813   8.363   3.176   4.859
32269SOL    HW198814  19.451   3.138   4.933
32269SOL    HW298815  19.390   3.103   4.799
32270SOL     OW98816   1.793   6.520   6.531
32270SOL    HW198817   1.746  28.550   6.464
32270SOL    HW298818   1.725  39.670   6.591
32271SOL     OW98819   8.742  10.408   9.915
32271SOL    HW198820   8.693  10.362   9.847
32271SOL    HW298821  -2.349  10.487  20.972
32272SOL     OW98822   1.677  10.805   6.056
32272SOL    HW198823   1.756  -0.269  28.178
32272SOL    HW298824   1.696  10.797  17.002
32273SOL     OW98825   7.351   1.749   2.649
32273SOL    HW198826   7.379  12.719   2.709
32273SOL    HW298827   7.433 -20.294   2.614
32274SOL     OW98828   7.901   4.144   8.004
32274SOL    HW198829   7.979   4.121   7.954
32274SOL    HW298830   7.870   4.225   7.965
32275SOL     OW98831   7.344   3.770   2.811
32275SOL    HW198832  -3.725  36.943   2.883
32275SOL    HW298833   7.440   3.769   2.819
32276SOL     OW98834   9.009   2.023  10.611
32276SOL    HW198835   9.096   2.060  -0.417
32276SOL    HW298836   8.951   2.081  10.661
32277SOL     OW98837   8.640   5.436   6.561
32277SOL    HW198838  -2.465   5.371 -15.542
32277SOL    HW298839   8.700   5.439   6.487
32278SOL     OW98840   2.092   6.972  -1.232
32278SOL    HW198841   2.026   6.912   9.842
32278SOL    HW298842   2.080  -3.987   9.857
32279SOL     OW98843   9.333   3.584   0.168
32279SOL    HW198844   9.272   3.605   0.098
32279SOL    HW298845   9.357   3.668   0.206
32280SOL     OW98846   5.103   3.681   6.446
32280SOL    HW198847   5.099  14.626   6.463
32280SOL    HW298848   5.028 -18.381  -4.650
32281SOL     OW98849   1.595   6.750   4.270
32281SOL    HW198850   1.576  17.787   4.364
32281SOL    HW298851   1.516   6.786   4.230
32282SOL     OW98852   6.530   8.233   5.507
32282SOL    HW198853  -4.461   8.162   5.464
32282SOL    HW298854   6.490   8.191 -16.496
32283SOL     OW98855   6.191   6.758   8.198
32283SOL    HW198856  17.168  -4.332   8.146
32283SOL    HW298857   6.245   6.692   8.242
32284SOL     OW98858   7.324   0.316   7.652
32284SOL    HW198859  -3.782   0.287   7.590
32284SOL    HW298860   7.367   0.389  18.647
32285SOL     OW98861   6.240   7.887   4.024
32285SOL    HW198862   6.194  18.879   4.094
32285SOL    HW298863   6.316   7.833   4.004
32286SOL     OW98864  -0.781   5.979   0.910
32286SOL    HW198865  -0.811   6.041   0.976
32286SOL    HW298866  43.304   5.918   0.900
32287SOL     OW98867   1.287   6.512   8.819
32287SOL    HW198868   1.343  17.625   8.845
32287SOL    HW298869   1.265   6.531  30.807
32288SOL     OW98870   0.192   3.597   3.365
32288SOL    HW198871   0.243   3.520  25.469
32288SOL    HW298872  11.167   3.607   3.435
32289SOL     OW98873  10.839   6.378   3.211
32289SOL    HW198874 -22.246   6.291   3.233
32289SOL    HW298875  -0.252   6.404 -29.831
32290SOL     OW98876   9.369   1.556   3.427
32290SOL    HW198877   9.318   1.479  14.491
32290SOL    HW298878   9.330   1.627   3.477
32291SOL     OW98879   7.689   8.723  -1.462
32291SOL    HW198880   7.701 -13.276  31.706
32291SOL    HW298881  40.843   8.654  -1.405
32292SOL     OW98882   9.532  11.273   4.182
32292SOL    HW198883  20.650  11.325   4.197
32292SOL    HW298884   9.517   0.240 -51.110
32293SOL     OW98885   3.704   6.418   9.179
32293SOL    HW198886   3.704   6.496   9.123
32293SOL    HW298887  14.817   6.431   9.239
32294SOL     OW98888   5.203   8.054   2.732
32294SOL    HW198889  16.338   8.049   2.736
32294SOL    HW298890  27.264   8.138   2.690
32295SOL     OW98891   8.372   5.844   8.201
32295SOL    HW198892  19.493  16.935   8.196
32295SOL    HW298893   8.389   5.779   8.269
32296SOL     OW98894   5.148   8.837   7.361
32296SOL    HW198895   5.194  19.957  -3.654
32296SOL    HW298896   5.201   8.800  -3.749
32297SOL     OW98897   4.524   2.719   0.301
32297SOL    HW198898   4.615   2.691   0.293
32297SOL    HW298899  -6.511   2.801   0.352
32298SOL     OW98900   6.803   6.742   4.532
32298SOL    HW198901   6.727  17.753  -6.458
32298SOL    HW298902   6.786   6.712   4.442
32299SOL     OW98903   9.177   2.460   9.798
32299SOL    HW198904   9.086  -8.557   9.777
32299SOL    HW298905   9.177 -19.714   9.804
32300SOL     OW98906  11.175   1.395   1.365
32300SOL    HW198907  11.133  23.389   1.378
32300SOL    HW298908   0.177  34.507   1.279
32301SOL     OW98909   4.395   3.538   7.794
32301SOL    HW198910   4.344 -18.581   7.723
32301SOL    HW298911  15.506  -7.563 -36.348
32302SOL     OW98912  -0.309   5.596   2.983
32302SOL    HW198913  10.647   5.620   2.942
32302SOL    HW298914  -0.245   5.655   2.943
32303SOL     OW98915  10.672   6.780   4.584
32303SOL    HW198916  -0.374  39.811   4.547
32303SOL    HW298917  10.763   6.787   4.615
32304SOL     OW98918   0.971   6.176  -1.083
32304SOL    HW198919   1.037   6.107   9.947
32304SOL    HW298920   0.903 -15.926  20.933
32305SOL     OW98921   9.554   5.553   4.211
32305SOL    HW198922   9.590   5.465 -39.956
32305SOL    HW298923  -1.429   5.607  -6.884
32306SOL     OW98924   1.990   1.690   2.313
32306SOL    HW198925   1.958   1.669 -19.853
32306SOL    HW298926   1.941   1.633   2.372
32307SOL     OW98927   8.408   0.359   4.021
32307SOL    HW198928   8.448   0.329  -6.937
32307SOL    HW298929   8.354   0.433   4.046
32308SOL     OW98930   2.811  11.095   1.654
32308SOL    HW198931  -8.288  -0.020   1.646
32308SOL    HW298932   2.875  11.067  12.759
32309SOL     OW98933   1.590   2.932   5.161
32309SOL    HW198934   1.638  24.991   5.081
32309SOL    HW298935   1.518  13.908   5.163
32310SOL     OW98936   3.362   8.493   4.119
32310SOL    HW198937 -18.676   8.510 -18.045
32310SOL    HW298938   3.381  41.519   4.136
32311SOL     OW98939   5.110   3.958   4.024
32311SOL    HW198940   5.069 -18.057  -7.073
32311SOL    HW298941   5.152  14.936   3.964
32312SOL     OW98942   7.056   7.060   7.383
32312SOL    HW198943   7.039  -3.969   7.290
32312SOL    HW298944   7.044   6.967   7.399
32313SOL     OW98945   7.254  -0.888   5.891
32313SOL    HW198946   7.270  21.163   5.981
32313SOL    HW298947   7.324  -0.826  27.951
32314SOL     OW98948   3.757   9.043   9.731
32314SOL    HW198949   3.712  -2.074 -23.356
32314SOL    HW298950   3.777   9.094 -23.309
32315SOL     OW98951   2.521   5.880   1.159
32315SOL    HW198952  13.597   5.852 -21.004
32315SOL    HW298953   2.589  -5.103  12.236
32316SOL     OW98954   3.947   3.889   8.364
32316SOL    HW198955  14.908  25.950   8.415
32316SOL    HW298956   3.921  25.952   8.273
32317SOL     OW98957   8.265   7.496   7.188
32317SOL    HW198958   8.266   7.415   7.238
32317SOL    HW298959   8.177   7.500  -3.889
32318SOL     OW98960   1.071   1.912   8.772
32318SOL    HW198961  -9.918   1.857   8.713
32318SOL    HW298962   0.988   1.925   8.726
32319SOL     OW98963   9.985   0.807  11.225
32319SOL    HW198964   9.970   0.802  11.319
32319SOL    HW298965  10.080   0.813 -10.864
32320SOL     OW98966   9.634   6.359   3.173
32320SOL    HW198967   9.700  -4.618   3.143
32320SOL    HW298968  20.594   6.383   3.125
32321SOL     OW98969   4.433   4.266   6.164
32321SOL    HW198970   4.386   4.341  17.241
32321SOL    HW298971   4.519  15.307   6.208
32322SOL     OW98972   5.776   4.677   8.715
32322SOL    HW198973   5.728 -17.482   8.738
32322SOL    HW298974   5.827   4.697   8.794
32323SOL     OW98975   9.260   8.609   2.222
32323SOL    HW198976  31.338   8.703  13.279
32323SOL    HW298977   9.353   8.586  -8.821
32324SOL     OW98978  -0.183   2.158  11.066
32324SOL    HW198979  21.917   2.251   0.032
32324SOL    HW298980  21.955   2.125  10.998
32325SOL     OW98981   2.259   4.638   4.226
32325SOL    HW198982   2.204   4.571 -17.814
32325SOL    HW298983   2.202   4.714   4.217
32326SOL     OW98984   8.490   1.795   7.913
32326SOL    HW198985   8.468   1.718  -3.179
32326SOL    HW298986   8.544  12.800   7.984
32327SOL     OW98987   4.625   8.926  11.291
32327SOL    HW198988   4.569   8.872 -10.844
32327SOL    HW298989 -28.405  -2.131  11.260
32328SOL     OW98990   3.340   5.743   8.878
32328SOL    HW198991   3.245   5.749   8.890
32328SOL    HW298992   3.357  -5.253   8.795
32329SOL     OW98993   9.033   8.408   7.586
32329SOL    HW198994   9.073   8.343   7.644
32329SOL    HW298995  20.060   8.485  -3.398
32330SOL     OW98996   3.781   4.667   2.243
32330SOL    HW198997  -7.281  15.798  24.339
32330SOL    HW298998   3.852  15.687   2.304
32331SOL     OW98999  -1.037   2.513  10.332
32331SOL    HW199000  -1.093   2.582  10.369
32331SOL    HW299001  43.204 -19.521  10.313
32332SOL     OW99002   3.604   0.955   1.711
32332SOL    HW199003   3.647   1.021   1.767
32332SOL    HW299004 -18.452   0.871   1.751
32333SOL     OW99005   2.985   7.506  10.660
32333SOL    HW199006  13.963   7.452  10.611
32333SOL    HW299007  14.051   7.575  10.599
32334SOL     OW99008   5.346   8.984   1.956
32334SOL    HW199009   5.253   8.965   1.944
32334SOL    HW299010  27.464   8.967   1.870
32335SOL     OW99011   2.145   0.360   3.328
32335SOL    HW199012   2.062 -10.634   3.311
32335SOL    HW299013   2.199  11.419   3.251
32336SOL     OW99014   9.530   0.792   6.372
32336SOL    HW199015 -12.476  11.845   6.431
32336SOL    HW299016   9.453   0.816   6.423
32337SOL     OW99017  10.258   4.271  10.720
32337SOL    HW199018  21.355   4.196  -0.303
32337SOL    HW299019  10.173  -6.808  10.702
32338SOL     OW99020   6.631   2.810   5.678
32338SOL    HW199021 -15.472   2.901 -16.419
32338SOL    HW299022   6.547   2.764   5.683
32339SOL     OW99023   2.395  10.392   9.680
32339SOL    HW199024  46.600 -11.760   9.639
32339SOL    HW299025   2.429  10.470  -1.404
32340SOL     OW99026  10.165   6.952   5.273
32340SOL    HW199027  10.207   7.000  27.280
32340SOL    HW299028  10.228  29.037   5.345
32341SOL     OW99029   8.975   0.966  -0.521
32341SOL    HW199030   8.924   1.036  -0.479
32341SOL    HW299031  -2.131   0.908  10.482
32342SOL     OW99032   2.027   8.728   0.760
32342SOL    HW199033   2.027   8.802  11.740
32342SOL    HW299034  13.139  19.713   0.730
32343SOL     OW99035  11.882   7.016   8.213
32343SOL    HW199036 -10.176   6.951   8.281
32343SOL    HW299037  11.958   7.073   8.210
32344SOL     OW99038   6.757  12.005   1.497
32344SOL    HW199039  -4.370 -10.060  -9.507
32344SOL    HW299040   6.767  12.072   1.430
32345SOL     OW99041   4.008   3.293   2.642
32345SOL    HW199042  -7.098  25.329  35.815
32345SOL    HW299043   4.039   3.225   2.583
32346SOL     OW99044  10.220  10.052   4.034
32346SOL    HW199045  10.155  10.090   4.094
32346SOL    HW299046  -0.860  10.057   3.948
32347SOL     OW99047   2.761   0.036   0.035
32347SOL    HW199048   2.685   0.078   0.075
32347SOL    HW299049   2.811  11.041   0.109
32348SOL     OW99050   9.053   7.555   4.612
32348SOL    HW199051   9.018  -3.396 -17.453
32348SOL    HW299052   9.124   7.568  15.588
32349SOL     OW99053   6.615   3.886   2.540
32349SOL    HW199054  -4.373   3.876  -8.580
32349SOL    HW299055   6.529 -29.204  -8.530
32350SOL     OW99056   5.324   1.429   1.882
32350SOL    HW199057   5.250   1.368   1.880
32350SOL    HW299058   5.332   1.459   1.791
32351SOL     OW99059   6.612   8.010   8.615
32351SOL    HW199060 -15.500 -14.037  19.570
32351SOL    HW299061   6.684   7.952   8.592
32352SOL     OW99062  10.985   3.469   1.073
32352SOL    HW199063  10.955  -7.567   0.982
32352SOL    HW299064  11.072  -7.531   1.072
32353SOL     OW99065   6.005   3.862   8.487
32353SOL    HW199066   5.940   3.933   8.487
32353SOL    HW299067   5.953   3.783   8.499
32354SOL     OW99068   1.164   7.266   8.577
32354SOL    HW199069  23.335   7.239   8.570
32354SOL    HW299070   1.131  -3.821   8.653
32355SOL     OW99071   6.276   1.769   7.793
32355SOL    HW199072   6.356   1.773  -3.300
32355SOL    HW299073   6.226  -9.342   7.755
32356SOL     OW99074  10.062   2.037   6.022
32356SOL    HW199075  10.101   2.039   5.935
32356SOL    HW299076  -0.903   2.033   6.082
32357SOL     OW99077   5.438   9.040   5.484
32357SOL    HW199078   5.371   9.004  -5.496
32357SOL    HW299079   5.407  20.167  16.504
32358SOL     OW99080  10.746   9.657   5.857
32358SOL    HW199081  10.698  20.779  -5.169
32358SOL    HW299082  10.837   9.680  27.952
32359SOL     OW99083   1.687   2.738   0.011
32359SOL    HW199084   1.631   2.669  -0.025
32359SOL    HW299085   1.640 -41.339  -0.008
32360SOL     OW99086   4.092  10.808   5.752
32360SOL    HW199087  -6.909  10.767   5.830
32360SOL    HW299088   4.031 -11.206   5.787
32361SOL     OW99089   2.505   7.037   9.350
32361SOL    HW199090   2.435  -3.961  42.418
32361SOL    HW299091   2.557 -14.969 -12.695
32362SOL     OW99092   4.204   9.155   4.097
32362SOL    HW199093   4.198 -12.879   4.013
32362SOL    HW299094   4.162   9.214  15.200
32363SOL     OW99095   4.087   3.849   9.796
32363SOL    HW199096   4.178   3.844   9.766
32363SOL    HW299097   4.058   3.937   9.772
32364SOL     OW99098  12.578   7.337   1.618
32364SOL    HW199099   1.544   7.258  12.604
32364SOL    HW299100  -9.589   7.371   1.603
32365SOL     OW99101   2.751   1.283   2.052
32365SOL    HW199102 -41.499  12.345   2.063
32365SOL    HW299103   2.795   1.328   2.125
32366SOL     OW99104   7.184   5.428   9.434
32366SOL    HW199105   7.127   5.351   9.439
32366SOL    HW299106   7.244   5.418   9.507
32367SOL     OW99107  -0.510   9.313   0.344
32367SOL    HW199108  10.465  20.300  22.470
32367SOL    HW299109  -0.563   9.364   0.282
32368SOL     OW99110   1.671   1.982   5.826
32368SOL    HW199111 -20.330   1.938   5.860
32368SOL    HW299112   1.611  13.024   5.901
32369SOL     OW99113   4.182   0.730   9.962
32369SOL    HW199114   4.261  11.727  21.034
32369SOL    HW299115   4.115   0.709  -1.012
32370SOL     OW99116   2.954   6.550   6.723
32370SOL    HW199117   2.922 -37.662   6.651
32370SOL    HW299118   2.929  -4.539 -15.277
32371SOL     OW99119  10.102   1.965   7.806
32371SOL    HW199120  10.180  13.056   7.827
32371SOL    HW299121  10.085   1.985   7.714
32372SOL     OW99122   9.661   5.950   6.067
32372SOL    HW199123  -1.454   5.929   6.013
32372SOL    HW299124   9.628  16.986   6.157
32373SOL     OW99125   7.249   5.817   7.310
32373SOL    HW199126   7.234   5.749   7.377
32373SOL    HW299127   7.184   5.798   7.243
32374SOL     OW99128   4.813   4.802   5.049
32374SOL    HW199129  15.899   4.852   4.981
32374SOL    HW299130   4.781   4.868  -5.930
32375SOL     OW99131   9.439   1.884   4.303
32375SOL    HW199132   9.496   1.838   4.364
32375SOL    HW299133   9.498   1.919   4.236
32376SOL     OW99134   9.673   9.791   7.718
32376SOL    HW199135   9.639   9.704   7.697
32376SOL    HW299136  20.664   9.818   7.796
32377SOL     OW99137   5.625   3.530  10.571
32377SOL    HW199138   5.682   3.478  10.627
32377SOL    HW299139   5.654 -18.570  -0.558
32378SOL     OW99140   6.977   5.739   8.857
32378SOL    HW199141  17.934   5.704   8.822
32378SOL    HW299142 -15.035  -5.360   8.825
32379SOL     OW99143   9.148  10.100   3.360
32379SOL    HW199144   9.096  -0.975  25.511
32379SOL    HW299145   9.108 -12.015  -7.758
32380SOL     OW99146   9.663   0.943   6.687
32380SOL    HW199147  -1.383   0.849   6.702
32380SOL    HW299148   9.578  12.006   6.650
32381SOL     OW99149   1.862   1.375   3.376
32381SOL    HW199150   1.812  -9.728   3.426
32381SOL    HW299151   1.800  12.447 -18.770
32382SOL     OW99152   7.473   3.727   6.395
32382SOL    HW199153   7.417   3.771  -4.708
32382SOL    HW299154 -14.537   3.791  17.453
32383SOL     OW99155   6.702   1.588   9.243
32383SOL    HW199156  17.716   1.601  31.413
32383SOL    HW299157   6.622   1.560   9.199
32384SOL     OW99158   1.662   1.099  10.309
32384SOL    HW199159  -9.463   1.067  10.281
32384SOL    HW299160  12.695  23.184  10.405
32385SOL     OW99161   3.835  10.857   8.333
32385SOL    HW199162   3.766  10.810  19.326
32385SOL    HW299163   3.790  -0.109  30.454
32386SOL     OW99164   9.530   2.046   4.797
32386SOL    HW199165   9.476  -8.948   4.862
32386SOL    HW299166   9.485   1.963   4.783
32387SOL     OW99167   1.309   9.722   6.573
32387SOL    HW199168   1.225 -12.357 -15.551
32387SOL    HW299169   1.328   9.630 -15.490
32388SOL     OW99170   1.938   3.318  10.704
32388SOL    HW199171   1.900  14.279  -0.296
32388SOL    HW299172   1.867  -7.657  10.707
32389SOL     OW99173   0.039   4.775   7.357
32389SOL    HW199174   0.092   4.770   7.277
32389SOL    HW299175  11.026   4.694   7.356
32390SOL     OW99176  -0.203   6.776  11.288
32390SOL    HW199177  21.790   6.736  11.296
32390SOL    HW299178  -0.144  17.757   0.297
32391SOL     OW99179   2.644   9.080   6.703
32391SOL    HW199180  -8.390  31.071   6.665
32391SOL    HW299181   2.698   9.134   6.646
32392SOL     OW99182   7.045  10.212   1.845
32392SOL    HW199183  -4.067  10.254   1.799
32392SOL    HW299184 -26.052  10.273   1.915
32393SOL     OW99185   1.812  -0.683   8.591
32393SOL    HW199186   1.765  21.429   8.515
32393SOL    HW299187  -9.180  -0.760   8.559
32394SOL     OW99188  10.492  10.613   3.521
32394SOL    HW199189  -0.576  10.538   3.468
32394SOL    HW299190  10.475  10.689   3.466
32395SOL     OW99191   5.532  10.303   7.147
32395SOL    HW199192   5.532  10.212   7.174
32395SOL    HW299193  16.611  10.350   7.220
32396SOL     OW99194   8.115   1.472   0.764
32396SOL    HW199195  19.074   1.506 -10.314
32396SOL    HW299196  -2.945   1.461  22.936
32397SOL     OW99197   3.037   3.456   5.132
32397SOL    HW199198  14.131  14.542  -5.972
32397SOL    HW299199   3.000  14.566 -16.893
32398SOL     OW99200   9.141  -0.260   1.607
32398SOL    HW199201  31.240  -0.316   1.682
32398SOL    HW299202   9.158  10.726   1.530
32399SOL     OW99203   4.445   2.052  10.835
32399SOL    HW199204   4.396   2.073  10.755
32399SOL    HW299205   4.419  -8.920  10.897
32400SOL     OW99206   4.896   2.132   5.908
32400SOL    HW199207   4.945   2.083 -16.238
32400SOL    HW299208   4.962   2.187  -5.089
32401SOL     OW99209  10.562  10.260   3.578
32401SOL    HW199210  10.597 -11.740   3.619
32401SOL    HW299211  10.471  10.281   3.558
32402SOL     OW99212   4.372  10.169   7.327
32402SOL    HW199213   4.412  -0.931   7.389
32402SOL    HW299214   4.386  -0.910  -3.798
32403SOL     OW99215  10.482   1.139   3.437
32403SOL    HW199216  10.550   1.198   3.472
32403SOL    HW299217  10.530   1.062   3.407
32404SOL     OW99218   5.252  10.852   6.136
32404SOL    HW199219   5.262  10.929   6.081
32404SOL    HW299220   5.165  10.819   6.117
32405SOL     OW99221   1.290   9.590   5.153
32405SOL    HW199222   1.242   9.510   5.130
32405SOL    HW299223   1.315  31.656  16.284
32406SOL     OW99224   3.817   2.479   4.732
32406SOL    HW199225   3.735   2.482   4.683
32406SOL    HW299226   3.821   2.564   4.776
32407SOL     OW99227   6.691   7.407   4.349
32407SOL    HW199228   6.693   7.359  -6.608
32407SOL    HW299229   6.598  29.501   4.331
32408SOL     OW99230  -0.355   1.447   4.063
32408SOL    HW199231  21.709   1.539   4.086
32408SOL    HW299232  10.598   1.407   4.067
32409SOL     OW99233  12.634   1.788  -0.840
32409SOL    HW199234  -9.350   1.773  10.203
32409SOL    HW299235   1.560   1.742  21.315
32410SOL     OW99236  -0.419   0.335   1.064
32410SOL    HW199237  10.638   0.345  -9.881
32410SOL    HW299238  -0.410   0.241   1.048
32411SOL     OW99239   2.393   0.880   6.302
32411SOL    HW199240   2.413   0.825   6.226
32411SOL    HW299241   2.425   0.967   6.277
32412SOL     OW99242   9.693   1.135  10.962
32412SOL    HW199243  20.767  45.379  -0.103
32412SOL    HW299244   9.650  -9.888  11.046
32413SOL     OW99245   4.432   2.992   5.436
32413SOL    HW199246  26.514   2.899   5.455
32413SOL    HW299247   4.515  14.066  16.509
32414SOL     OW99248   9.005   8.682  10.779
32414SOL    HW199249   9.047   8.608  10.736
32414SOL    HW299250  20.005   8.731 -11.371
32415SOL     OW99251   5.868   1.158   1.830
32415SOL    HW199252   5.910   1.156   1.743
32415SOL    HW299253   5.775  -9.886   1.812
32416SOL     OW99254   3.482   0.908  -1.729
32416SOL    HW199255 -18.639   0.966  31.326
32416SOL    HW299256  14.494   0.941  -1.644
32417SOL     OW99257   2.914  11.613   7.808
32417SOL    HW199258   2.845   0.605   7.867
32417SOL    HW299259   2.939  11.528  -3.195
32418SOL     OW99260   6.030  10.556   9.593
32418SOL    HW199261  16.989  10.511  20.605
32418SOL    HW299262 -15.979  10.507   9.550
32419SOL     OW99263   9.670   0.425   4.603
32419SOL    HW199264   9.662   0.510  26.639
32419SOL    HW299265   9.626   0.438   4.688
32420SOL     OW99266   2.795   5.722  10.886
32420SOL    HW199267   2.759  16.688  10.937
32420SOL    HW299268   2.853   5.681  10.822
32421SOL     OW99269   5.723   8.692   5.817
32421SOL    HW199270   5.731   8.599   5.799
32421SOL    HW299271   5.714   8.732 -38.427
32422SOL     OW99272  11.373   2.038   9.548
32422SOL    HW199273  11.438   2.089 -45.602
32422SOL    HW299274 -10.663   1.955  -1.511
32423SOL     OW99275   8.448   6.986   7.844
32423SOL    HW199276   8.487   6.899   7.832
32423SOL    HW299277   8.354   6.972   7.835
32424SOL     OW99278   0.401   2.595   1.759
32424SOL    HW199279   0.376  -8.439   1.667
32424SOL    HW299280   0.364   2.675   1.798
32425SOL     OW99281   3.510   8.823   4.735
32425SOL    HW199282   3.468   8.872   4.806
32425SOL    HW299283  14.579   8.890  -6.366
32426SOL     OW99284  10.308  10.899   1.021
32426SOL    HW199285  10.352 -22.147 -21.014
32426SOL    HW299286  10.232  10.940  23.058
32427SOL     OW99287   0.341   9.315   1.905
32427SOL    HW199288   0.336  -1.819   1.920
32427SOL    HW299289   0.372   9.352   1.987
32428SOL     OW99290   8.637   1.404   4.638
32428SOL    HW199291   8.665   1.459   4.566
32428SOL    HW299292   8.717   1.365   4.672
32429SOL     OW99293   6.574   1.532   0.622
32429SOL    HW199294   6.514  -9.554   0.682
32429SOL    HW299295   6.661  12.546  22.730
32430SOL     OW99296   3.772   6.085   4.521
32430SOL    HW199297   3.810  17.043   4.554
32430SOL    HW299298   3.739  17.169   4.599
32431SOL     OW99299   9.355   4.689   7.956
32431SOL    HW199300   9.311   4.730   7.882
32431SOL    HW299301   9.355   4.755  -3.015
32432SOL     OW99302   5.419   1.555   9.230
32432SOL    HW199303   5.380   1.537   9.316
32432SOL    HW299304   5.398  -9.393   9.214
32433SOL     OW99305   3.925  10.606   4.090
32433SOL    HW199306  36.981  10.595  -6.878
32433SOL    HW299307  37.129  10.591   4.130
32434SOL     OW99308   4.535   1.715   4.695
32434SOL    HW199309   4.455   1.728   4.746
32434SOL    HW299310   4.553   1.621   4.703
32435SOL     OW99311   6.482   8.259   7.175
32435SOL    HW199312   6.415  19.281   7.240
32435SOL    HW299313   6.557   8.207  51.360
32436SOL     OW99314   6.523   4.378   0.997
32436SOL    HW199315   6.528   4.473   0.987
32436SOL    HW299316  17.519   4.348   0.917
32437SOL     OW99317  13.169   4.575   5.699
32437SOL    HW199318 -30.989  26.559  -5.328
32437SOL    HW299319  13.259   4.602   5.717
32438SOL     OW99320   4.620   6.008  12.623
32438SOL    HW199321   4.661   6.083   1.627
32438SOL    HW299322  15.724   5.980 -20.560
32439SOL     OW99323   3.422   5.211   3.806
32439SOL    HW199324   3.452  -5.894  -7.171
32439SOL    HW299325   3.389   5.283   3.860
32440SOL     OW99326   4.039   6.689  10.646
32440SOL    HW199327  -6.966 -26.493  10.709
32440SOL    HW299328   4.091   6.673  10.567
32441SOL     OW99329   4.000   3.289   9.319
32441SOL    HW199330  26.085   3.361   9.257
32441SOL    HW299331   3.971   3.214   9.266
32442SOL     OW99332   3.533  10.098   3.970
32442SOL    HW199333  14.587  10.135   4.057
32442SOL    HW299334   3.446  21.098   3.975
32443SOL     OW99335   9.691   7.811   5.785
32443SOL    HW199336   9.655  -3.195   5.703
32443SOL    HW299337   9.733  18.768 -16.318
32444SOL     OW99338   4.365   5.965   2.648
32444SOL    HW199339  -6.678   6.060   2.636
32444SOL    HW299340   4.278  16.974   2.623
32445SOL     OW99341  10.279   2.235   1.254
32445SOL    HW199342  10.197   2.198  12.262
32445SOL    HW299343  10.276   2.327   1.228
32446SOL     OW99344   0.148   6.710   9.482
32446SOL    HW199345   0.205  17.826 -12.596
32446SOL    HW299346   0.173   6.660   9.560
32447SOL     OW99347   0.408   1.789   9.787
32447SOL    HW199348   0.477   1.853   9.802
32447SOL    HW299349  22.485   1.778   9.692
32448SOL     OW99350   9.644   5.943   2.538
32448SOL    HW199351 -12.530  -5.092   2.530
32448SOL    HW299352   9.660   5.863   2.588
32449SOL     OW99353   2.881   1.439  10.396
32449SOL    HW199354  35.971   1.478  21.519
32449SOL    HW299355   2.948   1.500  10.364
32450SOL     OW99356   4.606   5.756   1.463
32450SOL    HW199357   4.670  27.883   1.411
32450SOL    HW299358   4.569   5.823   1.521
32451SOL     OW99359  10.062   6.622   5.687
32451SOL    HW199360  10.042   6.532  16.750
32451SOL    HW299361  -1.063   6.659  27.740
32452SOL     OW99362   5.567   1.739   4.978
32452SOL    HW199363   5.582  12.873   4.972
32452SOL    HW299364   5.642   1.706   5.028
32453SOL     OW99365  10.249  10.532   7.460
32453SOL    HW199366  10.180  10.506  -3.641
32453SOL    HW299367  10.214  10.510 -14.533
32454SOL     OW99368  10.016   5.457   5.922
32454SOL    HW199369   9.986  -5.613   6.008
32454SOL    HW299370  10.008   5.552   5.927
32455SOL     OW99371  10.309  13.470   8.981
32455SOL    HW199372  10.225 -19.694   8.977
32455SOL    HW299373  10.303   2.485   9.059
32456SOL     OW99374   2.602   1.888   1.662
32456SOL    HW199375   2.638   1.966   1.621
32456SOL    HW299376  -8.401   1.815   1.611
32457SOL     OW99377   4.674   4.340   1.564
32457SOL    HW199378 -17.475   4.278   1.584
32457SOL    HW299379   4.664  -6.680   1.471
32458SOL     OW99380   2.379   9.437   6.928
32458SOL    HW199381  -8.680   9.352  40.006
32458SOL    HW299382  13.376   9.432   7.014
32459SOL     OW99383   0.216   0.740   0.136
32459SOL    HW199384  22.283 -10.283   0.042
32459SOL    HW299385   0.269   0.661   0.140
32460SOL     OW99386   0.731   6.326   2.705
32460SOL    HW199387   0.783  17.427  -8.283
32460SOL    HW299388   0.653  28.390 -19.321
32461SOL     OW99389   1.495   1.182   1.785
32461SOL    HW199390   1.581   1.155   1.818
32461SOL    HW299391  -9.529  12.245   1.694
32462SOL     OW99392   2.940   0.614   9.768
32462SOL    HW199393   2.844   0.613  -1.276
32462SOL    HW299394   2.963   0.533   9.813
32463SOL     OW99395   7.451  10.558   4.959
32463SOL    HW199396   7.439  -0.407   4.900
32463SOL    HW299397   7.508 -11.488   5.028
32464SOL     OW99398   8.429  10.137   6.515
32464SOL    HW199399   8.430 -11.997  -4.604
32464SOL    HW299400   8.363  10.095  39.690
32465SOL     OW99401   4.048   9.885   2.698
32465SOL    HW199402   3.958   9.899  -8.312
32465SOL    HW299403   4.078   9.808  -8.292
32466SOL     OW99404   2.529  11.047   9.778
32466SOL    HW199405   2.578  11.101 -23.278
32466SOL    HW299406   2.591 -11.050   9.708
32467SOL     OW99407   0.457   8.238   5.167
32467SOL    HW199408   0.450   8.219  -5.780
32467SOL    HW299409   0.392   8.182   5.125
32468SOL     OW99410   7.774  10.926   2.438
32468SOL    HW199411   7.864  10.895  13.490
32468SOL    HW299412   7.755  10.976   2.518
32469SOL     OW99413   2.456   0.300   3.627
32469SOL    HW199414 -19.693   0.238   3.606
32469SOL    HW299415  -8.553   0.274   3.714
32470SOL     OW99416  10.010   0.909   2.810
32470SOL    HW199417   9.928   0.929   2.766
32470SOL    HW299418  10.046  34.114   2.833
32471SOL     OW99419   3.948   8.875   0.248
32471SOL    HW199420   3.907  19.916   0.334
32471SOL    HW299421 -18.109   8.966  11.270
32472SOL     OW99422   2.090   5.740   8.043
32472SOL    HW199423   2.049 -16.254  19.099
32472SOL    HW299424   2.172  -5.278   7.998
32473SOL     OW99425   9.224   7.673   5.987
32473SOL    HW199426  31.299  -3.455  28.030
32473SOL    HW299427   9.314   7.701  39.089
32474SOL     OW99428   6.423   4.895   0.657
32474SOL    HW199429  -4.557   4.952   0.609
32474SOL    HW299430   6.344   4.948   0.670
32475SOL     OW99431   9.853   5.269   3.450
32475SOL    HW199432   9.778  16.350   3.407
32475SOL    HW299433   9.927   5.287 -29.726
32476SOL     OW99434   3.229   7.071   8.998
32476SOL    HW199435   3.255   7.126 -24.195
32476SOL    HW299436  25.387   7.067   9.053
32477SOL     OW99437  10.239   0.959   0.136
32477SOL    HW199438  10.261   1.004   0.218
32477SOL    HW299439  10.212   1.029   0.077
32478SOL     OW99440   3.726   1.642   6.411
32478SOL    HW199441 -18.301   1.563   6.397
32478SOL    HW299442   3.727   1.686 -15.753
32479SOL     OW99443   4.122   2.172   9.242
32479SOL    HW199444   4.104   2.259   9.207
32479SOL    HW299445   4.114   2.181   9.337
32480SOL     OW99446   2.840   3.165   0.914
32480SOL    HW199447   2.748   3.189   0.923
32480SOL    HW299448  35.957  14.112   0.888
32481SOL     OW99449   4.680   3.748   2.308
32481SOL    HW199450   4.606   3.711   2.259
32481SOL    HW299451  -6.289   3.685   2.295
32482SOL     OW99452   8.953   1.598   2.236
32482SOL    HW199453  -2.099   1.687 -19.877
32482SOL    HW299454   8.877   1.583   2.292
32483SOL     OW99455   3.422   7.827  10.879
32483SOL    HW199456   3.424   7.731  10.878
32483SOL    HW299457   3.446   7.853  10.790
32484SOL     OW99458   9.487  10.640   7.081
32484SOL    HW199459   9.530  10.715   7.123
32484SOL    HW299460   9.394  -0.386   7.097
32485SOL     OW99461   7.257   7.640  -0.084
32485SOL    HW199462  18.381 -14.414  10.991
32485SOL    HW299463   7.203  18.758  -0.075
32486SOL     OW99464   5.384   0.874   9.884
32486SOL    HW199465   5.442   0.806   9.920
32486SOL    HW299466   5.417   0.888   9.795
32487SOL     OW99467   1.967   6.247  10.472
32487SOL    HW199468   2.059  28.331  10.445
32487SOL    HW299469  13.010   6.212  10.561
32488SOL     OW99470   2.271   2.955   3.108
32488SOL    HW199471   2.337   2.948   3.177
32488SOL    HW299472   2.187   2.947   3.154
32489SOL     OW99473   9.294   7.729   6.741
32489SOL    HW199474   9.234   7.763   6.807
32489SOL    HW299475   9.374  18.819   6.753
32490SOL     OW99476   5.541   9.990   7.907
32490SOL    HW199477   5.620   9.944   7.935
32490SOL    HW299478  16.600  10.018   7.818
32491SOL     OW99479   3.035   2.545   4.997
32491SOL    HW199480  13.992   2.512   4.962
32491SOL    HW299481 -19.055 -19.537  16.132
32492SOL     OW99482   2.772   6.410   0.229
32492SOL    HW199483   2.791   6.386   0.138
32492SOL    HW299484   2.717   6.488   0.222
32493SOL     OW99485   4.071   1.011  10.140
32493SOL    HW199486  -7.014   0.934  -0.932
32493SOL    HW299487  -6.915   0.978  10.213
32494SOL     OW99488  10.989   9.754   6.538
32494SOL    HW199489   0.029   9.790  17.538
32494SOL    HW299490 -11.064   9.732   6.628
32495SOL     OW99491   4.253   1.848  -3.288
32495SOL    HW199492   4.264   1.820  18.700
32495SOL    HW299493  15.346  -9.253  51.960
32496SOL     OW99494   5.858   0.935   5.583
32496SOL    HW199495   5.797   1.003   5.612
32496SOL    HW299496   5.840   0.925  16.529
32497SOL     OW99497   2.405   6.824  10.400
32497SOL    HW199498  -8.612   6.774  10.321
32497SOL    HW299499  -8.642   6.915  21.410
32498SOL     OW99500   8.005   2.182   7.487
32498SOL    HW199501   7.952  13.301  -3.542
32498SOL    HW299502 -14.126  35.245   7.428
32499SOL     OW99503   1.270   9.443   8.679
32499SOL    HW199504  12.333  20.414   8.742
32499SOL    HW299505   1.213   9.399   8.616
32500SOL     OW99506  11.673   5.342   3.632
32500SOL    HW199507  11.645  -5.636   3.565
32500SOL    HW299508 -10.407 -16.686   3.714
32501SOL     OW99509   4.590  10.480   6.084
32501SOL    HW199510   4.611  10.407   6.142
32501SOL    HW299511  15.534  10.478   6.077
32502SOL     OW99512   7.399   4.381   2.644
32502SOL    HW199513 -14.766   4.347   2.618
32502SOL    HW299514   7.415   4.343  24.809
32503SOL     OW99515   4.885   4.744   3.142
32503SOL    HW199516  16.020   4.742   3.128
32503SOL    HW299517  15.914   4.791   3.225
32504SOL     OW99518   2.710   2.800   2.094
32504SOL    HW199519   2.802   2.785   2.072
32504SOL    HW299520   2.712  13.880  -8.859
32505SOL     OW99521   4.335   9.994   4.783
32505SOL    HW199522 -17.742  10.008  26.957
32505SOL    HW299523   4.427   9.984  -6.281
32506SOL     OW99524   4.649   9.537   1.982
32506SOL    HW199525   4.682  20.538   1.901
32506SOL    HW299526 -17.518  20.541  -9.048
32507SOL     OW99527   8.617   3.824   6.643
32507SOL    HW199528   8.664   3.907   6.638
32507SOL    HW299529   8.525   3.849   6.641
32508SOL     OW99530   1.955   2.328   3.546
32508SOL    HW199531   1.975   2.285   3.629
32508SOL    HW299532  -9.004   2.322   3.495
32509SOL     OW99533   6.601   6.376   2.599
32509SOL    HW199534 -26.547   6.285 -19.486
32509SOL    HW299535  17.726  28.451   2.642
32510SOL     OW99536   8.336   5.435   7.412
32510SOL    HW199537  -2.629   5.474   7.366
32510SOL    HW299538   8.374   5.396   7.491
32511SOL     OW99539   5.880  -0.141   1.486
32511SOL    HW199540   5.809  10.955   1.455
32511SOL    HW299541   5.955  -0.082   1.494
32512SOL     OW99542   3.800   7.862   2.462
32512SOL    HW199543   3.723  18.955 -19.633
32512SOL    HW299544  14.884   7.857   2.377
32513SOL     OW99545  10.867  10.599   9.374
32513SOL    HW199546  10.791  -0.437   9.316
32513SOL    HW299547  10.887  10.506   9.384
32514SOL     OW99548  10.263   5.623   8.047
32514SOL    HW199549  10.313  27.712   8.128
32514SOL    HW299550  10.296  -5.346 -14.089
32515SOL     OW99551   5.346   5.805   2.426
32515SOL    HW199552   5.342   5.718   2.384
32515SOL    HW299553   5.320  -5.250   2.516
32516SOL     OW99554  10.021  10.451   7.626
32516SOL    HW199555  10.000  10.386  18.598
32516SOL    HW299556  10.014 -22.716  18.748
32517SOL     OW99557   6.613   7.873   4.626
32517SOL    HW199558   6.704   7.879   4.595
32517SOL    HW299559   6.592   7.780   4.618
32518SOL     OW99560   2.139   8.779   5.809
32518SOL    HW199561   2.085   8.856   5.825
32518SOL    HW299562  13.163   8.722   5.884
32519SOL     OW99563   1.096   2.457   8.630
32519SOL    HW199564  34.236   2.374  -2.367
32519SOL    HW299565  12.216   2.508  19.674
32520SOL     OW99566   0.467  10.486  11.645
32520SOL    HW199567   0.542  10.533   0.567
32520SOL    HW299568   0.391  10.522   0.561
32521SOL     OW99569   1.302   7.031   6.072
32521SOL    HW199570   1.314  -3.960   5.991
32521SOL    HW299571   1.235   7.080   6.120
32522SOL     OW99572   5.210   3.036  -0.495
32522SOL    HW199573 -16.775  25.111  54.717
32522SOL    HW299574  -5.863  -8.085  -0.459
32523SOL     OW99575   4.972   2.243   5.438
32523SOL    HW199576 -17.107 -19.838   5.343
32523SOL    HW299577 -39.192   2.150   5.464
32524SOL     OW99578  10.025   6.393   1.929
32524SOL    HW199579  10.000   6.431   1.845
32524SOL    HW299580  10.119   6.412  12.977
32525SOL     OW99581   8.004   9.351   4.574
32525SOL    HW199582   7.985   9.434  -6.423
32525SOL    HW299583   7.948   9.350   4.496
32526SOL     OW99584   7.393  11.276  -0.733
32526SOL    HW199585  18.432   0.297  43.499
32526SOL    HW299586   7.301  11.256  -0.749
32527SOL     OW99587   0.711   3.176   0.653
32527SOL    HW199588   0.635   3.221   0.691
32527SOL    HW299589   0.712  14.243   0.562
32528SOL     OW99590  10.360   2.596   6.542
32528SOL    HW199591  10.299  13.701  -4.531
32528SOL    HW299592  10.419   2.645  -4.441
32529SOL     OW99593   8.804   9.448   8.679
32529SOL    HW199594   8.799   9.355   8.701
32529SOL    HW299595   8.804 -12.629   8.584
32530SOL     OW99596   8.749   2.896   6.645
32530SOL    HW199597   8.725   2.821 -15.488
32530SOL    HW299598  19.757   2.972  -4.442
32531SOL     OW99599   5.318   2.287   9.136
32531SOL    HW199600   5.261   2.351   9.093
32531SOL    HW299601   5.348   2.332  31.294
32532SOL     OW99602   8.888   8.262   1.060
32532SOL    HW199603 -13.193   8.269   0.964
32532SOL    HW299604   8.829  19.370   1.090
32533SOL     OW99605   9.432   6.872   2.195
32533SOL    HW199606   9.373  17.837   2.206
32533SOL    HW299607  20.554  28.912   2.168
32534SOL     OW99608  -1.578   9.251   5.751
32534SOL    HW199609  -1.540   9.314  -5.349
32534SOL    HW299610  53.659   9.272   5.836
32535SOL     OW99611   4.928  -1.641   6.037
32535SOL    HW199612   4.958  42.586  -5.062
32535SOL    HW299613  -6.046  -1.644   6.107
32536SOL     OW99614   0.064   9.503   5.752
32536SOL    HW199615  11.070 -12.495 -16.366
32536SOL    HW299616   0.159  20.555   5.755
32537SOL     OW99617   1.460   6.603  11.322
32537SOL    HW199618  12.563  -4.434  11.393
32537SOL    HW299619   1.487  17.713   0.224
32538SOL     OW99620   9.973   2.499   4.984
32538SOL    HW199621  10.037   2.506   4.913
32538SOL    HW299622  20.948   2.435   4.952
32539SOL     OW99623   7.385   6.612   8.241
32539SOL    HW199624   7.349   6.692   8.280
32539SOL    HW299625   7.349  17.581   8.295
32540SOL     OW99626   8.081  10.898   8.856
32540SOL    HW199627   8.114  10.979   8.895
32540SOL    HW299628  -3.014  10.927   8.783
32541SOL     OW99629  10.568   0.682   7.825
32541SOL    HW199630  10.599   0.604   7.781
32541SOL    HW299631  10.561  22.827   7.756
32542SOL     OW99632   5.358   6.386  10.410
32542SOL    HW199633   5.374   6.355  10.320
32542SOL    HW299634   5.397   6.319  10.465
32543SOL     OW99635   0.620   4.708   7.427
32543SOL    HW199636   0.534  -6.366   7.403
32543SOL    HW299637   0.660   4.733   7.343
32544SOL     OW99638  10.070   1.333   8.809
32544SOL    HW199639  -0.985   1.321   8.715
32544SOL    HW299640  10.155   1.377   8.815
32545SOL     OW99641   0.943   0.198  11.111
32545SOL    HW199642   0.963   0.111   0.105
32545SOL    HW299643  11.923   0.236  11.175
32546SOL     OW99644   9.117   1.954   5.126
32546SOL    HW199645   9.062   1.986 -27.921
32546SOL    HW299646   9.066  -9.069   5.047
32547SOL     OW99647  10.262   5.327   8.428
32547SOL    HW199648  10.218   5.375 -24.620
32547SOL    HW299649  21.381  16.332   8.469
32548SOL     OW99650   5.207   6.623  10.220
32548SOL    HW199651  16.286   6.577  10.146
32548SOL    HW299652   5.134  17.711  10.182
32549SOL     OW99653  -0.206   7.688   4.468
32549SOL    HW199654  -0.273   7.704   4.401
32549SOL    HW299655  10.887   7.767   4.468
32550SOL     OW99656   3.788   8.934  10.128
32550SOL    HW199657   3.758   9.003  -0.971
32550SOL    HW299658  36.826  19.938  -0.875
32551SOL     OW99659   1.631   6.397   1.204
32551SOL    HW199660   1.592  -4.695   1.274
32551SOL    HW299661   1.687  -4.580   1.249
32552SOL     OW99662  12.117   7.798   4.287
32552SOL    HW199663   1.138   7.816   4.359
32552SOL    HW299664   0.993   7.785   4.330
32553SOL     OW99665   2.105   6.645   2.397
32553SOL    HW199666   2.137   6.579   2.458
32553SOL    HW299667   2.131   6.728  -8.603
32554SOL     OW99668   3.854   9.139   4.892
32554SOL    HW199669 -18.176  20.258  15.909
32554SOL    HW299670   3.844   9.093   4.809
32555SOL     OW99671   7.861   6.419   9.440
32555SOL    HW199672   7.898  -4.567   9.510
32555SOL    HW299673   7.824  -4.696   9.486
32556SOL     OW99674   5.003   5.761   2.532
32556SOL    HW199675   5.084  16.809   2.583
32556SOL    HW299676   5.011   5.675  35.609
32557SOL     OW99677  11.893   3.536   4.811
32557SOL    HW199678   0.760  -7.496  37.910
32557SOL    HW299679   0.876   3.446   4.786
32558SOL     OW99680   8.645   1.150   1.451
32558SOL    HW199681  19.748  23.287   1.409
32558SOL    HW299682   8.638  23.262   1.541
32559SOL     OW99683   7.345   5.315   3.168
32559SOL    HW199684  -3.764   5.278 -18.966
32559SOL    HW299685  18.460   5.258   3.152
32560SOL     OW99686   6.361   4.262   5.517
32560SOL    HW199687  -4.695   4.356   5.507
32560SOL    HW299688   6.456   4.255   5.525
32561SOL     OW99689   4.095   4.687   1.242
32561SOL    HW199690   4.019   4.742   1.263
32561SOL    HW299691   4.078  26.683  -9.753
32562SOL     OW99692   8.937   7.989  10.539
32562SOL    HW199693   9.021   8.031  10.519
32562SOL    HW299694   8.871   8.048  10.503
32563SOL     OW99695   1.744   9.663   4.596
32563SOL    HW199696   1.657  20.726 -17.517
32563SOL    HW299697   1.766   9.734   4.656
32564SOL     OW99698   9.717   3.306   6.307
32564SOL    HW199699   9.659   3.326   6.381
32564SOL    HW299700   9.719   3.210   6.305
32565SOL     OW99701   0.094   1.295   2.045
32565SOL    HW199702   0.184   1.296   2.078
32565SOL    HW299703  22.175  23.428   1.966
32566SOL     OW99704   1.378   4.133  10.019
32566SOL    HW199705  12.438  15.154   9.928
32566SOL    HW299706  23.454  -6.811  21.063
32567SOL     OW99707   4.985   7.187   2.825
32567SOL    HW199708  15.929  29.271   2.821
32567SOL    HW299709  -6.037   7.110   2.879
32568SOL     OW99710   5.775   4.508   8.479
32568SOL    HW199711   5.748   4.575   8.542
32568SOL    HW299712  38.968   4.546 -13.646
32569SOL     OW99713  10.355   0.118   4.839
32569SOL    HW199714  10.356   0.213   4.832
32569SOL    HW299715  -0.760   0.090  15.828
32570SOL     OW99716   1.762   4.924   9.677
32570SOL    HW199717   1.698   4.975  31.707
32570SOL    HW299718   1.732   4.930   9.768
32571SOL     OW99719   2.003   4.637  10.822
32571SOL    HW199720   1.953   4.714  10.795
32571SOL    HW299721   2.095  -6.378  10.806
32572SOL     OW99722   6.283   7.378  -0.104
32572SOL    HW199723   6.274  18.513  -0.108
32572SOL    HW299724   6.270   7.356  22.067
32573SOL     OW99725   3.576   9.363   0.304
32573SOL    HW199726   3.577   9.298   0.374
32573SOL    HW299727   3.516   9.430   0.334
32574SOL     OW99728   6.782   7.117   2.702
32574SOL    HW199729   6.797   7.049   2.767
32574SOL    HW299730   6.743   7.190  -8.288
32575SOL     OW99731   1.610   9.412   6.160
32575SOL    HW199732  12.644  -1.625   6.255
32575SOL    HW299733  12.710   9.483   6.138
32576SOL     OW99734   1.842   7.008   3.076
32576SOL    HW199735  12.795   7.001  14.076
32576SOL    HW299736   1.844   7.094 -18.962
32577SOL     OW99737   9.109   2.501   8.097
32577SOL    HW199738   9.132  13.633   8.103
32577SOL    HW299739   9.188  13.494   8.125
32578SOL     OW99740  10.343  10.127  10.186
32578SOL    HW199741  10.317  -0.948  10.271
32578SOL    HW299742  10.261  10.140  -0.901
32579SOL     OW99743   3.466   5.219   9.620
32579SOL    HW199744   3.413 -16.863 -23.579
32579SOL    HW299745  -7.591  -5.734 -34.501
32580SOL     OW99746  10.380   6.759   2.270
32580SOL    HW199747  10.335   6.843  13.312
32580SOL    HW299748  10.316   6.697 -19.844
32581SOL     OW99749   8.143   5.965   6.945
32581SOL    HW199750   8.179   5.878   6.960
32581SOL    HW299751   8.136   5.972   6.850
32582SOL     OW99752   8.383   0.314   0.429
32582SOL    HW199753   8.309   0.254   0.430
32582SOL    HW299754  -2.683   0.384  11.409
32583SOL     OW99755   7.533   2.214   9.947
32583SOL    HW199756   7.471   2.288   9.948
32583SOL    HW299757   7.615   2.251   9.978
32584SOL     OW99758   6.664   9.384  10.538
32584SOL    HW199759   6.635   9.355  10.625
32584SOL    HW299760   6.656  -1.560  10.541
32585SOL     OW99761   2.312   7.782   1.529
32585SOL    HW199762   2.298   7.806   1.621
32585SOL    HW299763  13.266   7.795   1.488
32586SOL     OW99764   9.662   5.431   3.282
32586SOL    HW199765   9.574  -5.574   3.295
32586SOL    HW299766   9.689   5.464   3.197
32587SOL     OW99767   5.115   7.183   7.467
32587SOL    HW199768  16.090   7.209   7.401
32587SOL    HW299769  -5.977 -14.918  -3.496
32588SOL     OW99770   3.899   7.338   0.762
32588SOL    HW199771   3.898  18.421  11.887
32588SOL    HW299772   3.966   7.386   0.712
32589SOL     OW99773   6.844  10.036   8.408
32589SOL    HW199774   6.883  10.111  -2.678
32589SOL    HW299775   6.913  10.008  -2.571
32590SOL     OW99776   3.218   3.774   1.428
32590SOL    HW199777 -18.831   3.734   1.346
32590SOL    HW299778   3.259   3.860  -9.611
32591SOL     OW99779   8.963   9.488  11.794
32591SOL    HW199780   8.996  -1.504  11.870
32591SOL    HW299781   9.004   9.532 -32.439
32592SOL     OW99782  10.323   7.307   6.932
32592SOL    HW199783  10.322   7.390  40.099
32592SOL    HW299784 -11.835  29.340  18.000
32593SOL     OW99785  -0.991   7.612   7.205
32593SOL    HW199786  21.069   7.590  29.375
32593SOL    HW299787  -0.978 -14.372   7.206
32594SOL     OW99788  11.095   1.602  11.229
32594SOL    HW199789  11.111   1.633  11.318
32594SOL    HW299790 -10.906   1.628   0.140
32595SOL     OW99791   2.121   1.656   3.002
32595SOL    HW199792   2.132   1.712  25.005
32595SOL    HW299793   2.191  12.723   3.062
32596SOL     OW99794   2.709   4.443   7.603
32596SOL    HW199795   2.743   4.527   7.633
32596SOL    HW299796   2.757   4.378  -3.385
32597SOL     OW99797   2.886   6.283   0.455
32597SOL    HW199798   2.848   6.286  11.407
32597SOL    HW299799   2.890   6.375  44.641
32598SOL     OW99800   5.177   3.403   5.960
32598SOL    HW199801  16.193   3.382   5.869
32598SOL    HW299802  27.326 -40.690   5.951
32599SOL     OW99803   2.847  -0.540  10.233
32599SOL    HW199804   2.845  10.592  10.257
32599SOL    HW299805   2.928  -0.573  10.271
32600SOL     OW99806   6.867   2.142   8.083
32600SOL    HW199807   6.816   2.175   8.156
32600SOL    HW299808 -15.273   2.142   8.009
32601SOL     OW99809   8.362  10.854   7.639
32601SOL    HW199810  19.393  10.907   7.718
32601SOL    HW299811   8.274  10.822   7.621
32602SOL     OW99812   0.020   1.775   5.778
32602SOL    HW199813  11.100  12.822   5.691
32602SOL    HW299814  -0.008   1.864   5.798
32603SOL     OW99815   4.403   8.418   6.375
32603SOL    HW199816   4.348   8.438   6.299
32603SOL    HW299817  -6.639   8.499 -15.652
32604SOL     OW99818   2.190   0.894   8.818
32604SOL    HW199819   2.249   0.819   8.821
32604SOL    HW299820   2.169   0.912   8.910
32605SOL     OW99821   5.580   5.593   0.697
32605SOL    HW199822   5.571  16.691   0.623
32605SOL    HW299823  16.679 -16.555   0.666
32606SOL     OW99824   7.298   9.623   9.582
32606SOL    HW199825  18.348 -23.590  -1.469
32606SOL    HW299826  18.246   9.633  -1.431
32607SOL     OW99827   4.069   6.774   4.998
32607SOL    HW199828  15.071   6.840   4.940
32607SOL    HW299829   3.993   6.727   5.034
32608SOL     OW99830   4.389  10.807   0.480
32608SOL    HW199831   4.333  10.814  22.636
32608SOL    HW299832  37.489  10.720  22.524
32609SOL     OW99833   1.439   1.821   5.498
32609SOL    HW199834   1.484   1.803   5.581
32609SOL    HW299835   1.473   1.756   5.437
32610SOL     OW99836   5.743   8.461   1.064
32610SOL    HW199837   5.758   8.367   1.058
32610SOL    HW299838   5.820 -24.619  23.099
32611SOL     OW99839   6.700   8.915  10.161
32611SOL    HW199840   6.755  -2.056  10.201
32611SOL    HW299841   6.749   8.834  10.175
32612SOL     OW99842   9.134   9.998   1.497
32612SOL    HW199843 -13.011   9.959  -9.485
32612SOL    HW299844  31.224  -0.952   1.530
32613SOL     OW99845   7.051   3.722   0.464
32613SOL    HW199846   7.052   3.815   0.490
32613SOL    HW299847   7.012   3.723   0.377
32614SOL     OW99848   9.704   0.258   1.077
32614SOL    HW199849   9.780   0.289   1.126
32614SOL    HW299850   9.715  22.374   0.989
32615SOL     OW99851   6.189   2.923   0.501
32615SOL    HW199852   6.127   2.872   0.449
32615SOL    HW299853  17.216  25.093  11.510
32616SOL     OW99854   4.762   7.033   7.355
32616SOL    HW199855   4.781   7.076   7.272
32616SOL    HW299856  15.849   6.950 -14.729
32617SOL     OW99857   4.944   2.677   3.588
32617SOL    HW199858   4.887   2.750   3.613
32617SOL    HW299859 -39.203   2.686   3.494
32618SOL     OW99860   4.891   0.822   0.115
32618SOL    HW199861   4.880   0.907   0.158
32618SOL    HW299862   4.941   0.770   0.178
32619SOL     OW99863   6.875  12.265   0.287
32619SOL    HW199864  -4.171  12.317   0.367
32619SOL    HW299865  -4.164 -20.789   0.216
32620SOL     OW99866   1.092   9.013   7.272
32620SOL    HW199867  12.193   9.076  -3.806
32620SOL    HW299868   1.148   8.949   7.315
32621SOL     OW99869   3.961  10.854   4.000
32621SOL    HW199870   3.960  10.765   4.035
32621SOL    HW299871   3.881  10.894 -18.045
32622SOL     OW99872   2.775   1.757   4.156
32622SOL    HW199873   2.702   1.797   4.204
32622SOL    HW299874  -8.303  23.807   4.073
32623SOL     OW99875   6.774   8.666   1.484
32623SOL    HW199876  -4.234   8.606   1.416
32623SOL    HW299877  17.885  -2.312   1.497
32624SOL     OW99878   4.695   4.654   1.307
32624SOL    HW199879   4.641   4.733  -9.729
32624SOL    HW299880   4.632  -6.458   1.311
32625SOL     OW99881   3.123   8.757   9.230
32625SOL    HW199882  14.143   8.849 -23.869
32625SOL    HW299883   3.082   8.743  -1.895
32626SOL     OW99884   8.526   1.914   2.891
32626SOL    HW199885   8.442  35.034 -30.273
32626SOL    HW299886 -13.531  12.861   2.899
32627SOL     OW99887   6.640  10.805   6.793
32627SOL    HW199888   6.686  10.820   6.710
32627SOL    HW299889 -15.396  10.727  17.869
32628SOL     OW99890   9.398   3.989   5.059
32628SOL    HW199891 -34.679  -7.001   5.049
32628SOL    HW299892   9.332  15.080   5.013
32629SOL     OW99893  11.035   3.493  10.738
32629SOL    HW199894  10.999  25.532  -0.381
32629SOL    HW299895  11.118  36.650  10.709
32630SOL     OW99896   4.668   7.355   3.161
32630SOL    HW199897 -17.342  29.413   3.099
32630SOL    HW299898   4.637   7.269  -7.847
32631SOL     OW99899   5.922   0.598   2.717
32631SOL    HW199900   5.880   0.570   2.636
32631SOL    HW299901   6.012   0.617   2.693
32632SOL     OW99902   2.376   4.492   3.360
32632SOL    HW199903  24.372  -6.517   3.323
32632SOL    HW299904   2.399   4.559   3.425
32633SOL     OW99905   4.262  10.066   2.660
32633SOL    HW199906   4.217  -0.890  13.686
32633SOL    HW299907   4.192  -1.036   2.680
32634SOL     OW99908   6.902   5.277  -0.202
32634SOL    HW199909   6.881   5.371  -0.207
32634SOL    HW299910   6.835   5.235  10.784
32635SOL     OW99911   0.018   5.372   5.279
32635SOL    HW199912   0.007  16.321   5.310
32635SOL    HW299913   0.073 -27.755   5.201
32636SOL     OW99914   7.394   2.789   3.075
32636SOL    HW199915   7.383   2.731   3.000
32636SOL    HW299916   7.314   2.841   3.077
32637SOL     OW99917   1.506   7.243   8.847
32637SOL    HW199918  12.598   7.215   8.922
32637SOL    HW299919  -9.624   7.236   8.877
32638SOL     OW99920  11.156  10.323   6.229
32638SOL    HW199921 -10.875  10.367   6.159
32638SOL    HW299922  22.225  10.366   6.309
32639SOL     OW99923  11.957   8.042   0.162
32639SOL    HW199924   0.980   8.110   0.189
32639SOL    HW299925 -21.203   8.013   0.243
32640SOL     OW99926   8.313  10.009   1.678
32640SOL    HW199927  -2.760  10.053   1.600
32640SOL    HW299928 -13.689   9.961   1.647
32641SOL     OW99929   8.979   4.787   3.570
32641SOL    HW199930   9.044  15.895   3.551
32641SOL    HW299931   9.014  15.748   3.528
32642SOL     OW99932   3.561   1.744   7.168
32642SOL    HW199933  14.594  -9.213   7.120
32642SOL    HW299934   3.648   1.747   7.208
32643SOL     OW99935   8.668   6.181   1.452
32643SOL    HW199936  19.662  -4.942  -9.578
32643SOL    HW299937   8.753 -15.912   1.493
32644SOL     OW99938   7.031   1.546   0.654
32644SOL    HW199939  29.090   1.553   0.747
32644SOL    HW299940  29.039  -9.546  11.657
32645SOL     OW99941   4.300   2.532   0.235
32645SOL    HW199942  26.443   2.603   0.244
32645SOL    HW299943   4.350  35.571   0.256
32646SOL     OW99944   9.965   5.975   1.151
32646SOL    HW199945   9.957  17.110   1.157
32646SOL    HW299946   9.876  16.982   1.168
32647SOL     OW99947   5.038   4.454   5.447
32647SOL    HW199948 -28.023   4.493   5.512
32647SOL    HW299949 -28.021  48.581   5.378
32648SOL     OW99950   1.016   6.103   5.436
32648SOL    HW199951   1.104   6.112  16.512
32648SOL    HW299952  12.021 -27.095   5.477
32649SOL     OW99953  10.379   4.678   0.477
32649SOL    HW199954  10.452   4.623   0.446
32649SOL    HW299955  10.381   4.754   0.419
32650SOL     OW99956   6.836   6.967   2.945
32650SOL    HW199957   6.755   6.918   2.962
32650SOL    HW299958   6.860   7.005   3.030
32651SOL     OW99959   1.702   1.727   6.159
32651SOL    HW199960  23.715   1.769   6.104
32651SOL    HW299961   1.753   1.800  17.236
32652SOL     OW99962   4.690   2.733   8.027
32652SOL    HW199963   4.672   2.686  -2.931
32652SOL    HW299964   4.657  -8.366   7.959
32653SOL     OW99965   0.402   0.881   2.200
32653SOL    HW199966   0.384   0.798   2.156
32653SOL    HW299967  11.531   0.902  -8.864
32654SOL     OW99968  10.590  10.124   3.947
32654SOL    HW199969  10.519  -0.979   3.957
32654SOL    HW299970  10.646 -23.031  14.918
32655SOL     OW99971   8.247   1.977   0.959
32655SOL    HW199972  19.357  -9.128   0.961
32655SOL    HW299973   8.220   1.982   0.868
32656SOL     OW99974  -0.172   6.414   5.630
32656SOL    HW199975  -0.238 -15.605  -5.443
32656SOL    HW299976  10.917   6.387   5.553
32657SOL     OW99977   0.363   9.344   6.746
32657SOL    HW199978   0.371  -1.601   6.733
32657SOL    HW299979   0.415   9.326  17.864
32658SOL     OW99980   8.425  10.097   3.903
32658SOL    HW199981   8.473  10.077   3.983
32658SOL    HW299982   8.474  21.208  25.942
32659SOL     OW99983   1.921   8.906   4.072
32659SOL    HW199984   1.931   8.962   4.149
32659SOL    HW299985  34.946   8.907   4.053
32660SOL     OW99986   1.637   9.960   5.380
32660SOL    HW199987   1.586   9.886   5.347
32660SOL    HW299988   1.719   9.957   5.331
32661SOL     OW99989   3.752   5.882  12.432
32661SOL    HW199990   3.818   5.894  -9.714
32661SOL    HW299991   3.765   5.792   1.423
32662SOL     OW99992   4.246   6.322   5.043
32662SOL    HW199993  15.376  17.354   5.010
32662SOL    HW299994   4.204   6.383   4.983
32663SOL     OW99995   1.317   9.638   1.866
32663SOL    HW199996   1.340   9.546 -20.197
32663SOL    HW299997  23.400   9.648   1.771
32664SOL     OW99998   8.882  11.281   5.122
32664SOL    HW199999   8.837   0.319   5.156
32664SOL    HW2    0   8.922  11.311 -28.078
32665SOL     OW    1   7.822  10.758   1.303
32665SOL    HW1    2   7.867  10.842   1.295
32665SOL    HW2    3   7.732  10.781   1.325
32666SOL     OW    4  11.352   2.776   7.708
32666SOL    HW1    5 -10.788  -8.306   7.768
32666SOL    HW2    6 -21.755 -30.255   7.743
32667SOL     OW    7   4.257   7.979   9.475
32667SOL    HW1    8   4.254   7.964  -1.470
32667SOL    HW2    9   4.245   8.073   9.466
32668SOL     OW   10   8.221   0.865   4.872
32668SOL    HW1   11   8.152   0.808  15.878
32668SOL    HW2   12  30.255   0.948  15.931
32669SOL     OW   13   5.564   6.327   5.270
32669SOL    HW1   14   5.614   6.384   5.328
32669SOL    HW2   15   5.597   6.347  -5.857
32670SOL     OW   16   0.828   1.349   9.594
32670SOL    HW1   17   0.907  34.514   9.565
32670SOL    HW2   18   0.808  34.508   9.679
32671SOL     OW   19   1.321   7.173   7.745
32671SOL    HW1   20  -9.768   7.151   7.666
32671SOL    HW2   21  -9.664   7.096   7.762
32672SOL     OW   22   9.581   7.058   3.566
32672SOL    HW1   23  20.553  18.038   3.597
32672SOL    HW2   24  -1.498   7.102  -7.549
32673SOL     OW   25   3.691   0.955   4.025
32673SOL    HW1   26   3.611  12.027  -7.057
32673SOL    HW2   27   3.702   0.866   3.991
32674SOL     OW   28   7.790   6.202  -0.510
32674SOL    HW1   29   7.878  17.234  21.534
32674SOL    HW2   30   7.740 -15.946  -0.553
32675SOL     OW   31   4.207   8.633   5.493
32675SOL    HW1   32   4.282   8.580 -27.653
32675SOL    HW2   33   4.244 -46.481   5.519
32676SOL     OW   34   1.634   5.729  10.698
32676SOL    HW1   35   1.704   5.792  10.717
32676SOL    HW2   36   1.679   5.652  -0.376
32677SOL     OW   37   4.543   2.870   9.043
32677SOL    HW1   38   4.460   2.829   9.020
32677SOL    HW2   39  15.617  13.857  -1.925
32678SOL     OW   40   7.012   6.386   0.574
32678SOL    HW1   41  -4.100   6.336   0.611
32678SOL    HW2   42   7.052  -4.610   0.649
32679SOL     OW   43   5.413   9.604   6.402
32679SOL    HW1   44   5.340   9.567   6.451
32679SOL    HW2   45   5.394   9.698   6.398
32680SOL     OW   46   2.242   7.395   7.845
32680SOL    HW1   47   2.270   7.366   7.758
32680SOL    HW2   48  57.346  29.491   7.836
32681SOL     OW   49   7.041   5.058   1.911
32681SOL    HW1   50   6.976   5.070   1.981
32681SOL    HW2   51   7.111   5.007  12.991
32682SOL     OW   52   9.578   0.140   4.476
32682SOL    HW1   53   9.549   0.172 -17.689
32682SOL    HW2   54   9.644   0.203  15.543
32683SOL     OW   55   7.819   0.423   2.818
32683SOL    HW1   56   7.900   0.446   2.772
32683SOL    HW2   57   7.835  11.375   2.853
32684SOL     OW   58   8.317   2.076  10.006
32684SOL    HW1   59  -2.633   2.058  10.035
32684SOL    HW2   60   8.262  13.054  -0.986
32685SOL     OW   61   2.521  -1.821   0.825
32685SOL    HW1   62  24.534  20.297   0.768
32685SOL    HW2   63   2.474  20.190   0.873
32686SOL     OW   64   8.000  -0.786   1.275
32686SOL    HW1   65 -25.120  -0.693   1.251
32686SOL    HW2   66  -3.128  21.262   1.257
32687SOL     OW   67  10.926  10.070   3.952
32687SOL    HW1   68  10.919  10.018   4.032
32687SOL    HW2   69  10.851  10.043   3.899
32688SOL     OW   70   2.168   7.640   6.453
32688SOL    HW1   71   2.150   7.724   6.411
32688SOL    HW2   72   2.100 -14.447  28.598
32689SOL     OW   73   7.297  10.935   2.243
32689SOL    HW1   74   7.314  10.994   2.170
32689SOL    HW2   75  18.248  10.903  -8.812
32690SOL     OW   76   7.954   4.539   5.224
32690SOL    HW1   77  -3.115   4.510   5.310
32690SOL    HW2   78   7.897   4.493   5.162
32691SOL     OW   79  10.149   4.410   5.378
32691SOL    HW1   80  21.135   4.390   5.301
32691SOL    HW2   81  10.134   4.336 -16.642
32692SOL     OW   82   6.887   5.121   2.127
32692SOL    HW1   83   6.814  16.206   2.085
32692SOL    HW2   84   6.875  -5.900   2.221
32693SOL     OW   85   2.449   8.434   7.458
32693SOL    HW1   86   2.401   8.362   7.417
32693SOL    HW2   87   2.416 -24.682   7.548
32694SOL     OW   88   9.437  10.464   5.003
32694SOL    HW1   89   9.392  10.419   4.932
32694SOL    HW2   90   9.530  10.457   4.981
32695SOL     OW   91   2.477   3.284   3.362
32695SOL    HW1   92  -8.481  14.334 -29.707
32695SOL    HW2   93   2.491   3.336   3.283
32696SOL     OW   94   3.628   6.762   3.915
32696SOL    HW1   95   3.556 -48.447   3.852
32696SOL    HW2   96  14.699 -15.228 -18.179
32697SOL     OW   97   3.140   0.251   7.552
32697SOL    HW1   98   3.091  11.372   7.566
32697SOL    HW2   99   3.200   0.247   7.627
32698SOL     OW  100   4.007   4.081   9.476
32698SOL    HW1  101  26.070 -17.904  -1.562
32698SOL    HW2  102   3.966   4.047   9.556
32699SOL     OW  103   2.267   3.448   3.603
32699SOL    HW1  104   2.236  25.613   3.631
32699SOL    HW2  105  -8.810   3.436   3.516
32700SOL     OW  106   2.830   2.155   9.382
32700SOL    HW1  107  13.957   2.147   9.344
32700SOL    HW2  108  13.866  24.323   9.416
32701SOL     OW  109   3.201   8.974   4.977
32701SOL    HW1  110  14.238   8.881   4.955
32701SOL    HW2  111   3.288   9.002  -6.091
32702SOL     OW  112   1.942   7.508   2.253
32702SOL    HW1  113   1.996   7.540   2.181
32702SOL    HW2  114  -9.181  18.594   2.243
32703SOL     OW  115   7.955   2.848  -0.111
32703SOL    HW1  116  30.085  -8.110  21.975
32703SOL    HW2  117   8.017   2.780  -0.085
32704SOL     OW  118   2.941   7.820  10.934
32704SOL    HW1  119   3.035 -14.247  10.918
32704SOL    HW2  120  -8.111   7.844  11.026
32705SOL     OW  121  -0.281   9.107   5.895
32705SOL    HW1  122  -0.257   9.177 -27.284
32705SOL    HW2  123  10.716   9.151  -5.072
32706SOL     OW  124   1.655   3.900   1.065
32706SOL    HW1  125   1.576   3.936   1.023
32706SOL    HW2  126   1.668   3.815   1.023
32707SOL     OW  127   6.971   4.699   0.035
32707SOL    HW1  128   6.880 -17.372   0.007
32707SOL    HW2  129  -4.018  -6.326  -0.044
32708SOL     OW  130   9.870   3.853   8.332
32708SOL    HW1  131   9.788  -7.142   8.309
32708SOL    HW2  132  20.893  -7.279   8.313
32709SOL     OW  133   6.546   0.914  10.819
32709SOL    HW1  134  17.649   0.931  10.749
32709SOL    HW2  135   6.582   0.958  10.896
32710SOL     OW  136   1.341  11.579   1.857
32710SOL    HW1  137   1.407   0.536   1.788
32710SOL    HW2  138   1.312  11.488   1.867
32711SOL     OW  139   1.045   2.076   6.843
32711SOL    HW1  140   1.022  13.029   6.879
32711SOL    HW2  141   0.998   2.138  17.939
32712SOL     OW  142   6.575   8.912   5.113
32712SOL    HW1  143   6.585   8.848   5.184
32712SOL    HW2  144   6.531   8.987   5.154
32713SOL     OW  145   2.472   7.840   2.313
32713SOL    HW1  146  13.470   7.759  13.380
32713SOL    HW2  147  24.492  18.949  -8.696
32714SOL     OW  148   4.028   1.237   6.898
32714SOL    HW1  149   4.017  -9.815   6.804
32714SOL    HW2  150   4.061   1.327   6.906
32715SOL     OW  151   3.136  10.924   3.326
32715SOL    HW1  152   3.096  10.995   3.277
32715SOL    HW2  153  14.264  10.917   3.291
32716SOL     OW  154   0.587   8.232   9.129
32716SOL    HW1  155   0.623   8.228   9.218
32716SOL    HW2  156   0.530   8.309   9.129
32717SOL     OW  157   4.948   8.771   7.037
32717SOL    HW1  158   4.987 -13.248   6.974
32717SOL    HW2  159   4.919   8.828  29.188
32718SOL     OW  160   7.663   5.270   3.964
32718SOL    HW1  161  18.767   5.272   4.035
32718SOL    HW2  162   7.593   5.328 -29.125
32719SOL     OW  163   3.243   3.380   8.215
32719SOL    HW1  164 -29.914  14.506  30.309
32719SOL    HW2  165 -18.858  25.440  30.203
32720SOL     OW  166   3.304   2.916   5.926
32720SOL    HW1  167   3.297   2.899  17.059
32720SOL    HW2  168   3.257   2.999   5.913
32721SOL     OW  169   7.285   4.608   1.164
32721SOL    HW1  170   7.313   4.620   1.254
32721SOL    HW2  171  29.359   4.696  12.167
32722SOL     OW  172   6.017   8.570   3.603
32722SOL    HW1  173  -5.096   8.612   3.560
32722SOL    HW2  174   6.081 -13.523   3.533
32723SOL     OW  175   0.523   9.854   8.605
32723SOL    HW1  176   0.436   9.883   8.580
32723SOL    HW2  177  11.575  20.811   8.558
32724SOL     OW  178  10.604   2.646   5.640
32724SOL    HW1  179 -11.511  13.706   5.554
32724SOL    HW2  180  10.695  13.661   5.623
32725SOL     OW  181   6.948   3.606   3.217
32725SOL    HW1  182   6.869  14.606   3.178
32725SOL    HW2  183  -4.024  25.619   3.205
32726SOL     OW  184  -0.013   4.448   3.422
32726SOL    HW1  185  10.934  15.466 -18.644
32726SOL    HW2  186  11.073   4.394   3.486
32727SOL     OW  187   6.732   8.616   7.705
32727SOL    HW1  188   6.759   8.657   7.623
32727SOL    HW2  189   6.811   8.613   7.758
32728SOL     OW  190   6.147   7.702  10.052
32728SOL    HW1  191   6.217   7.685 -11.964
32728SOL    HW2  192   6.138   7.798  21.090
32729SOL     OW  193   3.381   3.736   8.044
32729SOL    HW1  194   3.311  -7.343   8.096
32729SOL    HW2  195  25.450   3.696  30.037
32730SOL     OW  196   5.729   8.811   9.525
32730SOL    HW1  197   5.807   8.774   9.566
32730SOL    HW2  198 -16.319  -2.194   9.441
32731SOL     OW  199   4.437   9.234   4.330
32731SOL    HW1  200   4.370   9.190   4.277
32731SOL    HW2  201  15.447   9.325   4.335
32732SOL     OW  202   8.633   3.041   4.561
32732SOL    HW1  203   8.661   3.000   4.643
32732SOL    HW2  204  19.654  -7.908  15.625
32733SOL     OW  205   7.547   5.781   2.751
32733SOL    HW1  206   7.606   5.755  -8.218
32733SOL    HW2  207   7.519  16.738  13.750
32734SOL     OW  208   0.324   4.297   7.475
32734SOL    HW1  209  11.358  -6.834   7.504
32734SOL    HW2  210   0.356  15.384   7.552
32735SOL     OW  211   7.741   6.686   7.027
32735SOL    HW1  212  29.788   6.741   6.956
32735SOL    HW2  213   7.818  28.812   7.061
32736SOL     OW  214   3.951   5.044   1.521
32736SOL    HW1  215   3.929 -28.160   1.559
32736SOL    HW2  216   3.905  -5.932   1.575
32737SOL     OW  217   1.099   1.853   5.103
32737SOL    HW1  218   1.189   1.846  27.150
32737SOL    HW2  219   1.051   1.784   5.058
32738SOL     OW  220   2.438   6.573   3.863
32738SOL    HW1  221  13.384   6.552  -7.185
32738SOL    HW2  222   2.483  17.530   3.847
32739SOL     OW  223   7.390   4.871  11.015
32739SOL    HW1  224   7.400  15.924  10.920
32739SOL    HW2  225   7.364   4.957  11.048
32740SOL     OW  226  -0.173   8.612   1.372
32740SOL    HW1  227  10.782   8.581   1.340
32740SOL    HW2  228  -0.194  -2.348   1.421
32741SOL     OW  229   1.132   2.443  10.474
32741SOL    HW1  230   1.163  13.496  10.384
32741SOL    HW2  231   1.107  13.391  10.478
32742SOL     OW  232   3.580   1.910   6.346
32742SOL    HW1  233  25.741   1.904  -4.744
32742SOL    HW2  234  25.646   2.004   6.357
32743SOL     OW  235   9.390   6.766   6.826
32743SOL    HW1  236  -1.706   6.842   6.841
32743SOL    HW2  237   9.352  28.800   6.751
32744SOL     OW  238   2.769   2.596  -1.157
32744SOL    HW1  239   2.794  13.578  20.994
32744SOL    HW2  240   2.813   2.559  -1.234
32745SOL     OW  241   6.585   2.408   3.615
32745SOL    HW1  242  17.625   2.487   3.560
32745SOL    HW2  243  17.547   2.359   3.586
32746SOL     OW  244   1.914   0.256   4.830
32746SOL    HW1  245  12.882   0.316   4.852
32746SOL    HW2  246  46.130  11.298   4.906
32747SOL     OW  247   3.697   0.233   6.890
32747SOL    HW1  248   3.702   0.160   6.828
32747SOL    HW2  249   3.776   0.224   6.944
32748SOL     OW  250   4.597   6.446   8.441
32748SOL    HW1  251   4.684  17.510  19.513
32748SOL    HW2  252   4.614   6.389   8.366
32749SOL     OW  253   2.185   0.261   5.713
32749SOL    HW1  254   2.229   0.315  38.766
32749SOL    HW2  255   2.110   0.315   5.741
32750SOL     OW  256  -0.340  12.569   8.139
32750SOL    HW1  257  43.794  12.651  -2.859
32750SOL    HW2  258  -0.292 -31.637  -2.832
32751SOL     OW  259  -0.575   1.276   0.290
32751SOL    HW1  260  10.402  23.428   0.295
32751SOL    HW2  261  -0.627   1.199   0.314
32752SOL     OW  262  12.008   7.401   8.347
32752SOL    HW1  263  12.037  -3.713   8.295
32752SOL    HW2  264 -10.015   7.399  -2.615
32753SOL     OW  265   2.147   2.807  10.477
32753SOL    HW1  266  -8.935   2.840  10.397
32753SOL    HW2  267   2.134   2.713  10.474
32754SOL     OW  268   0.777   9.444   4.613
32754SOL    HW1  269   0.776  20.390   4.591
32754SOL    HW2  270   0.726   9.485   4.544
32755SOL     OW  271   2.090  11.389   7.731
32755SOL    HW1  272  -8.896  11.442   7.670
32755SOL    HW2  273 -20.075   0.391   7.729
32756SOL     OW  274   9.025   6.427   0.880
32756SOL    HW1  275   9.066   6.412  11.834
32756SOL    HW2  276  31.075   6.341  11.948
32757SOL     OW  277   1.460   9.546  10.327
32757SOL    HW1  278  12.591   9.562  21.389
32757SOL    HW2  279 -20.664  20.582  10.411
32758SOL     OW  280   6.709   7.658   9.873
32758SOL    HW1  281   6.719   7.752  20.901
32758SOL    HW2  282   6.619   7.640   9.845
32759SOL     OW  283   8.508   9.687   2.773
32759SOL    HW1  284   8.476   9.744   2.843
32759SOL    HW2  285   8.603   9.700   2.773
32760SOL     OW  286  12.008  10.920  -1.002
32760SOL    HW1  287  12.041  10.976  21.147
32760SOL    HW2  288 -21.195  10.888  -0.969
32761SOL     OW  289   4.339   3.398   7.560
32761SOL    HW1  290   4.353  14.454   7.467
32761SOL    HW2  291   4.395   3.323  18.620
32762SOL     OW  292   8.079   7.042   2.488
32762SOL    HW1  293   8.158  -3.951   2.459
32762SOL    HW2  294   8.011  18.109   2.426
32763SOL     OW  295   4.770   2.924   7.051
32763SOL    HW1  296  26.790   2.892  29.197
32763SOL    HW2  297   4.827   2.850  -4.008
32764SOL     OW  298   7.408  10.499   9.886
32764SOL    HW1  299  18.444  -0.511   9.795
32764SOL    HW2  300   7.376 -11.506   9.937
32765SOL     OW  301   4.858   8.921   1.556
32765SOL    HW1  302   4.786   8.984   1.559
32765SOL    HW2  303   4.854  19.925  23.546
32766SOL     OW  304   3.013   3.898   1.730
32766SOL    HW1  305   2.972  14.952   1.815
32766SOL    HW2  306   2.949  14.968   1.666
32767SOL     OW  307   7.621   2.790  10.277
32767SOL    HW1  308   7.628   2.884  10.295
32767SOL    HW2  309  -3.329  24.841  -0.779
32768SOL     OW  310   6.228   1.139   0.012
32768SOL    HW1  311  -4.863  12.257  -0.006
32768SOL    HW2  312   6.213   1.121   0.105
32769SOL     OW  313   8.675   7.929   7.042
32769SOL    HW1  314 -13.438   7.896 -15.121
32769SOL    HW2  315   8.642   7.867   7.107
32770SOL     OW  316   7.915   5.008  10.732
32770SOL    HW1  317  -3.040   4.966  10.750
32770SOL    HW2  318   7.936   5.079  10.671
32771SOL     OW  319  -0.361   0.640   9.619
32771SOL    HW1  320  -0.309   0.570   9.579
32771SOL    HW2  321  10.735   0.675   9.688
32772SOL     OW  322   8.113   1.941   8.773
32772SOL    HW1  323   8.039   1.912   8.825
32772SOL    HW2  324   8.118  24.114   8.787
32773SOL     OW  325   8.927   1.262   5.917
32773SOL    HW1  326   8.990   1.294   5.852
32773SOL    HW2  327  42.063   1.168   5.923
32774SOL     OW  328   4.474   6.874  11.457
32774SOL    HW1  329   4.394  -4.215  11.477
32774SOL    HW2  330  -6.505   6.852 -10.552
32775SOL     OW  331   1.623   2.380   4.104
32775SOL    HW1  332   1.578   2.454   4.146
32775SOL    HW2  333   1.670   2.338   4.176
32776SOL     OW  334   9.432  -0.183   4.833
32776SOL    HW1  335  20.565  -0.165  15.881
32776SOL    HW2  336  20.432  21.982   4.820
32777SOL     OW  337   2.576   2.349   5.116
32777SOL    HW1  338 -19.550   2.303 -27.933
32777SOL    HW2  339   2.668   2.344 -27.979
32778SOL     OW  340   7.017   3.620   7.923
32778SOL    HW1  341 -15.049   3.529   7.948
32778SOL    HW2  342   7.098   3.644   7.878
32779SOL     OW  343   1.293   1.845   1.777
32779SOL    HW1  344   1.306   1.812   1.866
32779SOL    HW2  345   1.249  12.968   1.788
32780SOL     OW  346   8.968   1.116   6.209
32780SOL    HW1  347   8.935   1.206   6.199
32780SOL    HW2  348   8.941   1.071   6.129
32781SOL     OW  349   9.668   3.606   5.925
32781SOL    HW1  350 -12.370   3.608   6.011
32781SOL    HW2  351   9.578  -7.403  16.980
32782SOL     OW  352   2.251   8.433   3.779
32782SOL    HW1  353 -19.767   8.409   3.710
32782SOL    HW2  354   2.169   8.455   3.734
32783SOL     OW  355   9.731   7.913  -1.110
32783SOL    HW1  356   9.641  -3.095  32.010
32783SOL    HW2  357   9.724 -14.260  20.982
32784SOL     OW  358   9.318   2.527   0.057
32784SOL    HW1  359 -23.731 -30.551 -10.931
32784SOL    HW2  360   9.241  -8.510  11.154
32785SOL     OW  361   1.250   1.561   2.567
32785SOL    HW1  362   1.268  23.718  -8.526
32785SOL    HW2  363  -9.868  23.662  24.695
32786SOL     OW  364   6.074   7.472  11.215
32786SOL    HW1  365   6.069   7.532 -10.790
32786SOL    HW2  366  -5.042   7.494  11.161
32787SOL     OW  367   6.475   6.898   3.068
32787SOL    HW1  368   6.404   6.841 -19.040
32787SOL    HW2  369   6.555   6.849   3.049
32788SOL     OW  370   8.457   7.693   2.849
32788SOL    HW1  371   8.483   7.628  47.072
32788SOL    HW2  372   8.377   7.731  36.003
32789SOL     OW  373   5.176   3.701   0.994
32789SOL    HW1  374   5.254  -7.336   1.049
32789SOL    HW2  375  16.186   3.610   0.999
32790SOL     OW  376   7.888   6.531   1.302
32790SOL    HW1  377   7.888   6.586   1.380
32790SOL    HW2  378   7.971   6.483   1.308
32791SOL     OW  379  11.941   8.120   6.478
32791SOL    HW1  380  12.004   8.191   6.489
32791SOL    HW2  381 -10.091   8.042 -15.571
32792SOL     OW  382   6.078   4.071  10.883
32792SOL    HW1  383   6.031   4.152  10.905
32792SOL    HW2  384  17.094   4.054  10.792
32793SOL     OW  385   9.800   9.556   5.347
32793SOL    HW1  386   9.893  -1.469   5.328
32793SOL    HW2  387   9.758   9.640  16.367
32794SOL     OW  388   7.584   9.850   8.854
32794SOL    HW1  389   7.612  20.897   8.946
32794SOL    HW2  390   7.630   9.922  19.850
32795SOL     OW  391   4.616   1.753  10.286
32795SOL    HW1  392   4.655  -9.310  10.370
32795SOL    HW2  393   4.632  23.926  10.278
32796SOL     OW  394  10.107   5.080   8.398
32796SOL    HW1  395  -0.925   5.176   8.406
32796SOL    HW2  396  10.042   5.056   8.463
32797SOL     OW  397   1.500   3.735   2.242
32797SOL    HW1  398   1.450   3.768   2.316
32797SOL    HW2  399   1.506   3.809   2.182
32798SOL     OW  400   8.831   8.623   3.716
32798SOL    HW1  401   8.743  19.643   3.748
32798SOL    HW2  402   8.831   8.717   3.699
32799SOL     OW  403   4.530   0.561   0.806
32799SOL    HW1  404   4.507   0.652   0.791
32799SOL    HW2  405   4.557   0.558   0.898
32800SOL     OW  406   9.476   2.778   0.070
32800SOL    HW1  407   9.476   2.828   0.151
32800SOL    HW2  408  -1.636   2.813  11.059
32801SOL     OW  409   4.764  -0.024   0.761
32801SOL    HW1  410  15.817   0.036   0.834
32801SOL    HW2  411   4.682  11.043   0.721
32802SOL     OW  412   7.729   1.425   4.584
32802SOL    HW1  413   7.664   1.495 -17.496
32802SOL    HW2  414  18.717  12.384  37.693
32803SOL     OW  415   6.679   3.280   5.921
32803SOL    HW1  416   6.713  25.427  17.018
32803SOL    HW2  417  -4.455  36.400   5.936
32804SOL     OW  418   9.374   0.545   3.275
32804SOL    HW1  419  20.356  11.593  14.239
32804SOL    HW2  420   9.378  22.712  -7.727
32805SOL     OW  421   0.389   8.784   2.646
32805SOL    HW1  422   0.337   8.857   2.611
32805SOL    HW2  423   0.354   8.707   2.602
32806SOL     OW  424  10.817   6.832   7.467
32806SOL    HW1  425  10.743   6.772   7.458
32806SOL    HW2  426  10.888   6.776   7.500
32807SOL     OW  427   1.460  11.324   4.057
32807SOL    HW1  428  -9.663  11.276   4.063
32807SOL    HW2  429   1.484   0.279   3.964
32808SOL     OW  430   0.005   2.347  11.929
32808SOL    HW1  431   0.045  13.440   0.821
32808SOL    HW2  432  -0.088  13.409 -10.153
32809SOL     OW  433   7.938   6.392   4.112
32809SOL    HW1  434   8.022   6.410   4.071
32809SOL    HW2  435  -3.085 -37.838   4.173
32810SOL     OW  436   5.415   3.961   8.369
32810SOL    HW1  437   5.412   3.868 -24.727
32810SOL    HW2  438   5.367   3.967 -46.911
32811SOL     OW  439  -0.268   3.141   5.975
32811SOL    HW1  440  10.839  -7.869   5.914
32811SOL    HW2  441  -0.331   3.213   5.979
32812SOL     OW  442   6.810   3.367   6.976
32812SOL    HW1  443   6.841  36.456  -3.978
32812SOL    HW2  444   6.884 -18.663  17.979
32813SOL     OW  445   8.571   3.336   5.251
32813SOL    HW1  446   8.603   3.249  27.306
32813SOL    HW2  447  -2.432   3.351  16.378
32814SOL     OW  448   6.200  10.386   8.969
32814SOL    HW1  449   6.160  10.421  -1.991
32814SOL    HW2  450   6.171  10.295   8.966
32815SOL     OW  451   5.796   0.261   9.896
32815SOL    HW1  452 -27.406   0.235   9.934
32815SOL    HW2  453   5.861   0.240   9.963
32816SOL     OW  454   6.388   7.732   2.069
32816SOL    HW1  455   6.442  -3.231   2.086
32816SOL    HW2  456  -4.636   7.673  13.182
32817SOL     OW  457   4.382   3.857   9.729
32817SOL    HW1  458   4.438   3.931 -12.375
32817SOL    HW2  459   4.359   3.815   9.645
32818SOL     OW  460   2.901   7.841  10.652
32818SOL    HW1  461  -8.125  29.918  10.747
32818SOL    HW2  462  -8.068   7.898  -0.419
32819SOL     OW  463   1.246   7.237   8.908
32819SOL    HW1  464 -20.842   7.159   8.963
32819SOL    HW2  465   1.169   7.289   8.929
32820SOL     OW  466   4.209   5.053   3.834
32820SOL    HW1  467  -6.866  16.153   3.899
32820SOL    HW2  468  -6.736  38.188   3.835
32821SOL     OW  469   5.016   6.012   9.714
32821SOL    HW1  470   5.043  17.111   9.644
32821SOL    HW2  471   5.060   6.046   9.792
32822SOL     OW  472  10.658   3.061   3.195
32822SOL    HW1  473  10.709  -7.975  14.316
32822SOL    HW2  474  10.567  -7.981   3.225
32823SOL     OW  475   9.793   6.152   2.693
32823SOL    HW1  476   9.772   6.079  35.870
32823SOL    HW2  477   9.792  -4.810   2.750
32824SOL     OW  478  -0.460   2.892   5.390
32824SOL    HW1  479  -0.442  13.990   5.316
32824SOL    HW2  480  21.642   2.805  16.397
32825SOL     OW  481   5.972   6.138   4.665
32825SOL    HW1  482  17.080   6.199   4.693
32825SOL    HW2  483   6.004   6.103   4.582
32826SOL     OW  484   2.105   2.462  11.412
32826SOL    HW1  485   2.054   2.459 -10.586
32826SOL    HW2  486  -8.850   2.423  11.436
32827SOL     OW  487   5.186   7.153  11.378
32827SOL    HW1  488  -5.802  29.220  11.458
32827SOL    HW2  489   5.099   7.176   0.370
32828SOL     OW  490   8.353   3.087   3.099
32828SOL    HW1  491   8.348   3.133  25.262
32828SOL    HW2  492   8.352   2.994  14.161
32829SOL     OW  493   7.270   3.370   2.365
32829SOL    HW1  494  29.442   3.390  24.431
32829SOL    HW2  495  18.286  14.354   2.291
32830SOL     OW  496   7.444   2.946   9.468
32830SOL    HW1  497   7.444   2.851  -1.559
32830SOL    HW2  498   7.419  25.036   9.376
32831SOL     OW  499   3.552   1.542   5.537
32831SOL    HW1  500   3.592  12.642   5.474
32831SOL    HW2  501  36.656   1.462   5.488
32832SOL     OW  502   6.804   7.374   9.064
32832SOL    HW1  503   6.852   7.296   9.093
32832SOL    HW2  504  28.846   7.348   8.979
32833SOL     OW  505   8.979   3.833   6.541
32833SOL    HW1  506   9.038   3.850 -15.465
32833SOL    HW2  507   8.971   3.917  -4.543
32834SOL     OW  508   9.384   5.213   9.658
32834SOL    HW1  509   9.471   5.221   9.699
32834SOL    HW2  510   9.402  27.291   9.564
32835SOL     OW  511   7.245   3.575   2.020
32835SOL    HW1  512   7.160   3.590   1.978
32835SOL    HW2  513   7.258   3.481  13.055
32836SOL     OW  514   4.948   4.961   8.903
32836SOL    HW1  515   5.022  -6.026   8.874
32836SOL    HW2  516  -6.052   4.889  -2.088
32837SOL     OW  517  10.100   8.552   8.986
32837SOL    HW1  518  21.088   8.628  -2.080
32837SOL    HW2  519  10.037   8.480   8.989
32838SOL     OW  520   4.360   5.503  10.727
32838SOL    HW1  521   4.377   5.496  10.633
32838SOL    HW2  522   4.444  -5.512 -22.354
32839SOL     OW  523   6.356   0.475   7.593
32839SOL    HW1  524   6.382   0.542  18.695
32839SOL    HW2  525   6.272  11.483   7.625
32840SOL     OW  526  10.397   5.513   5.192
32840SOL    HW1  527  -0.651   5.577   5.122
32840SOL    HW2  528  10.307   5.494  27.298
32841SOL     OW  529   0.561   9.723  10.678
32841SOL    HW1  530   0.642  -1.267  10.671
32841SOL    HW2  531   0.495   9.789  -0.337
32842SOL     OW  532   6.401   7.608   6.296
32842SOL    HW1  533   6.466  18.605   6.352
32842SOL    HW2  534   6.426   7.700   6.295
32843SOL     OW  535   1.357  10.163   8.582
32843SOL    HW1  536   1.346  10.258   8.585
32843SOL    HW2  537  12.351  10.137   8.502
32844SOL     OW  538   4.230   1.299   5.925
32844SOL    HW1  539  -6.812   1.306   6.021
32844SOL    HW2  540  37.366   1.206   5.908
32845SOL     OW  541   8.398  -0.749   1.267
32845SOL    HW1  542  19.390  -0.788  -9.699
32845SOL    HW2  543   8.331  32.384   1.200
32846SOL     OW  544   5.383   9.870   0.795
32846SOL    HW1  545   5.368  20.997   0.830
32846SOL    HW2  546 -16.766   9.817 -10.207
32847SOL     OW  547   0.122   2.709   4.625
32847SOL    HW1  548  22.286   2.752   4.615
32847SOL    HW2  549   0.066  13.791  15.600
32848SOL     OW  550  13.306   9.883   6.561
32848SOL    HW1  551 -30.781   9.874   6.497
32848SOL    HW2  552  13.301  20.836   6.603
32849SOL     OW  553   5.547   4.458   0.333
32849SOL    HW1  554   5.504   4.451   0.248
32849SOL    HW2  555   5.538   4.551   0.357
32850SOL     OW  556   1.054   8.665   9.001
32850SOL    HW1  557   1.033   8.743  31.131
32850SOL    HW2  558   1.003  19.635   9.041
32851SOL     OW  559   7.408   4.151   2.326
32851SOL    HW1  560   7.487  -6.888 -19.699
32851SOL    HW2  561   7.372   4.239   2.334
32852SOL     OW  562   8.278   1.254   5.340
32852SOL    HW1  563   8.365   1.291  27.410
32852SOL    HW2  564   8.226   1.323  -5.659
32853SOL     OW  565  10.950   5.984   8.078
32853SOL    HW1  566  -0.174  16.978 -14.005
32853SOL    HW2  567  21.993   6.034   7.997
32854SOL     OW  568   6.767   9.417  11.405
32854SOL    HW1  569 -15.400   9.407 -10.711
32854SOL    HW2  570   6.757   9.397  11.498
32855SOL     OW  571   8.465   1.230   3.688
32855SOL    HW1  572 -13.699  23.278  -7.383
32855SOL    HW2  573   8.522   1.225   3.611
32856SOL     OW  574   9.262   3.165   4.889
32856SOL    HW1  575   9.186   3.110  37.987
32856SOL    HW2  576   9.318  36.228   4.942
32857SOL     OW  577   2.398   4.266   6.446
32857SOL    HW1  578  -8.669   4.259   6.538
32857SOL    HW2  579   2.488  15.273   6.446
32858SOL     OW  580   7.604  10.658  10.410
32858SOL    HW1  581   7.646  10.591  10.356
32858SOL    HW2  582  -3.487  -0.330  -0.690
32859SOL     OW  583   3.387   4.790   6.332
32859SOL    HW1  584   3.466  37.961   6.348
32859SOL    HW2  585   3.318   4.855   6.319
32860SOL     OW  586   5.906   1.249   3.208
32860SOL    HW1  587   5.978  -9.791  -7.768
32860SOL    HW2  588   5.900   1.158   3.179
32861SOL     OW  589   7.451   4.971   7.936
32861SOL    HW1  590  -3.683  27.051   7.920
32861SOL    HW2  591   7.471  15.920   7.959
32862SOL     OW  592   1.152   9.956   8.427
32862SOL    HW1  593   1.212   9.896   8.470
32862SOL    HW2  594  -9.938 -23.124  -2.541
32863SOL     OW  595   6.505  10.883  10.200
32863SOL    HW1  596   6.590 -11.188  10.244
32863SOL    HW2  597   6.527 -11.216  21.149
32864SOL     OW  598   6.946   6.622   8.035
32864SOL    HW1  599   7.039   6.606   8.022
32864SOL    HW2  600   6.927   6.585 -13.958
32865SOL     OW  601   8.673  10.305   2.800
32865SOL    HW1  602   8.763  10.325   2.823
32865SOL    HW2  603   8.652  10.364   2.727
32866SOL     OW  604   0.818   9.945   7.160
32866SOL    HW1  605   0.834  -1.074   7.252
32866SOL    HW2  606   0.732  21.021   7.141
32867SOL     OW  607  10.585   4.343  11.628
32867SOL    HW1  608  10.597   4.415  11.567
32867SOL    HW2  609  10.617  -6.774   0.542
32868SOL     OW  610   4.154   6.524   9.983
32868SOL    HW1  611  -6.860  -4.509   9.891
32868SOL    HW2  612 -17.922   6.615  10.015
32869SOL     OW  613  11.799   9.689   2.819
32869SOL    HW1  614   0.714  20.811   2.838
32869SOL    HW2  615 -21.316   9.643   2.903
32870SOL     OW  616   4.082   1.934   6.159
32870SOL    HW1  617   4.114   1.849   6.190
32870SOL    HW2  618   4.073   1.922   6.064
32871SOL     OW  619   9.706  10.470   4.604
32871SOL    HW1  620   9.699  10.402  15.710
32871SOL    HW2  621   9.779  10.442   4.549
32872SOL     OW  622   7.911   8.975  10.333
32872SOL    HW1  623  -3.035  31.036  10.322
32872SOL    HW2  624   7.869   8.930  10.260
32873SOL     OW  625  11.000   1.062   2.131
32873SOL    HW1  626  11.009   0.988   2.072
32873SOL    HW2  627  11.040  12.175   2.084
32874SOL     OW  628   4.937   8.077   2.297
32874SOL    HW1  629  16.025  19.078   2.371
32874SOL    HW2  630  27.007  30.084   2.235
32875SOL     OW  631   5.865   5.351   0.351
32875SOL    HW1  632   5.952   5.390  11.380
32875SOL    HW2  633   5.820   5.369   0.269
32876SOL     OW  634   0.716   9.765   9.089
32876SOL    HW1  635   0.723  -1.291  -2.045
32876SOL    HW2  636   0.648   9.832  31.176
32877SOL     OW  637   9.694   6.859  10.145
32877SOL    HW1  638   9.697  17.991  21.209
32877SOL    HW2  639  31.716  28.897  10.210
32878SOL     OW  640   3.223   3.639   5.515
32878SOL    HW1  641  14.240 -18.533   5.511
32878SOL    HW2  642  14.196 -29.441  -5.468
32879SOL     OW  643   7.546   7.408   0.235
32879SOL    HW1  644   7.597   7.327  22.321
32879SOL    HW2  645  18.650   7.478 -10.801
32880SOL     OW  646   8.715   6.800   5.043
32880SOL    HW1  647   8.670   6.716   5.038
32880SOL    HW2  648   8.648   6.863  27.150
32881SOL     OW  649   1.347  10.441   8.563
32881SOL    HW1  650   1.270  21.535 -35.614
32881SOL    HW2  651   1.410  -0.538  -2.437
32882SOL     OW  652  10.888   4.239   3.207
32882SOL    HW1  653  10.975   4.212   3.236
32882SOL    HW2  654  10.899   4.261   3.114
32883SOL     OW  655   7.953   3.453   5.362
32883SOL    HW1  656  -3.074  14.408   5.404
32883SOL    HW2  657  30.101  14.548   5.399
32884SOL     OW  658   6.731   7.966   1.198
32884SOL    HW1  659   6.804  -3.135   1.201
32884SOL    HW2  660  28.806   7.994  12.146
32885SOL     OW  661  10.707   2.875   3.819
32885SOL    HW1  662  10.623  13.889   3.781
32885SOL    HW2  663  10.697   2.969  14.878
32886SOL     OW  664   8.900  10.711   0.555
32886SOL    HW1  665   8.812  10.748   0.544
32886SOL    HW2  666  -2.149  10.651   0.629
32887SOL     OW  667  12.152   8.795   7.900
32887SOL    HW1  668  -9.929   8.741 -36.179
32887SOL    HW2  669 -10.014  30.913   7.896
32888SOL     OW  670   0.867   6.227   3.554
32888SOL    HW1  671   0.863  28.212  14.580
32888SOL    HW2  672   0.906   6.262   3.473
32889SOL     OW  673  -0.412   7.918   5.894
32889SOL    HW1  674  10.702   7.908   5.835
32889SOL    HW2  675  -0.446   7.829   5.904
32890SOL     OW  676   4.756  -1.826   5.975
32890SOL    HW1  677   4.826  31.351  17.044
32890SOL    HW2  678  -6.239   9.136 -38.216
32891SOL     OW  679   2.101   3.506   2.763
32891SOL    HW1  680   2.130   3.428   2.809
32891SOL    HW2  681   2.098   3.480  35.789
32892SOL     OW  682   0.742   0.266   7.591
32892SOL    HW1  683   0.804   0.339   7.595
32892SOL    HW2  684   0.766   0.210   7.665
32893SOL     OW  685   1.865   8.558   4.963
32893SOL    HW1  686  12.900   8.654   4.971
32893SOL    HW2  687  12.828  19.566   5.011
32894SOL     OW  688   3.862   8.235  10.403
32894SOL    HW1  689   3.944  19.227  10.394
32894SOL    HW2  690   3.796   8.166  10.413
32895SOL     OW  691   0.596   4.874   9.421
32895SOL    HW1  692  11.699   4.803  20.470
32895SOL    HW2  693 -10.403   4.934   9.358
32896SOL     OW  694   8.661   4.026  -0.471
32896SOL    HW1  695   8.710  26.146  -0.543
32896SOL    HW2  696   8.606   3.961  10.526
32897SOL     OW  697   0.492   6.123   7.800
32897SOL    HW1  698   0.405   6.154   7.774
32897SOL    HW2  699   0.537   6.202   7.829
32898SOL     OW  700   4.156   4.147   3.203
32898SOL    HW1  701   4.251  15.181   3.197
32898SOL    HW2  702   4.140   4.215  14.308
32899SOL     OW  703   9.527   9.302  10.505
32899SOL    HW1  704   9.594   9.357  10.546
32899SOL    HW2  705  31.560  -1.678  -0.594
32900SOL     OW  706   6.605   7.224   0.748
32900SOL    HW1  707   6.559   7.307   0.730
32900SOL    HW2  708  -4.505  62.360   0.770
32901SOL     OW  709  11.683  12.127  10.899
32901SOL    HW1  710  11.754 -10.004  10.937
32901SOL    HW2  711 -10.402  12.204 -11.124
32902SOL     OW  712   2.340   6.062   2.858
32902SOL    HW1  713   2.279  -4.925   2.909
32902SOL    HW2  714   2.406   6.034  -8.118
32903SOL     OW  715   7.565   7.510   8.266
32903SOL    HW1  716   7.504  -3.458   8.282
32903SOL    HW2  717   7.513  18.470  30.356
32904SOL     OW  718   6.376  10.711   7.693
32904SOL    HW1  719 -15.760  10.661   7.635
32904SOL    HW2  720   6.439  -0.392  -3.313
32905SOL     OW  721   2.639   5.603   1.447
32905SOL    HW1  722   2.547  27.664   1.468
32905SOL    HW2  723   2.652  -5.346 -20.607
32906SOL     OW  724  11.141   9.755   1.745
32906SOL    HW1  725   0.109 -12.233   1.773
32906SOL    HW2  726  11.071  -1.283   1.680
32907SOL     OW  727   2.640   6.274   6.078
32907SOL    HW1  728   2.706   6.234   6.136
32907SOL    HW2  729   2.691   6.325   6.015
32908SOL     OW  730   3.239   9.980   3.281
32908SOL    HW1  731   3.236  10.061   3.231
32908SOL    HW2  732   3.313   9.932   3.244
32909SOL     OW  733   9.414   8.980   5.691
32909SOL    HW1  734   9.447   9.067  -5.326
32909SOL    HW2  735   9.454 -13.118   5.606
32910SOL     OW  736   3.814   8.536   6.260
32910SOL    HW1  737  -7.295 -35.685  17.317
32910SOL    HW2  738   3.810   8.552   6.166
32911SOL     OW  739   1.627   8.487   5.098
32911SOL    HW1  740   1.539   8.513  16.164
32911SOL    HW2  741   1.654   8.423   5.164
32912SOL     OW  742   5.037   4.279   5.719
32912SOL    HW1  743   4.950   4.298  16.722
32912SOL    HW2  744   5.050  26.424  -5.253
32913SOL     OW  745  12.793   1.592   9.820
32913SOL    HW1  746  12.705  12.657  20.886
32913SOL    HW2  747 -20.294   1.665   9.767
32914SOL     OW  748   2.117   1.809   7.291
32914SOL    HW1  749  13.241   1.841  18.300
32914SOL    HW2  750   2.078   1.768   7.214
32915SOL     OW  751   3.737   5.898   4.012
32915SOL    HW1  752  14.867   5.865   4.008
32915SOL    HW2  753   3.687   5.839   3.957
32916SOL     OW  754   7.113   7.389   2.950
32916SOL    HW1  755   7.151   7.448   3.016
32916SOL    HW2  756   7.019 -25.712   2.953
32917SOL     OW  757   6.866   3.695   8.970
32917SOL    HW1  758   6.916   3.653   8.901
32917SOL    HW2  759   6.869   3.788   8.949
32918SOL     OW  760   6.428   9.201   5.920
32918SOL    HW1  761   6.394   9.112  28.008
32918SOL    HW2  762   6.401  31.307  16.872
32919SOL     OW  763   6.442   8.801   4.655
32919SOL    HW1  764  17.485  -2.196   4.741
32919SOL    HW2  765   6.349 -24.329  15.677
32920SOL     OW  766  -1.515   1.765  10.604
32920SOL    HW1  767   9.552   1.701  10.670
32920SOL    HW2  768  20.549  46.004  10.653
32921SOL     OW  769  11.486   2.076   8.907
32921SOL    HW1  770  11.426   2.023   8.854
32921SOL    HW2  771 -10.534  -8.923   8.843
32922SOL     OW  772   9.093   4.346  10.394
32922SOL    HW1  773   9.026  15.441 -11.726
32922SOL    HW2  774  31.201   4.288  10.323
32923SOL     OW  775   1.272   9.713   5.920
32923SOL    HW1  776  12.285   9.739  -5.031
32923SOL    HW2  777   1.367   9.716   5.922
32924SOL     OW  778  -1.223   8.651   2.919
32924SOL    HW1  779  -1.254   8.651   3.009
32924SOL    HW2  780  20.812   8.576 -30.240
32925SOL     OW  781   4.555  -0.687   3.086
32925SOL    HW1  782 -28.516  21.441   3.019
32925SOL    HW2  783  -6.576  -0.685   3.057
32926SOL     OW  784   5.028   6.887   8.415
32926SOL    HW1  785  16.116   6.810  30.463
32926SOL    HW2  786   5.039  -4.154 -13.569
32927SOL     OW  787   5.435   0.664   7.192
32927SOL    HW1  788   5.518   0.711   7.196
32927SOL    HW2  789   5.457   0.576 -14.855
32928SOL     OW  790   2.858   4.489   2.180
32928SOL    HW1  791   2.950  -6.528   2.170
32928SOL    HW2  792  -8.229   4.566  -8.890
32929SOL     OW  793   2.998   2.954   8.462
32929SOL    HW1  794  -8.037  14.087   8.443
32929SOL    HW2  795 -19.001   2.918   8.424
32930SOL     OW  796   8.822   9.528   7.394
32930SOL    HW1  797   8.805  -1.573   7.466
32930SOL    HW2  798   8.785   9.611   7.423
32931SOL     OW  799   0.593   1.993   4.777
32931SOL    HW1  800   0.523   1.928   4.773
32931SOL    HW2  801   0.656   1.956   4.840
32932SOL     OW  802   8.644   9.641  10.559
32932SOL    HW1  803 -13.359   9.638  -0.538
32932SOL    HW2  804   8.678   9.611  10.644
32933SOL     OW  805   3.828   6.139   3.043
32933SOL    HW1  806  25.932   6.177   2.959
32933SOL    HW2  807  25.818   6.169   3.058
32934SOL     OW  808   9.730   2.947   0.460
32934SOL    HW1  809   9.761   2.956   0.370
32934SOL    HW2  810  20.804  14.064   0.505
32935SOL     OW  811   7.990   9.679   4.960
32935SOL    HW1  812  18.938  20.743 -17.135
32935SOL    HW2  813   7.985   9.610 -17.053
32936SOL     OW  814   9.431   5.741   0.567
32936SOL    HW1  815   9.513   5.782  11.578
32936SOL    HW2  816 -12.621   5.677   0.632
32937SOL     OW  817   6.789   8.144   9.019
32937SOL    HW1  818  17.764   8.167   9.086
32937SOL    HW2  819   6.842  -2.964   9.060
32938SOL     OW  820   7.321   9.500   5.379
32938SOL    HW1  821   7.349   9.531   5.293
32938SOL    HW2  822  29.455   9.423   5.395
32939SOL     OW  823   3.665   3.651   1.457
32939SOL    HW1  824   3.650   3.733  12.544
32939SOL    HW2  825   3.759  25.713  12.507
32940SOL     OW  826   9.943   7.625   9.742
32940SOL    HW1  827   9.853 -25.517   9.722
32940SOL    HW2  828   9.957  -3.331  -1.343
32941SOL     OW  829  10.309   5.931  11.559
32941SOL    HW1  830  10.375  16.934  11.500
32941SOL    HW2  831  10.249   5.858 -10.503
32942SOL     OW  832   5.474   5.001   7.586
32942SOL    HW1  833   5.507   4.941  18.558
32942SOL    HW2  834   5.535  16.030  -3.381
32943SOL     OW  835   5.720   2.360   4.293
32943SOL    HW1  836  27.732   2.393   4.234
32943SOL    HW2  837   5.678   2.288   4.340
32944SOL     OW  838   7.266  10.891  11.507
32944SOL    HW1  839   7.316  10.815 -10.542
32944SOL    HW2  840   7.197 -22.265  11.452
32945SOL     OW  841   1.275   2.172   9.351
32945SOL    HW1  842   1.318  -8.942   9.307
32945SOL    HW2  843   1.284  -8.887   9.444
32946SOL     OW  844  10.139   4.587  11.572
32946SOL    HW1  845  21.145   4.598   0.444
32946SOL    HW2  846  -0.826   4.647  11.578
32947SOL     OW  847   1.861   3.350   4.901
32947SOL    HW1  848   1.929   3.313   4.845
32947SOL    HW2  849   1.783   3.353   4.846
32948SOL     OW  850   4.447   5.189   5.843
32948SOL    HW1  851   4.433   5.099  27.890
32948SOL    HW2  852   4.530 -16.863   5.803
32949SOL     OW  853   4.767  12.248   0.497
32949SOL    HW1  854   4.732  12.259   0.409
32949SOL    HW2  855  -6.287  -9.747   0.540
32950SOL     OW  856   3.442   4.512   9.660
32950SOL    HW1  857   3.361  -6.485   9.633
32950SOL    HW2  858   3.464   4.453   9.588
32951SOL     OW  859   7.379   9.520  11.272
32951SOL    HW1  860   7.410   9.558  11.354
32951SOL    HW2  861   7.284   9.525   0.237
32952SOL     OW  862   9.738   3.435   1.428
32952SOL    HW1  863  20.804   3.386   1.351
32952SOL    HW2  864   9.695   3.513   1.394
32953SOL     OW  865  10.026   3.807   4.778
32953SOL    HW1  866  10.026   3.848   4.865
32953SOL    HW2  867  10.116   3.819   4.746
32954SOL     OW  868   4.359   3.234   8.304
32954SOL    HW1  869   4.385  14.230   8.223
32954SOL    HW2  870   4.432 -18.859   8.364
32955SOL     OW  871   1.995   5.968  12.800
32955SOL    HW1  872   1.903  -5.062 -31.386
32955SOL    HW2  873   2.007   5.874  12.811
32956SOL     OW  874   5.188   4.295   5.284
32956SOL    HW1  875   5.219   4.304  27.273
32956SOL    HW2  876   5.155  15.245   5.290
32957SOL     OW  877   4.803   2.285  10.981
32957SOL    HW1  878   4.731 -19.760  -0.006
32957SOL    HW2  879  15.862   2.355  -0.122
32958SOL     OW  880   7.622   6.581   0.179
32958SOL    HW1  881 -14.464  28.724   0.108
32958SOL    HW2  882   7.619   6.633   0.259
32959SOL     OW  883   8.682  10.764   7.283
32959SOL    HW1  884   8.674  10.784   7.377
32959SOL    HW2  885  19.808  10.725   7.274
32960SOL     OW  886   7.951   4.417  -0.220
32960SOL    HW1  887  -3.183  -6.627  10.834
32960SOL    HW2  888   7.964   4.379  21.773
32961SOL     OW  889   8.510   5.532  10.515
32961SOL    HW1  890  52.679   5.579  10.432
32961SOL    HW2  891  -2.455   5.560 -11.511
32962SOL     OW  892   5.054   4.079   6.888
32962SOL    HW1  893  -6.026   4.166 -15.195
32962SOL    HW2  894   5.037  -6.998   6.802
32963SOL     OW  895   9.398   1.057   5.439
32963SOL    HW1  896   9.472   1.027   5.387
32963SOL    HW2  897   9.380   1.145   5.406
32964SOL     OW  898   0.677   9.724  10.273
32964SOL    HW1  899  11.716   9.656  -0.833
32964SOL    HW2  900   0.592  -1.323  10.317
32965SOL     OW  901   3.611   1.865   8.053
32965SOL    HW1  902  14.632   1.952   8.089
32965SOL    HW2  903  25.615   1.812  30.160
32966SOL     OW  904   2.748   3.760   7.412
32966SOL    HW1  905   2.761   3.675   7.372
32966SOL    HW2  906   2.756 -18.335   7.506
32967SOL     OW  907   5.575  -0.217   1.958
32967SOL    HW1  908  -5.474  -0.127  35.044
32967SOL    HW2  909   5.490  10.782  24.021
32968SOL     OW  910   2.328   5.462   5.830
32968SOL    HW1  911   2.336  16.545  -5.125
32968SOL    HW2  912   2.409   5.484   5.784
32969SOL     OW  913  10.087   9.995   6.085
32969SOL    HW1  914 -11.972  21.110 -16.049
32969SOL    HW2  915  -1.008  10.030   6.155
32970SOL     OW  916   6.471   4.805   0.352
32970SOL    HW1  917  17.600   4.771  11.393
32970SOL    HW2  918  28.507   4.761 -10.614
32971SOL     OW  919   8.636   3.666   6.311
32971SOL    HW1  920   8.562   3.675   6.251
32971SOL    HW2  921  -2.359   3.751   6.307
32972SOL     OW  922   5.321   0.704   9.022
32972SOL    HW1  923  16.301   0.637   9.054
32972SOL    HW2  924  -5.635   0.659   9.010
32973SOL     OW  925   1.497   5.100   6.698
32973SOL    HW1  926   1.421   5.042 -26.430
32973SOL    HW2  927   1.524   5.090   6.789
32974SOL     OW  928  10.599   1.148   7.558
32974SOL    HW1  929  10.686   1.180   7.581
32974SOL    HW2  930  10.604   1.131   7.464
32975SOL     OW  931   3.700   8.978   8.036
32975SOL    HW1  932   3.729   8.891   8.008
32975SOL    HW2  933   3.740  31.117   7.973
32976SOL     OW  934   8.420   2.634   4.217
32976SOL    HW1  935   8.463  -8.413   4.132
32976SOL    HW2  936  30.570   2.650  26.358
32977SOL     OW  937   8.208  -0.030   2.811
32977SOL    HW1  938 -13.895  -0.118   2.839
32977SOL    HW2  939   8.289  11.029   2.858
32978SOL     OW  940   6.635   8.097   0.716
32978SOL    HW1  941   6.572   8.168   0.700
32978SOL    HW2  942   6.720   8.142   0.718
32979SOL     OW  943   6.378   1.705   7.529
32979SOL    HW1  944  -4.740   1.650   7.537
32979SOL    HW2  945   6.358   1.765 -14.622
32980SOL     OW  946   5.387  -1.297   3.977
32980SOL    HW1  947   5.404  -1.315  26.148
32980SOL    HW2  948   5.458  31.779  14.969
32981SOL     OW  949   5.176  10.591   3.013
32981SOL    HW1  950   5.111  10.573  13.985
32981SOL    HW2  951  16.207  10.685   3.031
32982SOL     OW  952   9.439   6.626   9.321
32982SOL    HW1  953  20.456 -15.487   9.408
32982SOL    HW2  954   9.437   6.721  31.411
32983SOL     OW  955   8.679   7.977   7.558
32983SOL    HW1  956   8.688   7.991   7.464
32983SOL    HW2  957   8.764   8.000   7.595
32984SOL     OW  958   6.819  10.108   3.024
32984SOL    HW1  959  -4.281  21.105   3.085
32984SOL    HW2  960   6.886  10.147 -18.999
32985SOL     OW  961   8.222   4.172   3.649
32985SOL    HW1  962   8.180  15.219   3.735
32985SOL    HW2  963 -13.763   4.177   3.667
32986SOL     OW  964   3.141   3.466   6.042
32986SOL    HW1  965   3.047   3.486  17.083
32986SOL    HW2  966   3.181   3.544  28.083
32987SOL     OW  967   7.013   3.474   7.628
32987SOL    HW1  968  -4.122  14.523   7.626
32987SOL    HW2  969   7.046  25.636   7.594
32988SOL     OW  970  10.495  10.487   1.207
32988SOL    HW1  971  10.446  10.414 -20.835
32988SOL    HW2  972  10.431  10.558  12.237
32989SOL     OW  973   8.005   9.824   1.786
32989SOL    HW1  974   8.093   9.804   1.818
32989SOL    HW2  975  19.001   9.866   1.861
32990SOL     OW  976   4.405   9.316  10.864
32990SOL    HW1  977  26.531   9.384  10.816
32990SOL    HW2  978   4.365   9.362  -0.102
32991SOL     OW  979   7.283  10.100   2.939
32991SOL    HW1  980   7.271  10.020 -19.190
32991SOL    HW2  981   7.267  10.171  13.915
32992SOL     OW  982  12.611  10.788   8.256
32992SOL    HW1  983  -9.418  10.862   8.220
32992SOL    HW2  984  -9.405  -0.299   8.311
32993SOL     OW  985   8.614   8.196   1.658
32993SOL    HW1  986   8.610   8.144  -9.302
32993SOL    HW2  987   8.633   8.285   1.688
32994SOL     OW  988   7.587   3.872   5.523
32994SOL    HW1  989   7.560   3.961   5.547
32994SOL    HW2  990   7.669   3.884   5.476
32995SOL     OW  991   2.693   8.587  -0.685
32995SOL    HW1  992   2.598   8.578  54.527
32995SOL    HW2  993  -8.332  30.626  -0.771
32996SOL     OW  994   8.257   2.952   3.937
32996SOL    HW1  995   8.192   3.001   3.988
32996SOL    HW2  996   8.331   3.012   3.928
32997SOL     OW  997   6.391   7.161   6.569
32997SOL    HW1  998   6.430 -14.916  17.696
32997SOL    HW2  999   6.330  -3.953   6.573
32998SOL     OW 1000   2.690   5.271   1.002
32998SOL    HW1 1001  -8.345   5.322   1.082
32998SOL    HW2 1002   2.762   5.303   0.948
32999SOL     OW 1003   6.879   9.673   5.113
32999SOL    HW1 1004   6.949   9.609  -5.917
32999SOL    HW2 1005   6.824   9.639   5.042
33000SOL     OW 1006   1.191   6.812  10.603
33000SOL    HW1 1007   1.164   6.736  10.654
33000SOL    HW2 1008  12.320   6.792  10.575
33001SOL     OW 1009   2.817   2.582   7.935
33001SOL    HW1 1010  24.989  13.610   7.917
33001SOL    HW2 1011  13.836 -19.563   8.001
33002SOL     OW 1012   6.796   7.038  11.656
33002SOL    HW1 1013  17.783   7.106 -10.382
33002SOL    HW2 1014   6.783  18.091  11.562
33003SOL     OW 1015   6.865  -0.864   5.043
33003SOL    HW1 1016   6.793  32.268  -5.935
33003SOL    HW2 1017   6.939  -0.817   5.083
33004SOL     OW 1018   7.057   2.973   1.520
33004SOL    HW1 1019  18.102  13.944   1.454
33004SOL    HW2 1020   7.145   3.010   1.525
33005SOL     OW 1021   0.345   2.245   9.376
33005SOL    HW1 1022   0.396   2.209   9.304
33005SOL    HW2 1023   0.318   2.168   9.427
33006SOL     OW 1024   3.071   9.845   5.868
33006SOL    HW1 1025  -8.001   9.759   5.894
33006SOL    HW2 1026 -19.060   9.907   5.920
33007SOL     OW 1027   7.395   1.738   9.528
33007SOL    HW1 1028   7.375 -20.428   9.562
33007SOL    HW2 1029  29.562  23.809   9.492
33008SOL     OW 1030   3.169   2.880   4.077
33008SOL    HW1 1031   3.188  -8.111   4.157
33008SOL    HW2 1032   3.079   2.902   4.056
33009SOL     OW 1033   4.627   1.042   2.386
33009SOL    HW1 1034   4.661   1.123   2.349
33009SOL    HW2 1035  -6.350  12.015  35.478
33010SOL     OW 1036   4.334   1.437   8.792
33010SOL    HW1 1037   4.259   1.414   8.847
33010SOL    HW2 1038   4.409  12.476   8.852
33011SOL     OW 1039   2.292   5.384  11.292
33011SOL    HW1 1040   2.213   5.342 -10.823
33011SOL    HW2 1041  24.432  -5.654  11.218
33012SOL     OW 1042   5.335   1.334  10.158
33012SOL    HW1 1043 -16.677  -9.693  10.226
33012SOL    HW2 1044   5.286   1.257  10.186
33013SOL     OW 1045   8.081   6.960  10.847
33013SOL    HW1 1046   8.121   6.881  10.811
33013SOL    HW2 1047  19.117   7.021  10.774
33014SOL     OW 1048   9.147  11.025   7.532
33014SOL    HW1 1049   9.208 -11.088   7.467
33014SOL    HW2 1050   9.060  11.007   7.495
33015SOL     OW 1051   4.817   7.127  10.708
33015SOL    HW1 1052   4.844 -14.974  10.619
33015SOL    HW2 1053   4.725   7.100  10.713
33016SOL     OW 1054   3.447   3.643   9.769
33016SOL    HW1 1055   3.370   3.610   9.723
33016SOL    HW2 1056   3.416   3.723   9.811
33017SOL     OW 1057   0.510   9.811   4.163
33017SOL    HW1 1058   0.475   9.796 -17.828
33017SOL    HW2 1059  11.578  20.763   4.134
33018SOL     OW 1060   8.097   9.015   5.730
33018SOL    HW1 1061  -2.874   8.949   5.722
33018SOL    HW2 1062   8.042  20.041 -27.465
33019SOL     OW 1063   3.030   3.699   5.690
33019SOL    HW1 1064  14.098  14.716   5.778
33019SOL    HW2 1065   2.934  -7.344   5.694
33020SOL     OW 1066  10.535   2.760   7.522
33020SOL    HW1 1067 -22.595  24.811   7.613
33020SOL    HW2 1068  -0.553   2.842   7.516
33021SOL     OW 1069   5.759  10.683   1.177
33021SOL    HW1 1070   5.722  10.681   1.266
33021SOL    HW2 1071   5.814  10.761   1.176
33022SOL     OW 1072   8.273   3.735  10.036
33022SOL    HW1 1073   8.188   3.779  10.044
33022SOL    HW2 1074   8.323  -7.249   9.977
33023SOL     OW 1075   1.504   3.028   1.610
33023SOL    HW1 1076   1.456 -19.062   1.692
33023SOL    HW2 1077   1.481   3.117  12.620
33024SOL     OW 1078  10.600   0.605   8.107
33024SOL    HW1 1079  10.592   0.637   8.017
33024SOL    HW2 1080  10.542   0.529   8.111
33025SOL     OW 1081   5.822  10.876  11.590
33025SOL    HW1 1082  -5.166  10.868  11.670
33025SOL    HW2 1083   5.783  10.789 -10.501
33026SOL     OW 1084   2.539  12.023   2.660
33026SOL    HW1 1085   2.515 -10.068 -30.367
33026SOL    HW2 1086  -8.489  12.118  13.690
33027SOL     OW 1087   9.621   5.285   4.231
33027SOL    HW1 1088   9.578   5.228   4.295
33027SOL    HW2 1089   9.712  -5.749   4.260
33028SOL     OW 1090   6.282   1.653   6.042
33028SOL    HW1 1091   6.317  12.778  39.184
33028SOL    HW2 1092   6.344  23.670  17.120
33029SOL     OW 1093   7.956   2.928   6.280
33029SOL    HW1 1094  -3.068  24.953 -15.876
33029SOL    HW2 1095   7.895  36.114 -15.830
33030SOL     OW 1096  10.181   9.631   8.037
33030SOL    HW1 1097  10.137   9.551   8.009
33030SOL    HW2 1098  -0.881  -1.400  -2.910
33031SOL     OW 1099   1.237   3.918   8.617
33031SOL    HW1 1100   1.245   4.009   8.646
33031SOL    HW2 1101   1.194   3.873   8.691
33032SOL     OW 1102   1.536   7.044   6.420
33032SOL    HW1 1103   1.563   7.076   6.335
33032SOL    HW2 1104  12.483   7.023   6.410
33033SOL     OW 1105   6.963   5.656  11.019
33033SOL    HW1 1106  17.956   5.668  10.937
33033SOL    HW2 1107   7.022   5.731 -11.055
33034SOL     OW 1108   6.566   3.986  10.991
33034SOL    HW1 1109   6.476  26.096  10.979
33034SOL    HW2 1110  17.655  48.222  11.014
33035SOL     OW 1111  10.094   8.138   2.229
33035SOL    HW1 1112  10.159   8.131   2.159
33035SOL    HW2 1113  21.106   8.048   2.245
33036SOL     OW 1114   2.773   2.002   3.522
33036SOL    HW1 1115   2.849   1.980  -7.464
33036SOL    HW2 1116   2.704   1.944  -7.488
33037SOL     OW 1117   6.187   0.251   2.840
33037SOL    HW1 1118   6.275   0.263   2.877
33037SOL    HW2 1119   6.152  11.214   2.885
33038SOL     OW 1120   3.145   2.952   4.372
33038SOL    HW1 1121   3.057   2.961   4.410
33038SOL    HW2 1122   3.198   3.015  -6.620
33039SOL     OW 1123   2.619   6.305   9.532
33039SOL    HW1 1124   2.681   6.233   9.540
33039SOL    HW2 1125  35.652   6.263  -1.503
33040SOL     OW 1126   6.358   2.455  -0.391
33040SOL    HW1 1127   6.446   2.491  -0.401
33040SOL    HW2 1128  -4.686   2.384  10.584
33041SOL     OW 1129  11.200   3.574   1.959
33041SOL    HW1 1130 -10.931   3.514   2.013
33041SOL    HW2 1131  11.232   3.519  -9.153
33042SOL     OW 1132   9.288   4.531   2.431
33042SOL    HW1 1133   9.252  26.556  24.581
33042SOL    HW2 1134   9.237  15.545  -8.685
33043SOL     OW 1135   2.610   6.013   0.346
33043SOL    HW1 1136   2.621   6.107   0.358
33043SOL    HW2 1137  -8.452   6.002   0.254
33044SOL     OW 1138   8.903   2.262   5.329
33044SOL    HW1 1139  -2.230   2.281   5.334
33044SOL    HW2 1140   8.915  -8.853   5.386
33045SOL     OW 1141   4.976   3.611   7.590
33045SOL    HW1 1142   4.908  14.712   7.563
33045SOL    HW2 1143   5.048   3.667   7.619
33046SOL     OW 1144   2.043   4.826   0.192
33046SOL    HW1 1145   2.022   4.737   0.163
33046SOL    HW2 1146   2.138  -6.213   0.202
33047SOL     OW 1147   1.589   7.849   1.053
33047SOL    HW1 1148   1.573   7.942   1.069
33047SOL    HW2 1149   1.501  18.850   1.048
33048SOL     OW 1150   3.794   9.358   8.014
33048SOL    HW1 1151   3.818   9.280   7.964
33048SOL    HW2 1152   3.764   9.421   7.948
33049SOL     OW 1153   5.809   4.768   9.945
33049SOL    HW1 1154  16.846   4.836  21.052
33049SOL    HW2 1155   5.729  -6.256   9.894
33050SOL     OW 1156   7.603   7.126   8.000
33050SOL    HW1 1157   7.663   7.126   7.926
33050SOL    HW2 1158 -25.463   7.156   8.074
33051SOL     OW 1159   7.295   2.996   7.172
33051SOL    HW1 1160   7.382   3.028  18.190
33051SOL    HW2 1161   7.236   3.065   7.141
33052SOL     OW 1162   8.918   3.452   9.064
33052SOL    HW1 1163   8.906  25.487   9.148
33052SOL    HW2 1164   9.005  36.609   9.069
33053SOL     OW 1165   6.655   0.906   8.581
33053SOL    HW1 1166   6.683   0.819   8.552
33053SOL    HW2 1167  -4.322   0.966   8.540
33054SOL     OW 1168   4.988   1.705   7.960
33054SOL    HW1 1169 -39.234   1.668   7.900
33054SOL    HW2 1170 -28.082   1.768   7.907
33055SOL     OW 1171   9.002  10.203   2.521
33055SOL    HW1 1172  31.126  10.242   2.596
33055SOL    HW2 1173   9.019  21.304   2.449
33056SOL     OW 1174   9.945   5.357   7.041
33056SOL    HW1 1175  -1.028   5.380  -3.935
33056SOL    HW2 1176  -1.138   5.440  -4.020
33057SOL     OW 1177   2.047   3.003   2.609
33057SOL    HW1 1178   1.998  14.124  24.675
33057SOL    HW2 1179   2.059   2.968   2.520
33058SOL     OW 1180   6.313   0.848   2.961
33058SOL    HW1 1181   6.353   0.897   3.033
33058SOL    HW2 1182   6.226   0.885   2.952
33059SOL     OW 1183   4.958  10.330   7.943
33059SOL    HW1 1184  16.011  21.277 -14.115
33059SOL    HW2 1185   4.941 -11.708   8.027
33060SOL     OW 1186   2.644   8.435   8.257
33060SOL    HW1 1187   2.550   8.433  -2.800
33060SOL    HW2 1188   2.651   8.446   8.352
33061SOL     OW 1189   6.570   3.576  10.778
33061SOL    HW1 1190  17.607 -18.441  10.706
33061SOL    HW2 1191  28.620   3.626  10.854
33062SOL     OW 1192   8.433   6.642   4.072
33062SOL    HW1 1193   8.443   6.642  26.247
33062SOL    HW2 1194   8.467   6.557   4.045
33063SOL     OW 1195   9.562   5.149   7.196
33063SOL    HW1 1196  20.678  -5.922  -3.892
33063SOL    HW2 1197   9.534   5.227   7.148
33064SOL     OW 1198   6.941   9.341  10.431
33064SOL    HW1 1199   6.857   9.374  10.462
33064SOL    HW2 1200   6.999  31.425  10.508
33065SOL     OW 1201   4.161   6.512   1.629
33065SOL    HW1 1202  15.267  39.603   1.566
33065SOL    HW2 1203 -17.975   6.571  23.659
33066SOL     OW 1204   5.320   4.631   9.525
33066SOL    HW1 1205   5.373   4.710   9.510
33066SOL    HW2 1206   5.240   4.664   9.564
33067SOL     OW 1207   2.049   3.745   6.440
33067SOL    HW1 1208  -9.043   3.824  -4.584
33067SOL    HW2 1209   2.138  -7.262   6.427
33068SOL     OW 1210   8.638  12.266   6.901
33068SOL    HW1 1211 -13.367  -9.763   6.868
33068SOL    HW2 1212 -13.505  -9.811  17.870
33069SOL     OW 1213   2.146   2.770   8.120
33069SOL    HW1 1214  24.239   2.696  30.258
33069SOL    HW2 1215   2.182   2.845   8.167
33070SOL     OW 1216   0.947   7.316   6.239
33070SOL    HW1 1217 -21.105   7.393   6.290
33070SOL    HW2 1218  11.897   7.298   6.269
33071SOL     OW 1219   1.148   6.579   0.126
33071SOL    HW1 1220  -9.958   6.646   0.111
33071SOL    HW2 1221   1.111  28.604   0.197
33072SOL     OW 1222   4.340   4.655   5.377
33072SOL    HW1 1223  -6.665   4.702   5.300
33072SOL    HW2 1224  -6.625   4.604   5.409
33073SOL     OW 1225   4.593   5.522   4.048
33073SOL    HW1 1226  -6.424   5.540   4.140
33073SOL    HW2 1227   4.569  16.647   4.012
33074SOL     OW 1228   7.059   3.390   1.371
33074SOL    HW1 1229  -4.021   3.309   1.339
33074SOL    HW2 1230   6.988  25.532  -9.665
33075SOL     OW 1231   8.363   1.674  10.862
33075SOL    HW1 1232   8.383   1.767  10.858
33075SOL    HW2 1233   8.399   1.644  10.945
33076SOL     OW 1234   2.537   4.365   9.999
33076SOL    HW1 1235  13.505  15.459  10.032
33076SOL    HW2 1236   2.520  48.436  21.073
33077SOL     OW 1237   1.830   9.716   5.091
33077SOL    HW1 1238  12.804   9.646   5.084
33077SOL    HW2 1239   1.846  -1.316  16.225
33078SOL     OW 1240  10.146   7.172   3.846
33078SOL    HW1 1241  10.078  18.150   3.873
33078SOL    HW2 1242  21.231 -14.884   3.927
33079SOL     OW 1243   1.991   7.353   2.481
33079SOL    HW1 1244  12.952   7.384   2.525
33079SOL    HW2 1245  24.052 -14.714  13.427
33080SOL     OW 1246  -0.502  11.170  -0.343
33080SOL    HW1 1247  21.594   0.038  21.713
33080SOL    HW2 1248  21.613   0.140  -0.255
33081SOL     OW 1249   8.631   9.395   9.806
33081SOL    HW1 1250   8.614   9.462   9.872
33081SOL    HW2 1251   8.618   9.439   9.722
33082SOL     OW 1252   2.194   5.219   2.355
33082SOL    HW1 1253   2.106   5.252   2.334
33082SOL    HW2 1254  -8.838   5.232 -19.629
33083SOL     OW 1255   4.965   7.960   3.178
33083SOL    HW1 1256  60.187  18.926   3.234
33083SOL    HW2 1257  16.012   8.037   3.235
33084SOL     OW 1258  -0.110   1.895   8.309
33084SOL    HW1 1259  21.993   1.862  19.261
33084SOL    HW2 1260 -11.102  13.017   8.317
33085SOL     OW 1261  -1.826   0.432   7.506
33085SOL    HW1 1262  42.324   0.468   7.594
33085SOL    HW2 1263  -1.891   0.479   7.454
33086SOL     OW 1264   5.158   1.289   7.248
33086SOL    HW1 1265  16.244   1.208   7.227
33086SOL    HW2 1266   5.153   1.335   7.164
33087SOL     OW 1267  11.000   2.965   3.633
33087SOL    HW1 1268  10.919   2.997 -18.407
33087SOL    HW2 1269   0.013   3.045  -7.420
33088SOL     OW 1270   7.807   1.032   1.200
33088SOL    HW1 1271   7.882   0.981   1.231
33088SOL    HW2 1272   7.798   1.007   1.108
33089SOL     OW 1273  -1.108   5.718   5.907
33089SOL    HW1 1274   9.940   5.784 -27.142
33089SOL    HW2 1275  20.928   5.764   5.835
33090SOL     OW 1276   1.968   8.072  10.096
33090SOL    HW1 1277   1.889   8.116  10.064
33090SOL    HW2 1278  12.986   7.979  10.090
33091SOL     OW 1279   3.216   8.330   5.875
33091SOL    HW1 1280   3.269   8.281   5.812
33091SOL    HW2 1281   3.127   8.324   5.842
33092SOL     OW 1282   2.976   7.741   7.027
33092SOL    HW1 1283   2.952   7.814   7.084
33092SOL    HW2 1284   3.028   7.781   6.957
33093SOL     OW 1285   7.832   2.693   8.328
33093SOL    HW1 1286   7.858   2.780   8.360
33093SOL    HW2 1287   7.774   2.659 -13.684
33094SOL     OW 1288   1.448   2.759   3.043
33094SOL    HW1 1289   1.360   2.770   3.079
33094SOL    HW2 1290   1.489   2.692  -7.941
33095SOL     OW 1291   3.470   3.298   5.597
33095SOL    HW1 1292   3.513  14.346  27.761
33095SOL    HW2 1293   3.385  14.298  -5.422
33096SOL     OW 1294   3.747   9.933  10.499
33096SOL    HW1 1295   3.753   9.921  -0.635
33096SOL    HW2 1296   3.796 -34.298  21.576
33097SOL     OW 1297  10.310   2.040   6.466
33097SOL    HW1 1298  10.248   1.993   6.521
33097SOL    HW2 1299  -0.648   1.990   6.474
33098SOL     OW 1300   9.642   1.391   9.216
33098SOL    HW1 1301   9.607  23.558 -23.916
33098SOL    HW2 1302   9.676  12.431   9.306
33099SOL     OW 1303   2.629   8.793   9.781
33099SOL    HW1 1304   2.570  30.834  20.886
33099SOL    HW2 1305   2.571   8.839   9.720
33100SOL     OW 1306   6.756   7.617   4.913
33100SOL    HW1 1307  -4.361   7.650   4.959
33100SOL    HW2 1308   6.801   7.696   4.882
33101SOL     OW 1309  10.615   4.813   6.250
33101SOL    HW1 1310  -0.476 -17.305   6.179
33101SOL    HW2 1311  -0.468  -6.258   6.330
33102SOL     OW 1312   9.205   4.397   0.830
33102SOL    HW1 1313   9.157 -28.666  11.931
33102SOL    HW2 1314  20.253   4.313   0.875
33103SOL     OW 1315   0.117   0.751   9.034
33103SOL    HW1 1316  22.278 -10.270  20.028
33103SOL    HW2 1317   0.107   0.822  -1.943
33104SOL     OW 1318   7.782   5.591   9.341
33104SOL    HW1 1319   7.853   5.654   9.352
33104SOL    HW2 1320   7.722   5.608  20.452
33105SOL     OW 1321   5.967  11.558   1.378
33105SOL    HW1 1322   5.881   0.481   1.359
33105SOL    HW2 1323   5.976   0.590   1.315
33106SOL     OW 1324   4.443   2.708   6.136
33106SOL    HW1 1325  -6.598   2.644   6.206
33106SOL    HW2 1326  -6.524   2.680   6.079
33107SOL     OW 1327   8.018   3.324   1.215
33107SOL    HW1 1328   8.073   3.251   1.187
33107SOL    HW2 1329   8.038   3.394  12.193
33108SOL     OW 1330   8.974   1.454   6.519
33108SOL    HW1 1331   9.033   1.384   6.490
33108SOL    HW2 1332 -13.112   1.511   6.443
33109SOL     OW 1333   1.292   6.054   7.754
33109SOL    HW1 1334  23.400   5.974   7.710
33109SOL    HW2 1335   1.305   6.036   7.847
33110SOL     OW 1336   1.038   4.587   2.678
33110SOL    HW1 1337   1.021   4.505  -8.313
33110SOL    HW2 1338   1.032   4.655 -19.335
33111SOL     OW 1339  10.941   7.523   1.638
33111SOL    HW1 1340  10.957   7.600   1.584
33111SOL    HW2 1341  10.906   7.558   1.720
33112SOL     OW 1342   7.081   5.083   6.273
33112SOL    HW1 1343   7.125  -6.038  17.293
33112SOL    HW2 1344  18.096  -5.920   6.188
33113SOL     OW 1345   4.510   1.279   7.547
33113SOL    HW1 1346   4.521   1.246   7.458
33113SOL    HW2 1347   4.508   1.201   7.603
33114SOL     OW 1348   8.761   3.454  10.429
33114SOL    HW1 1349  -2.245  -7.634  10.354
33114SOL    HW2 1350  -2.331   3.391  10.477
33115SOL     OW 1351   2.972   1.890   5.858
33115SOL    HW1 1352  -8.049   1.849   5.943
33115SOL    HW2 1353   2.979   1.984  16.914
33116SOL     OW 1354   8.126   4.684   6.648
33116SOL    HW1 1355   8.081  15.639   6.642
33116SOL    HW2 1356   8.153  15.742   6.558
33117SOL     OW 1357  11.276   5.696   6.831
33117SOL    HW1 1358   0.172  -5.331   6.900
33117SOL    HW2 1359   0.234   5.777  28.860
33118SOL     OW 1360   1.556   3.814   5.661
33118SOL    HW1 1361   1.565   3.888   5.602
33118SOL    HW2 1362   1.608  14.784   5.620
33119SOL     OW 1363   1.180   5.240   7.457
33119SOL    HW1 1364  12.248   5.285 -14.542
33119SOL    HW2 1365  12.280   5.165  -3.590
33120SOL     OW 1366   5.860   4.498   5.645
33120SOL    HW1 1367   5.808   4.573  -5.425
33120SOL    HW2 1368  50.015   4.504   5.741
33121SOL     OW 1369   7.865   8.776   5.066
33121SOL    HW1 1370   7.873   8.829 -17.092
33121SOL    HW2 1371   7.791   8.718   5.048
33122SOL     OW 1372   9.195   2.376   1.895
33122SOL    HW1 1373  -1.918  13.460   1.939
33122SOL    HW2 1374   9.223   2.310  -9.081
33123SOL     OW 1375   2.275  10.937   5.655
33123SOL    HW1 1376  -8.767  10.993  16.617
33123SOL    HW2 1377  13.396  10.961   5.699
33124SOL     OW 1378   6.501   1.467  10.348
33124SOL    HW1 1379  28.667   1.427  10.344
33124SOL    HW2 1380   6.440   1.393  21.385
33125SOL     OW 1381   6.814   2.718   2.443
33125SOL    HW1 1382   6.722   2.693   2.449
33125SOL    HW2 1383   6.825 -30.368   2.354
33126SOL     OW 1384   6.981   8.432  10.889
33126SOL    HW1 1385   6.993 -13.567  10.839
33126SOL    HW2 1386  18.103   8.418  10.934
33127SOL     OW 1387   4.291   3.888   5.285
33127SOL    HW1 1388  15.370  -7.173   5.370
33127SOL    HW2 1389   4.224   3.821   5.272
33128SOL     OW 1390   2.758   1.521   7.208
33128SOL    HW1 1391   2.850  -9.540   7.224
33128SOL    HW2 1392   2.745  12.645   7.251
33129SOL     OW 1393   7.004   3.319   0.250
33129SOL    HW1 1394  -3.966  14.385   0.310
33129SOL    HW2 1395  -4.009   3.354   0.165
33130SOL     OW 1396   0.290   8.471   5.146
33130SOL    HW1 1397  11.358   8.382   5.169
33130SOL    HW2 1398   0.210 -13.595   5.198
33131SOL     OW 1399   8.251  10.305   3.617
33131SOL    HW1 1400   8.179 -11.722   3.582
33131SOL    HW2 1401   8.251  10.225  -7.476
33132SOL     OW 1402   7.385   6.456   4.517
33132SOL    HW1 1403   7.409   6.451  15.649
33132SOL    HW2 1404   7.376  17.404   4.490
33133SOL     OW 1405   8.247   1.559   5.266
33133SOL    HW1 1406   8.197   1.600   5.337
33133SOL    HW2 1407   8.296   1.631   5.227
33134SOL     OW 1408   1.174   9.481   3.271
33134SOL    HW1 1409   1.245   9.420 -18.826
33134SOL    HW2 1410  12.220   9.546   3.201
33135SOL     OW 1411   7.983   2.570   9.976
33135SOL    HW1 1412  19.091  -8.414   9.940
33135SOL    HW2 1413  19.045   2.482   9.946
33136SOL     OW 1414   7.356   1.476   0.492
33136SOL    HW1 1415 -14.703   1.410   0.426
33136SOL    HW2 1416   7.264  -9.578   0.513
33137SOL     OW 1417  10.201   7.079   0.940
33137SOL    HW1 1418  21.311   7.017   0.963
33137SOL    HW2 1419 -11.898   7.123   1.022
33138SOL     OW 1420   6.969   0.606   8.704
33138SOL    HW1 1421 -15.206   0.601  -2.340
33138SOL    HW2 1422   6.991   0.688 -13.418
33139SOL     OW 1423   6.385   3.682   8.073
33139SOL    HW1 1424 -15.658   3.761  -2.926
33139SOL    HW2 1425 -15.772   3.663   8.124
33140SOL     OW 1426  10.844   0.382   7.112
33140SOL    HW1 1427 -11.289   0.462   7.109
33140SOL    HW2 1428  10.822   0.343  18.236
33141SOL     OW 1429  11.120   0.447   7.805
33141SOL    HW1 1430  11.210   0.422   7.784
33141SOL    HW2 1431 -10.952   0.499   7.885
33142SOL     OW 1432   6.967   2.221   5.112
33142SOL    HW1 1433   7.018  57.495   5.085
33142SOL    HW2 1434   7.021  13.185  16.127
33143SOL     OW 1435  10.687  10.891   3.022
33143SOL    HW1 1436  10.761  10.832   3.032
33143SOL    HW2 1437  10.644  10.863   2.941
33144SOL     OW 1438   6.578   2.358   2.871
33144SOL    HW1 1439   6.523  24.478   2.939
33144SOL    HW2 1440  28.734  -8.625   2.865
33145SOL     OW 1441   3.033   3.240   7.703
33145SOL    HW1 1442  14.006   3.170   7.705
33145SOL    HW2 1443  25.141   3.242  51.770
33146SOL     OW 1444   8.108   6.721   9.453
33146SOL    HW1 1445   8.103   6.667   9.374
33146SOL    HW2 1446   8.075 -26.312   9.426
33147SOL     OW 1447   7.664   5.614  11.157
33147SOL    HW1 1448  18.772   5.553 -10.947
33147SOL    HW2 1449   7.647   5.595  22.289
33148SOL     OW 1450   8.706   5.375   2.942
33148SOL    HW1 1451  -2.354   5.454 -19.187
33148SOL    HW2 1452  19.723   5.302 -19.196
33149SOL     OW 1453   1.689   6.663   8.211
33149SOL    HW1 1454   1.654  17.615   8.228
33149SOL    HW2 1455   1.642  17.758  19.313
33150SOL     OW 1456   6.876   6.062   9.810
33150SOL    HW1 1457   6.861  -5.050 -12.330
33150SOL    HW2 1458   6.960   6.042   9.852
33151SOL     OW 1459   6.840   7.817   5.537
33151SOL    HW1 1460   6.922   7.826  16.624
33151SOL    HW2 1461   6.836   7.725   5.512
33152SOL     OW 1462   2.489   0.542   9.544
33152SOL    HW1 1463  13.479 -10.422  -1.529
33152SOL    HW2 1464   2.508  11.530   9.465
33153SOL     OW 1465   1.395   9.330   3.242
33153SOL    HW1 1466   1.438   9.281  25.392
33153SOL    HW2 1467   1.463   9.341   3.176
33154SOL     OW 1468   2.411   8.765   9.311
33154SOL    HW1 1469   2.384   8.681   9.275
33154SOL    HW2 1470   2.504   8.771   9.289
33155SOL     OW 1471   0.367   2.501   7.588
33155SOL    HW1 1472   0.343   2.553   7.664
33155SOL    HW2 1473   0.367   2.410   7.619
33156SOL     OW 1474   5.062   3.726   7.003
33156SOL    HW1 1475   4.994   3.794   7.009
33156SOL    HW2 1476   5.091   3.713   7.093
33157SOL     OW 1477   0.775   8.125   3.190
33157SOL    HW1 1478   0.760 -14.045   3.165
33157SOL    HW2 1479   0.699   8.172  -7.883
33158SOL     OW 1480   8.763   2.466  10.449
33158SOL    HW1 1481   8.785   2.549  10.406
33158SOL    HW2 1482   8.832   2.454  10.515
33159SOL     OW 1483  10.185   9.020   2.090
33159SOL    HW1 1484  10.221   9.108   2.100
33159SOL    HW2 1485  10.092   9.030  13.150
33160SOL     OW 1486  11.178  -0.121   6.987
33160SOL    HW1 1487  11.126  -0.091   6.913
33160SOL    HW2 1488 -10.893  10.995   7.044
33161SOL     OW 1489   6.568   2.767   9.404
33161SOL    HW1 1490   6.558   2.856   9.440
33161SOL    HW2 1491   6.486   2.750  -1.682
33162SOL     OW 1492   9.671   7.376   6.183
33162SOL    HW1 1493   9.674   7.471   6.175
33162SOL    HW2 1494   9.594   7.350   6.133
33163SOL     OW 1495   8.581   3.589   5.447
33163SOL    HW1 1496   8.654  14.609   5.506
33163SOL    HW2 1497  19.594   3.678   5.472
33164SOL     OW 1498   3.695   7.607   2.339
33164SOL    HW1 1499  14.769   7.679   2.286
33164SOL    HW2 1500  14.778   7.616   2.424
33165SOL     OW 1501   4.789   9.839   8.477
33165SOL    HW1 1502  26.942  -1.261   8.470
33165SOL    HW2 1503   4.726  20.847  -2.628
33166SOL     OW 1504   8.805   1.695   3.917
33166SOL    HW1 1505   8.867   1.738  -7.181
33166SOL    HW2 1506   8.719   1.727   3.888
33167SOL     OW 1507   1.846   7.432   5.804
33167SOL    HW1 1508   1.880   7.519   5.827
33167SOL    HW2 1509   1.761  29.529   5.763
33168SOL     OW 1510   0.894   3.174   3.931
33168SOL    HW1 1511   0.974   3.188 -18.199
33168SOL    HW2 1512   0.854  -7.943   3.890
33169SOL     OW 1513   1.145   3.970   0.652
33169SOL    HW1 1514  12.152   3.893   0.697
33169SOL    HW2 1515   1.233  14.986   0.623
33170SOL     OW 1516   2.477   9.467   2.393
33170SOL    HW1 1517   2.564 -12.573   2.402
33170SOL    HW2 1518   2.477  -1.610   2.305
33171SOL     OW 1519   8.200   4.863   9.341
33171SOL    HW1 1520   8.295   4.854   9.334
33171SOL    HW2 1521  19.226  15.968   9.409
33172SOL     OW 1522   3.456   6.123   9.641
33172SOL    HW1 1523   3.449  -4.830   9.600
33172SOL    HW2 1524   3.548  -4.923  -1.373
33173SOL     OW 1525   4.539   6.537   2.942
33173SOL    HW1 1526   4.532   6.444   2.920
33173SOL    HW2 1527   4.631   6.558   2.929
33174SOL     OW 1528   1.189   3.869   0.037
33174SOL    HW1 1529   1.150   3.814  22.184
33174SOL    HW2 1530  12.168 -29.255  44.122
33175SOL     OW 1531   2.820   3.657  10.272
33175SOL    HW1 1532   2.754   3.634  -0.832
33175SOL    HW2 1533  -8.195   3.574  10.313
33176SOL     OW 1534   0.556   8.820   7.116
33176SOL    HW1 1535  22.588   8.760   7.059
33176SOL    HW2 1536   0.641   8.779   7.129
33177SOL     OW 1537   2.337   6.560   8.936
33177SOL    HW1 1538  13.438  17.527   8.943
33177SOL    HW2 1539   2.351   6.611   9.015
33178SOL     OW 1540   1.361   9.103   4.410
33178SOL    HW1 1541  -9.666  -1.844  15.468
33178SOL    HW2 1542  -9.610  -1.981  15.500
33179SOL     OW 1543   5.524   8.657  -1.799
33179SOL    HW1 1544  16.538   8.726  20.341
33179SOL    HW2 1545   5.534   8.579  20.334
33180SOL     OW 1546   6.320   1.923   5.369
33180SOL    HW1 1547   6.362   1.929   5.283
33180SOL    HW2 1548   6.345  -9.037   5.415
33181SOL     OW 1549   2.324   1.994   8.431
33181SOL    HW1 1550   2.343   2.080 -13.687
33181SOL    HW2 1551   2.361   1.931   8.369
33182SOL     OW 1552   7.016  -0.759   8.997
33182SOL    HW1 1553   7.044  32.400  -1.960
33182SOL    HW2 1554   7.070  10.202  20.028
33183SOL     OW 1555   4.259   7.924   6.309
33183SOL    HW1 1556   4.336   7.867   6.313
33183SOL    HW2 1557   4.286   7.996   6.253
33184SOL     OW 1558   2.381  11.079   9.532
33184SOL    HW1 1559 -19.693 -11.011   9.627
33184SOL    HW2 1560  35.409  11.060   9.510
33185SOL     OW 1561   7.948   5.009   1.945
33185SOL    HW1 1562   7.860  -5.993   1.944
33185SOL    HW2 1563   7.981   5.026   2.034
33186SOL     OW 1564   6.811   7.529   3.532
33186SOL    HW1 1565   6.815   7.615  -7.466
33186SOL    HW2 1566   6.718  18.544   3.538
33187SOL     OW 1567   3.125   9.754   7.935
33187SOL    HW1 1568   3.192  20.837   7.883
33187SOL    HW2 1569   3.043  20.813 -25.228
33188SOL     OW 1570   8.665   9.185   1.917
33188SOL    HW1 1571   8.650   9.125   1.844
33188SOL    HW2 1572 -13.370  -1.779   1.878
33189SOL     OW 1573   2.609   2.545   0.710
33189SOL    HW1 1574   2.615   2.455   0.679
33189SOL    HW2 1575   2.677  24.631   0.777
33190SOL     OW 1576   7.261   8.094   5.225
33190SOL    HW1 1577   7.202   8.154   5.270
33190SOL    HW2 1578  51.477   8.150 -16.906
33191SOL     OW 1579   9.713   8.337  10.380
33191SOL    HW1 1580  20.704   8.327  10.298
33191SOL    HW2 1581  20.686   8.356  10.446
33192SOL     OW 1582   1.602   7.182   9.336
33192SOL    HW1 1583   1.646 -14.965   9.388
33192SOL    HW2 1584   1.582   7.251  -1.641
33193SOL     OW 1585   0.052   1.549   0.754
33193SOL    HW1 1586   0.138   1.530   0.716
33193SOL    HW2 1587   0.037   1.477  44.974
33194SOL     OW 1588   4.796   3.618   5.899
33194SOL    HW1 1589   4.746  -7.455   5.825
33194SOL    HW2 1590  -6.258   3.712   5.898
33195SOL     OW 1591   2.819   0.446   6.716
33195SOL    HW1 1592  24.846   0.398   6.780
33195SOL    HW2 1593   2.754   0.492   6.663
33196SOL     OW 1594   8.714   1.157   4.064
33196SOL    HW1 1595   8.708   1.062  37.171
33196SOL    HW2 1596   8.785   1.183  -7.035
33197SOL     OW 1597   4.066   8.813   2.934
33197SOL    HW1 1598   4.141   8.871   2.919
33197SOL    HW2 1599   4.096  -2.287  -8.037
33198SOL     OW 1600   6.658   5.504  10.245
33198SOL    HW1 1601  39.726   5.452  10.182
33198SOL    HW2 1602 -15.335   5.514  10.204
33199SOL     OW 1603   5.150  11.224   7.962
33199SOL    HW1 1604   5.146   0.221 -14.206
33199SOL    HW2 1605  16.106  11.249   8.002
33200SOL     OW 1606   8.083  10.860   2.472
33200SOL    HW1 1607   8.129  10.803  13.573
33200SOL    HW2 1608   8.147  10.929   2.451
33201SOL     OW 1609   3.490   3.086   5.030
33201SOL    HW1 1610  14.584  14.198  27.079
33201SOL    HW2 1611   3.550   3.012   5.039
33202SOL     OW 1612   7.429   7.568   3.381
33202SOL    HW1 1613   7.334   7.576  -7.670
33202SOL    HW2 1614   7.439  51.662  -7.589
33203SOL     OW 1615   0.342   1.428  10.628
33203SOL    HW1 1616  11.358   1.453  10.538
33203SOL    HW2 1617  33.498  12.380 -33.539
33204SOL     OW 1618   3.605   8.413   5.227
33204SOL    HW1 1619   3.661   8.427   5.151
33204SOL    HW2 1620   3.620   8.490   5.282
33205SOL     OW 1621   3.111   6.325   6.906
33205SOL    HW1 1622   3.116  -4.644   6.971
33205SOL    HW2 1623   3.151   6.361   6.828
33206SOL     OW 1624   2.522   3.281   4.900
33206SOL    HW1 1625   2.469  14.364   4.833
33206SOL    HW2 1626  13.631  14.383   4.921
33207SOL     OW 1627   0.575   1.666  10.033
33207SOL    HW1 1628  22.589  12.737   9.970
33207SOL    HW2 1629   0.550   1.576  -0.988
33208SOL     OW 1630   5.905   4.318   3.835
33208SOL    HW1 1631   5.985  26.432   3.795
33208SOL    HW2 1632   5.837   4.334   3.769
33209SOL     OW 1633   0.094   8.542  11.570
33209SOL    HW1 1634   0.143   8.606   0.479
33209SOL    HW2 1635   0.055  -2.447  11.641
33210SOL     OW 1636   6.425   7.765   6.643
33210SOL    HW1 1637   6.418  18.828   6.736
33210SOL    HW2 1638   6.425   7.848 -15.482
33211SOL     OW 1639   3.946   0.498   8.426
33211SOL    HW1 1640  15.050   0.563  -2.585
33211SOL    HW2 1641  15.021   0.462   8.345
33212SOL     OW 1642   6.133  10.906   3.999
33212SOL    HW1 1643   6.049  10.862  26.091
33212SOL    HW2 1644   6.111  10.983  48.105
33213SOL     OW 1645   1.539  12.350   3.173
33213SOL    HW1 1646   1.617   1.362   3.152
33213SOL    HW2 1647  -9.488  -9.812   3.128
33214SOL     OW 1648   1.677   1.116   3.042
33214SOL    HW1 1649   1.647   1.146   2.957
33214SOL    HW2 1650   1.769   1.093  -8.011
33215SOL     OW 1651   9.951   0.160   6.652
33215SOL    HW1 1652  20.946  11.277   6.686
33215SOL    HW2 1653   9.923   0.089  17.749
33216SOL     OW 1654  10.292   3.525   9.424
33216SOL    HW1 1655  10.282   3.473   9.504
33216SOL    HW2 1656  10.240 -18.476   9.440
33217SOL     OW 1657  -0.536   8.581   5.199
33217SOL    HW1 1658  -0.445  -2.430   5.186
33217SOL    HW2 1659  10.480  -2.424   5.285
33218SOL     OW 1660   0.473   4.720   1.962
33218SOL    HW1 1661   0.445   4.751   1.876
33218SOL    HW2 1662   0.407  15.695  13.027
33219SOL     OW 1663   1.634   5.933   2.688
33219SOL    HW1 1664   1.604  -5.186   2.643
33219SOL    HW2 1665   1.554   5.983   2.705
33220SOL     OW 1666   6.244   8.248   2.881
33220SOL    HW1 1667 -26.886   8.237   2.787
33220SOL    HW2 1668   6.258  19.200   2.915
33221SOL     OW 1669   6.253   0.054   3.227
33221SOL    HW1 1670   6.278  -0.035   3.251
33221SOL    HW2 1671   6.218   0.046   3.138
33222SOL     OW 1672   8.162   4.367   2.381
33222SOL    HW1 1673  -2.945  15.453   2.432
33222SOL    HW2 1674   8.127  15.319   2.370
33223SOL     OW 1675   2.421   9.660   8.671
33223SOL    HW1 1676   2.413   9.609   8.591
33223SOL    HW2 1677   2.460  20.639   8.735
33224SOL     OW 1678   4.934   9.037   5.853
33224SOL    HW1 1679 -28.141   8.990  39.042
33224SOL    HW2 1680  15.939   8.968   5.796
33225SOL     OW 1681  -1.508   9.816  10.536
33225SOL    HW1 1682  -1.534   9.892  10.484
33225SOL    HW2 1683  31.639   9.854  10.619
33226SOL     OW 1684   2.791   6.283  10.533
33226SOL    HW1 1685   2.706   6.316  10.559
33226SOL    HW2 1686   2.780   6.188  -0.508
33227SOL     OW 1687   7.639   2.564   1.378
33227SOL    HW1 1688  -3.471   2.607   1.425
33227SOL    HW2 1689  -3.423   2.574   1.285
33228SOL     OW 1690   3.577  10.077  10.178
33228SOL    HW1 1691   3.588  21.093  -0.953
33228SOL    HW2 1692  14.573  10.001  -0.822
33229SOL     OW 1693   4.485   0.786   5.854
33229SOL    HW1 1694   4.561 -10.264   5.910
33229SOL    HW2 1695   4.459   0.697  16.872
33230SOL     OW 1696   9.986   3.590   3.355
33230SOL    HW1 1697  10.001   3.664   3.296
33230SOL    HW2 1698  10.072  14.608  25.469
33231SOL     OW 1699   3.640  -0.529   2.646
33231SOL    HW1 1700   3.605  10.584   2.696
33231SOL    HW2 1701  14.646  10.523   2.557
33232SOL     OW 1702   7.413   0.759   8.973
33232SOL    HW1 1703   7.357   0.706   8.916
33232SOL    HW2 1704  18.506   0.811   8.913
33233SOL     OW 1705   9.723   9.425   1.775
33233SOL    HW1 1706   9.752   9.383 -20.223
33233SOL    HW2 1707   9.643  -1.662   1.750
33234SOL     OW 1708  10.222   0.781   8.747
33234SOL    HW1 1709  10.230   0.806   8.839
33234SOL    HW2 1710  10.312   0.766   8.719
33235SOL     OW 1711  10.300   4.742  -0.529
33235SOL    HW1 1712  10.227   4.801  -0.510
33235SOL    HW2 1713  10.289  15.709  10.571
33236SOL     OW 1714   3.472   6.543   3.399
33236SOL    HW1 1715  25.560   6.502 -18.594
33236SOL    HW2 1716   3.484   6.637 -18.663
33237SOL     OW 1717   0.702  10.511  -0.395
33237SOL    HW1 1718   0.780  10.506  -0.340
33237SOL    HW2 1719   0.671  -0.438  10.654
33238SOL     OW 1720   0.540   9.032   1.898
33238SOL    HW1 1721   0.451   9.018   1.928
33238SOL    HW2 1722   0.595   8.992   1.966
33239SOL     OW 1723   6.539   6.530  10.967
33239SOL    HW1 1724   6.476 -26.589  11.039
33239SOL    HW2 1725   6.623   6.552  11.008
33240SOL     OW 1726  10.918   6.105  10.722
33240SOL    HW1 1727  10.867   6.092  10.802
33240SOL    HW2 1728  10.982   6.172  -0.295
33241SOL     OW 1729   8.023   4.961   2.435
33241SOL    HW1 1730   8.063  16.088   2.444
33241SOL    HW2 1731 -14.030  15.954   2.515
33242SOL     OW 1732   1.505   7.413  11.022
33242SOL    HW1 1733   1.588   7.442  11.061
33242SOL    HW2 1734  12.485   7.487  11.035
33243SOL     OW 1735   1.135   8.398   6.023
33243SOL    HW1 1736   1.047  -2.670   6.048
33243SOL    HW2 1737   1.192  -2.678   6.091
33244SOL     OW 1738   8.879   7.193   8.074
33244SOL    HW1 1739 -13.215   7.273   8.023
33244SOL    HW2 1740   8.974   7.181  30.151
33245SOL     OW 1741   0.792   8.576  12.204
33245SOL    HW1 1742   0.794   8.508  -9.943
33245SOL    HW2 1743  22.778  -2.441  12.212
33246SOL     OW 1744   6.390  11.242   7.537
33246SOL    HW1 1745  17.374  11.311   7.501
33246SOL    HW2 1746  -4.624 -21.845  -3.416
33247SOL     OW 1747   1.729   7.272  11.340
33247SOL    HW1 1748   1.824   7.264   0.307
33247SOL    HW2 1749   1.711   7.268  11.246
33248SOL     OW 1750   2.037   5.655   4.793
33248SOL    HW1 1751   1.995   5.605  -6.317
33248SOL    HW2 1752   1.967   5.709   4.828
33249SOL     OW 1753   8.322  -0.679   9.699
33249SOL    HW1 1754   8.257  21.379  -1.273
33249SOL    HW2 1755   8.276  -0.693   9.616
33250SOL     OW 1756   7.938   3.412  11.224
33250SOL    HW1 1757  -3.173  -7.591   0.132
33250SOL    HW2 1758  18.935   3.346  11.279
33251SOL     OW 1759   6.919   3.128   4.898
33251SOL    HW1 1760  17.900  25.206  -6.065
33251SOL    HW2 1761   6.933   3.221   4.881
33252SOL     OW 1762   9.205  10.667   2.637
33252SOL    HW1 1763   9.210 -22.374   2.693
33252SOL    HW2 1764   9.221 -11.379   2.549
33253SOL     OW 1765   8.494   3.104  10.267
33253SOL    HW1 1766 -13.491   3.085  10.268
33253SOL    HW2 1767  -2.587   3.022  10.295
33254SOL     OW 1768   3.658   6.215   1.384
33254SOL    HW1 1769   3.708   6.296   1.382
33254SOL    HW2 1770  14.743   6.161  12.488
33255SOL     OW 1771   5.273  12.566   3.152
33255SOL    HW1 1772 -27.848  -9.487   3.060
33255SOL    HW2 1773   5.354  -9.564  -7.880
33256SOL     OW 1774   8.272   1.656   7.444
33256SOL    HW1 1775   8.210   1.651   7.372
33256SOL    HW2 1776   8.346   1.603   7.416
33257SOL     OW 1777   9.202   8.494   9.020
33257SOL    HW1 1778   9.146   8.449   9.084
33257SOL    HW2 1779   9.289  19.495  -2.006
33258SOL     OW 1780   7.758   4.780   9.314
33258SOL    HW1 1781  18.801   4.687  -1.750
33258SOL    HW2 1782  18.867   4.821  -1.778
33259SOL     OW 1783   6.384   6.253   2.136
33259SOL    HW1 1784  17.467  17.222  13.223
33259SOL    HW2 1785  17.426   6.327   2.196
33260SOL     OW 1786   5.402   2.888   2.018
33260SOL    HW1 1787   5.336   2.900  12.990
33260SOL    HW2 1788   5.470   2.837  24.055
33261SOL     OW 1789   6.454   5.258  10.783
33261SOL    HW1 1790   6.400  16.259  21.753
33261SOL    HW2 1791  -4.545   5.335  -0.297
33262SOL     OW 1792   1.346   1.547   2.276
33262SOL    HW1 1793   1.433   1.525   2.311
33262SOL    HW2 1794  -9.712   1.633   2.312
33263SOL     OW 1795   5.249   6.606   7.733
33263SOL    HW1 1796   5.306   6.543 -14.303
33263SOL    HW2 1797   5.172   6.555  -3.333
33264SOL     OW 1798   5.582   9.404   5.720
33264SOL    HW1 1799   5.553   9.388  -5.410
33264SOL    HW2 1800   5.624  -1.717   5.746
33265SOL     OW 1801   0.343   6.178  11.131
33265SOL    HW1 1802   0.325  17.179   0.177
33265SOL    HW2 1803   0.265   6.159  11.080
33266SOL     OW 1804  12.215   5.325   6.600
33266SOL    HW1 1805  -9.943   5.344  -4.491
33266SOL    HW2 1806  12.231  -5.635   6.649
33267SOL     OW 1807   2.615  -0.396   5.555
33267SOL    HW1 1808  13.593  -0.338  -5.530
33267SOL    HW2 1809  -8.377  10.701  -5.425
33268SOL     OW 1810   2.795   6.771   4.936
33268SOL    HW1 1811   2.775  17.832   4.845
33268SOL    HW2 1812  -8.292   6.837   4.987
33269SOL     OW 1813   5.793  -1.643  10.950
33269SOL    HW1 1814   5.709   9.351  10.940
33269SOL    HW2 1815   5.832  20.396  11.028
33270SOL     OW 1816  10.372   8.340   1.332
33270SOL    HW1 1817  10.285   8.375  12.357
33270SOL    HW2 1818  10.386   8.350   1.426
33271SOL     OW 1819   6.347  10.837   5.751
33271SOL    HW1 1820   6.356  -0.298   5.759
33271SOL    HW2 1821   6.422  10.863   5.697
33272SOL     OW 1822   6.013   8.587   9.428
33272SOL    HW1 1823   5.972  19.596   9.348
33272SOL    HW2 1824   6.062  30.744  -1.638
33273SOL     OW 1825   5.007   4.795   1.042
33273SOL    HW1 1826  -6.109   4.781   0.985
33273SOL    HW2 1827   4.974   4.852  23.191
33274SOL     OW 1828   0.391  10.779   9.860
33274SOL    HW1 1829   0.377  -0.336   9.802
33274SOL    HW2 1830  11.379 -11.321  -1.102
33275SOL     OW 1831   7.099   8.475   9.102
33275SOL    HW1 1832   7.073   8.488   9.193
33275SOL    HW2 1833  -3.900  -2.481  20.116
33276SOL     OW 1834   0.012   3.194   1.855
33276SOL    HW1 1835   0.047   3.229  -9.103
33276SOL    HW2 1836  -0.027   3.269 -20.268
33277SOL     OW 1837   8.847   9.910  12.361
33277SOL    HW1 1838   8.893   9.827  -9.706
33277SOL    HW2 1839  -2.165   9.940   1.234
33278SOL     OW 1840  10.318   2.130   3.058
33278SOL    HW1 1841  10.376  13.226  -7.931
33278SOL    HW2 1842 -11.711   2.050 -19.036
33279SOL     OW 1843   1.751   5.334   3.451
33279SOL    HW1 1844  12.819  27.475   3.518
33279SOL    HW2 1845  34.869   5.385   3.370
33280SOL     OW 1846   6.820   0.860   0.118
33280SOL    HW1 1847   6.749 -10.141   0.170
33280SOL    HW2 1848  39.986   0.935  22.161
33281SOL     OW 1849   4.257   9.801   5.838
33281SOL    HW1 1850   4.340   9.804   5.884
33281SOL    HW2 1851   4.273   9.743   5.763
33282SOL     OW 1852   3.005   3.301  -0.353
33282SOL    HW1 1853  -7.986   3.244  10.627
33282SOL    HW2 1854   2.927   3.250  -0.329
33283SOL     OW 1855   0.878   0.052   5.812
33283SOL    HW1 1856   0.957   0.047  27.944
33283SOL    HW2 1857   0.824  -0.021   5.843
33284SOL     OW 1858   7.718  10.041   2.275
33284SOL    HW1 1859   7.626  -0.972   2.275
33284SOL    HW2 1860 -14.359   9.963  13.370
33285SOL     OW 1861   0.741   5.715   6.113
33285SOL    HW1 1862   0.739   5.810   6.113
33285SOL    HW2 1863   0.806   5.692  -4.860
33286SOL     OW 1864   4.939   5.541   2.283
33286SOL    HW1 1865   4.898   5.455   2.281
33286SOL    HW2 1866   4.892   5.591 -19.862
33287SOL     OW 1867   7.618  10.671   5.150
33287SOL    HW1 1868   7.610  10.683   5.244
33287SOL    HW2 1869   7.621  10.759  -5.926
33288SOL     OW 1870   9.387   3.886   9.109
33288SOL    HW1 1871   9.320   3.913  20.087
33288SOL    HW2 1872  -1.570   3.912  -1.971
33289SOL     OW 1873   3.778   4.573   7.045
33289SOL    HW1 1874   3.814   4.600   7.130
33289SOL    HW2 1875  14.892 -17.501   6.985
33290SOL     OW 1876   9.811   7.829   6.856
33290SOL    HW1 1877   9.785  -3.298  17.926
33290SOL    HW2 1878  -1.154  -3.226  28.878
33291SOL     OW 1879  12.757   7.343   4.786
33291SOL    HW1 1880 -53.438   7.316   4.704
33291SOL    HW2 1881  12.680  18.433  -6.281
33292SOL     OW 1882   3.900   0.309   8.647
33292SOL    HW1 1883  25.997   0.381   8.587
33292SOL    HW2 1884   3.976  44.465  19.745
33293SOL     OW 1885   7.216   7.190   3.564
33293SOL    HW1 1886   7.152   7.261   3.570
33293SOL    HW2 1887  29.255   7.118   3.612
33294SOL     OW 1888   7.567   8.195   8.921
33294SOL    HW1 1889   7.478  -2.878  19.969
33294SOL    HW2 1890  -3.417   8.118   8.932
33295SOL     OW 1891   0.008  -0.114   6.056
33295SOL    HW1 1892   0.000  -0.093   5.963
33295SOL    HW2 1893   0.043  21.876   6.057
33296SOL     OW 1894   4.296   7.062   4.556
33296SOL    HW1 1895   4.207   7.049   4.586
33296SOL    HW2 1896   4.328   6.975  26.613
33297SOL     OW 1897   4.949   4.034   8.577
33297SOL    HW1 1898   5.029   4.023   8.527
33297SOL    HW2 1899   4.879   4.039  -2.528
33298SOL     OW 1900   0.288   0.852   8.854
33298SOL    HW1 1901   0.282  33.964  -2.281
33298SOL    HW2 1902   0.318 -10.099   8.871
33299SOL     OW 1903   9.241   3.172   1.777
33299SOL    HW1 1904   9.211   3.103 -20.243
33299SOL    HW2 1905  31.352   3.125   1.700
33300SOL     OW 1906   9.732   0.711   1.734
33300SOL    HW1 1907   9.680  11.694   1.791
33300SOL    HW2 1908   9.769 -10.389   1.669
33301SOL     OW 1909   4.581  11.037   2.421
33301SOL    HW1 1910  37.785  -0.045   2.431
33301SOL    HW2 1911   4.570  11.046   2.326
33302SOL     OW 1912   1.066  10.357  11.020
33302SOL    HW1 1913   1.051  -0.774  11.043
33302SOL    HW2 1914   1.112  10.394  11.095
33303SOL     OW 1915   6.933   3.368  10.452
33303SOL    HW1 1916  18.067   3.360  10.441
33303SOL    HW2 1917   6.922   3.387  10.546
33304SOL     OW 1918   1.435   1.379   4.737
33304SOL    HW1 1919   1.368   1.431  15.822
33304SOL    HW2 1920  -9.569  12.361  15.845
33305SOL     OW 1921   1.397   2.202   4.164
33305SOL    HW1 1922   1.444   2.281  37.309
33305SOL    HW2 1923  12.368   2.234   4.105
33306SOL     OW 1924   1.937   2.759   1.552
33306SOL    HW1 1925  24.086   2.707   1.593
33306SOL    HW2 1926   1.869   2.695  -9.509
33307SOL     OW 1927   7.358   6.416   7.370
33307SOL    HW1 1928   7.446   6.450   7.352
33307SOL    HW2 1929  -3.731   6.493   7.399
33308SOL     OW 1930   1.793   8.165   7.466
33308SOL    HW1 1931  -9.304  -2.926 -25.710
33308SOL    HW2 1932   1.734   8.201   7.533
33309SOL     OW 1933   5.525   9.877   9.352
33309SOL    HW1 1934  -5.557   9.818   9.289
33309SOL    HW2 1935  16.499  -1.151   9.421
33310SOL     OW 1936   7.852   3.597   1.778
33310SOL    HW1 1937   7.932 -29.473   1.798
33310SOL    HW2 1938   7.883 -18.567  12.786
33311SOL     OW 1939   8.203   2.857   7.962
33311SOL    HW1 1940   8.203   2.800   7.885
33311SOL    HW2 1941   8.163   2.805   8.031
33312SOL     OW 1942   2.741   9.522   0.385
33312SOL    HW1 1943  13.867   9.500   0.349
33312SOL    HW2 1944   2.686  20.486   0.362
33313SOL     OW 1945   6.029   8.641   4.439
33313SOL    HW1 1946   5.938   8.611  15.483
33313SOL    HW2 1947   6.056   8.622   4.349
33314SOL     OW 1948   2.866   4.891   4.466
33314SOL    HW1 1949   2.786  -6.179   4.510
33314SOL    HW2 1950  -8.131   4.811   4.436
33315SOL     OW 1951   2.659   4.127   4.485
33315SOL    HW1 1952   2.564   4.135   4.485
33315SOL    HW2 1953  -8.364   4.033   4.496
33316SOL     OW 1954  -1.633   8.211   1.439
33316SOL    HW1 1955   9.490   8.166   1.430
33316SOL    HW2 1956  20.395   8.183   1.362
33317SOL     OW 1957   3.454   7.865  10.606
33317SOL    HW1 1958   3.477   7.774  10.585
33317SOL    HW2 1959   3.370  18.919  10.563
33318SOL     OW 1960   8.742   5.226   1.178
33318SOL    HW1 1961  -2.319   5.173   1.255
33318SOL    HW2 1962   8.803   5.172   1.128
33319SOL     OW 1963   9.089   3.909   8.549
33319SOL    HW1 1964  31.179   3.966  -2.566
33319SOL    HW2 1965   9.049   3.830  30.593
33320SOL     OW 1966   0.118  10.197   2.812
33320SOL    HW1 1967   0.040  10.215   2.864
33320SOL    HW2 1968   0.100  -0.927   2.770
33321SOL     OW 1969   6.626   6.426   9.705
33321SOL    HW1 1970  17.723 -15.693   9.771
33321SOL    HW2 1971   6.542   6.435   9.749
33322SOL     OW 1972  11.147   3.850   5.613
33322SOL    HW1 1973  11.191  14.883   5.528
33322SOL    HW2 1974 -10.897   3.929  27.732
33323SOL     OW 1975   0.838   9.481   7.035
33323SOL    HW1 1976   0.787   9.449   6.961
33323SOL    HW2 1977   0.918  -1.612  18.073
33324SOL     OW 1978   8.153   8.081  12.356
33324SOL    HW1 1979   8.120   8.115  -9.806
33324SOL    HW2 1980   8.226   8.138  -9.700
33325SOL     OW 1981   9.226   6.921   0.775
33325SOL    HW1 1982   9.252   6.879   0.694
33325SOL    HW2 1983   9.196   6.848  11.870
33326SOL     OW 1984   8.494   2.036  11.038
33326SOL    HW1 1985  19.589   2.113  -0.004
33326SOL    HW2 1986  -2.489  24.045  11.071
33327SOL     OW 1987   4.778   7.658   5.128
33327SOL    HW1 1988   4.760   7.564   5.134
33327SOL    HW2 1989   4.692   7.699   5.134
33328SOL     OW 1990   1.533   8.013   2.400
33328SOL    HW1 1991  -9.468  19.128 -30.675
33328SOL    HW2 1992  -9.576   8.050   2.344
33329SOL     OW 1993   0.818   1.814   9.927
33329SOL    HW1 1994   0.825   1.775   9.840
33329SOL    HW2 1995   0.749   1.764   9.971
33330SOL     OW 1996   6.718   4.079   5.517
33330SOL    HW1 1997 -15.397   4.167   5.530
33330SOL    HW2 1998   6.677   4.026   5.585
33331SOL     OW 1999  10.257   2.129  10.027
33331SOL    HW1 2000  10.183  13.214   9.986
33331SOL    HW2 2001  10.332   2.187  10.012
33332SOL     OW 2002   5.039   8.695   9.873
33332SOL    HW1 2003   5.083   8.717   9.791
33332SOL    HW2 2004   5.110  19.714   9.933
33333SOL     OW 2005   0.510   5.304   5.190
33333SOL    HW1 2006  11.487  16.415  -5.855
33333SOL    HW2 2007   0.587   5.335   5.142
33334SOL     OW 2008   3.446   9.218   0.991
33334SOL    HW1 2009  -7.631  -1.824   1.079
33334SOL    HW2 2010   3.454 -23.808  12.010
33335SOL     OW 2011   7.353  12.442   8.844
33335SOL    HW1 2012   7.340  -9.730   8.824
33335SOL    HW2 2013   7.429   1.428   8.792
33336SOL     OW 2014   7.149   7.165   6.352
33336SOL    HW1 2015 -14.866  18.217   6.423
33336SOL    HW2 2016   7.126  18.112   6.357
33337SOL     OW 2017   1.906   3.503   3.802
33337SOL    HW1 2018   1.976  14.581   3.749
33337SOL    HW2 2019   1.946   3.487   3.887
33338SOL     OW 2020   0.287   8.756   4.857
33338SOL    HW1 2021   0.292   8.832   4.799
33338SOL    HW2 2022  11.358   8.789   4.941
33339SOL     OW 2023   1.919   9.601   5.348
33339SOL    HW1 2024  -9.041  -1.432   5.296
33339SOL    HW2 2025   1.937  -1.388   5.427
33340SOL     OW 2026   8.501   8.659   1.800
33340SOL    HW1 2027   8.466   8.737  12.882
33340SOL    HW2 2028   8.487   8.589   1.863
33341SOL     OW 2029   5.489   3.136   4.979
33341SOL    HW1 2030   5.481   3.218   5.027
33341SOL    HW2 2031   5.411   3.133  27.003
33342SOL     OW 2032   7.068   1.967   9.007
33342SOL    HW1 2033   7.075  -9.158   9.048
33342SOL    HW2 2034   7.137   2.019   9.049
33343SOL     OW 2035   7.698   1.702   2.093
33343SOL    HW1 2036   7.633   1.632  13.128
33343SOL    HW2 2037  18.740   1.737   2.004
33344SOL     OW 2038   7.847   7.013   9.568
33344SOL    HW1 2039  -3.185  18.014   9.655
33344SOL    HW2 2040  18.833   7.092   9.581
33345SOL     OW 2041   8.700   9.215  -2.261
33345SOL    HW1 2042  19.688  20.331  41.924
33345SOL    HW2 2043   8.638   9.143  -2.260
33346SOL     OW 2044   6.648   3.692   5.315
33346SOL    HW1 2045   6.679   3.776   5.283
33346SOL    HW2 2046   6.616  -7.393  38.355
33347SOL     OW 2047   5.479   9.581   8.921
33347SOL    HW1 2048   5.563   9.557   8.959
33347SOL    HW2 2049   5.484   9.552   8.830
33348SOL     OW 2050   5.779   7.941   7.988
33348SOL    HW1 2051  -5.320   7.949   7.914
33348SOL    HW2 2052   5.738   7.877  -2.994
33349SOL     OW 2053   8.004  10.000   6.255
33349SOL    HW1 2054   7.915  10.008   6.219
33349SOL    HW2 2055  -3.021  -0.959  17.343
33350SOL     OW 2056   0.340   2.147   0.510
33350SOL    HW1 2057   0.427   2.126  11.582
33350SOL    HW2 2058   0.346  -8.801   0.482
33351SOL     OW 2059   0.310   1.429   5.761
33351SOL    HW1 2060   0.374   1.360   5.742
33351SOL    HW2 2061   0.249   1.425  49.845
33352SOL     OW 2062   5.960   7.834   7.574
33352SOL    HW1 2063   5.899  -3.278   7.578
33352SOL    HW2 2064   5.911  18.949   7.607
33353SOL     OW 2065   7.679   3.146   5.508
33353SOL    HW1 2066  -3.270   3.144   5.539
33353SOL    HW2 2067   7.626  47.307   5.587
33354SOL     OW 2068   2.576   9.636   6.924
33354SOL    HW1 2069   2.554   9.688  -4.038
33354SOL    HW2 2070  24.586   9.570   6.919
33355SOL     OW 2071   1.894   3.322   5.164
33355SOL    HW1 2072  24.066   3.336  16.183
33355SOL    HW2 2073   1.849   3.336   5.081
33356SOL     OW 2074   1.068   0.539   5.846
33356SOL    HW1 2075   1.102  22.532  38.988
33356SOL    HW2 2076 -10.005   0.528   5.757
33357SOL     OW 2077   3.082   7.261  13.234
33357SOL    HW1 2078 -19.015  29.246   2.202
33357SOL    HW2 2079   3.174   7.269 -19.860
33358SOL     OW 2080   4.657   1.015  10.585
33358SOL    HW1 2081   4.650   0.988  10.494
33358SOL    HW2 2082   4.673  -9.930  10.581
33359SOL     OW 2083   6.576   8.980  11.002
33359SOL    HW1 2084  17.588  -2.095  10.918
33359SOL    HW2 2085   6.558  -1.965  10.995
33360SOL     OW 2086   9.472   3.590   6.351
33360SOL    HW1 2087   9.489  14.553  17.445
33360SOL    HW2 2088   9.446   3.658   6.413
33361SOL     OW 2089   4.435  -0.169   3.518
33361SOL    HW1 2090   4.502  -0.230  -7.552
33361SOL    HW2 2091  26.434  10.818  -7.515
33362SOL     OW 2092   1.602   2.368   2.362
33362SOL    HW1 2093   1.697   2.379  -8.682
33362SOL    HW2 2094  23.660   2.319   2.283
33363SOL     OW 2095   4.157   2.205   4.342
33363SOL    HW1 2096 -17.916  13.236 -28.682
33363SOL    HW2 2097  -6.848   2.293   4.323
33364SOL     OW 2098  10.294   4.813   5.575
33364SOL    HW1 2099  -0.768   4.754   5.647
33364SOL    HW2 2100  10.284   4.760  27.575
33365SOL     OW 2101   8.677   5.754   9.720
33365SOL    HW1 2102   8.741   5.694  20.722
33365SOL    HW2 2103   8.593  16.767   9.682
33366SOL     OW 2104   1.371   1.377   7.924
33366SOL    HW1 2105   1.328   1.315  -3.175
33366SOL    HW2 2106   1.453   1.334 -14.131
33367SOL     OW 2107   7.590   7.211   9.231
33367SOL    HW1 2108   7.637   7.127   9.229
33367SOL    HW2 2109  18.589  18.258 -23.974
33368SOL     OW 2110   4.241   1.987   0.727
33368SOL    HW1 2111   4.178   2.010   0.658
33368SOL    HW2 2112  -6.726   2.047   0.714
33369SOL     OW 2113   4.715   2.618   5.380
33369SOL    HW1 2114  15.741   2.702   5.422
33369SOL    HW2 2115   4.808  13.639   5.394
33370SOL     OW 2116  10.801  10.626  11.100
33370SOL    HW1 2117  -0.283  -0.334 -11.008
33370SOL    HW2 2118  10.763  10.556 -33.112
33371SOL     OW 2119   0.258   1.367  10.078
33371SOL    HW1 2120   0.188   1.360  10.143
33371SOL    HW2 2121   0.233   1.443  10.025
33372SOL     OW 2122   3.461   4.773  10.144
33372SOL    HW1 2123   3.466   4.681  10.168
33372SOL    HW2 2124   3.425   4.772  10.055
33373SOL     OW 2125   7.961   7.093   8.629
33373SOL    HW1 2126   7.999  -3.987  -2.489
33373SOL    HW2 2127  19.073  -3.941   8.691
33374SOL     OW 2128   8.575   0.762  10.955
33374SOL    HW1 2129   8.664   0.737  10.980
33374SOL    HW2 2130   8.524   0.681  10.964
33375SOL     OW 2131   8.158   9.379   7.529
33375SOL    HW1 2132   8.093   9.325   7.482
33375SOL    HW2 2133   8.232   9.320   7.543
33376SOL     OW 2134   7.338   8.794   9.241
33376SOL    HW1 2135 -14.664   8.843   9.216
33376SOL    HW2 2136   7.306  -2.284   9.159
33377SOL     OW 2137   2.001   3.962   9.945
33377SOL    HW1 2138   1.942   4.036  20.989
33377SOL    HW2 2139  -8.992  15.002  10.029
33378SOL     OW 2140   3.266   3.727   2.248
33378SOL    HW1 2141   3.281   3.773  24.410
33378SOL    HW2 2142   3.249   3.636  13.312
33379SOL     OW 2143  10.147   1.726   5.680
33379SOL    HW1 2144  10.096   1.740  -5.280
33379SOL    HW2 2145  10.233  23.841   5.700
33380SOL     OW 2146   2.207   1.411   0.520
33380SOL    HW1 2147   2.249   1.458   0.592
33380SOL    HW2 2148  13.190   1.348  22.642
33381SOL     OW 2149   2.534   6.154   6.404
33381SOL    HW1 2150   2.508  17.281   6.432
33381SOL    HW2 2151   2.505   6.096   6.475
33382SOL     OW 2152   4.269   5.280   9.210
33382SOL    HW1 2153   4.310 -16.743  31.223
33382SOL    HW2 2154   4.340  -5.816  -1.799
33383SOL     OW 2155   4.178   7.835   0.644
33383SOL    HW1 2156   4.262  40.907  33.761
33383SOL    HW2 2157   4.196  18.953  11.734
33384SOL     OW 2158  10.616   8.178   4.974
33384SOL    HW1 2159  10.690  19.275   4.994
33384SOL    HW2 2160  10.605   8.185   4.879
33385SOL     OW 2161  10.137   5.326   2.965
33385SOL    HW1 2162  21.113  38.516   2.971
33385SOL    HW2 2163  10.196   5.353   2.895
33386SOL     OW 2164   7.830   0.492   7.708
33386SOL    HW1 2165   7.813   0.532  29.872
33386SOL    HW2 2166  18.960   0.463   7.712
33387SOL     OW 2167   1.360   4.784  -0.392
33387SOL    HW1 2168   1.403   4.699  32.716
33387SOL    HW2 2169   1.416  -6.194  10.600
33388SOL     OW 2170  10.575   1.118   7.259
33388SOL    HW1 2171  10.619  23.197   7.174
33388SOL    HW2 2172  10.563   1.211   7.279
33389SOL     OW 2173   2.855   1.796   1.785
33389SOL    HW1 2174  -8.205 -20.364   1.737
33389SOL    HW2 2175  -8.168   1.860   1.716
33390SOL     OW 2176   2.969   8.526   8.649
33390SOL    HW1 2177 -19.024   8.506  -2.356
33390SOL    HW2 2178   2.986   8.562 -13.517
33391SOL     OW 2179   6.320  10.427   7.403
33391SOL    HW1 2180   6.349  -0.635   7.492
33391SOL    HW2 2181   6.323  10.523 -36.758
33392SOL     OW 2182   2.611   9.618   5.035
33392SOL    HW1 2183 -19.511   9.533   5.034
33392SOL    HW2 2184   2.705   9.598 -28.084
33393SOL     OW 2185   1.890   4.272   5.455
33393SOL    HW1 2186   1.898  37.296  -5.588
33393SOL    HW2 2187   1.845   4.290   5.537
33394SOL     OW 2188   9.326   8.575   0.626
33394SOL    HW1 2189   9.413   8.590   0.589
33394SOL    HW2 2190   9.337  19.539   0.683
33395SOL     OW 2191   3.485   4.509   0.208
33395SOL    HW1 2192  -7.481 -17.570   0.147
33395SOL    HW2 2193  25.521   4.425   0.194
33396SOL     OW 2194  10.172   8.866   0.618
33396SOL    HW1 2195  10.212  19.821   0.594
33396SOL    HW2 2196  10.211   8.886   0.704
33397SOL     OW 2197   0.458   9.408   9.562
33397SOL    HW1 2198   0.429   9.417  -1.387
33397SOL    HW2 2199   0.534   9.466   9.555
33398SOL     OW 2200   3.528   9.881   5.334
33398SOL    HW1 2201   3.609  20.970   5.347
33398SOL    HW2 2202   3.462   9.930   5.383
33399SOL     OW 2203   2.449   7.791   6.231
33399SOL    HW1 2204   2.407   7.876 -15.839
33399SOL    HW2 2205   2.419  -3.281 -15.933
33400SOL     OW 2206   6.184   5.697   0.677
33400SOL    HW1 2207  -4.896   5.614   0.703
33400SOL    HW2 2208   6.110  -5.285   0.657
33401SOL     OW 2209   8.409   2.097   0.331
33401SOL    HW1 2210   8.367   2.108   0.246
33401SOL    HW2 2211   8.496 -20.018  11.350
33402SOL     OW 2212   9.657   5.072   1.947
33402SOL    HW1 2213   9.702   5.034   2.022
33402SOL    HW2 2214   9.672  16.206   1.955
33403SOL     OW 2215   2.580   4.588   9.282
33403SOL    HW1 2216   2.522 -17.485   9.358
33403SOL    HW2 2217   2.532  -6.410   9.211
33404SOL     OW 2218   0.726  11.195   6.427
33404SOL    HW1 2219   0.770   0.239   6.446
33404SOL    HW2 2220   0.786  11.128   6.460
33405SOL     OW 2221   1.652   6.378   0.915
33405SOL    HW1 2222  12.787  17.427   0.916
33405SOL    HW2 2223   1.625   6.407   1.002
33406SOL     OW 2224   2.135   3.250   1.205
33406SOL    HW1 2225   2.082   3.232   1.282
33406SOL    HW2 2226   2.074  -7.796   1.132
33407SOL     OW 2227   3.555   7.914   7.746
33407SOL    HW1 2228   3.510  -3.209  29.822
33407SOL    HW2 2229   3.528   7.953  18.869
33408SOL     OW 2230   6.861   5.860   9.611
33408SOL    HW1 2231   6.845   5.909   9.531
33408SOL    HW2 2232   6.886   5.772  20.622
33409SOL     OW 2233   0.325   5.161  -0.365
33409SOL    HW1 2234  22.419   5.123  10.761
33409SOL    HW2 2235 -21.675   5.211  -0.383
33410SOL     OW 2236   9.861   8.035   9.717
33410SOL    HW1 2237  -1.220   7.986   9.787
33410SOL    HW2 2238  20.845   8.020  -1.399
33411SOL     OW 2239   5.811   4.975   3.092
33411SOL    HW1 2240  -5.141   5.013   3.082
33411SOL    HW2 2241   5.751  38.167   3.080
33412SOL     OW 2242   9.365   0.676   6.178
33412SOL    HW1 2243  -1.629   0.600   6.142
33412SOL    HW2 2244  -1.622   0.701  17.294
33413SOL     OW 2245   9.801   1.532   0.451
33413SOL    HW1 2246   9.773   1.623   0.460
33413SOL    HW2 2247   9.782   1.492   0.536
33414SOL     OW 2248   4.390   7.658   7.448
33414SOL    HW1 2249  15.424   7.575   7.494
33414SOL    HW2 2250   4.442  18.753   7.506
33415SOL     OW 2251   2.761  10.866   8.918
33415SOL    HW1 2252   2.699  10.827   8.857
33415SOL    HW2 2253   2.740  10.828   9.003
33416SOL     OW 2254   9.373   0.718   1.956
33416SOL    HW1 2255   9.306   0.657   1.987
33416SOL    HW2 2256   9.444   0.662   1.927
33417SOL     OW 2257   8.832   8.920   2.486
33417SOL    HW1 2258   8.748   8.951   2.519
33417SOL    HW2 2259   8.811  19.917   2.403
33418SOL     OW 2260   3.871   7.328   4.046
33418SOL    HW1 2261  -7.147  18.282   4.011
33418SOL    HW2 2262   3.875 -14.762   4.141
33419SOL     OW 2263   7.628   8.460   6.604
33419SOL    HW1 2264  -3.481   8.399  -4.410
33419SOL    HW2 2265  -3.424 -13.543   6.660
33420SOL     OW 2266   8.374   3.182   0.939
33420SOL    HW1 2267   8.455   3.130   0.933
33420SOL    HW2 2268   8.356   3.207   0.849
33421SOL     OW 2269   2.658  -0.291   0.302
33421SOL    HW1 2270   2.607  10.786   0.230
33421SOL    HW2 2271   2.620  -0.378   0.315
33422SOL     OW 2272   3.233   9.328   1.730
33422SOL    HW1 2273   3.325   9.327  12.744
33422SOL    HW2 2274  -7.850 -23.745   1.658
33423SOL     OW 2275   8.413   3.923   9.886
33423SOL    HW1 2276   8.504   3.948   9.870
33423SOL    HW2 2277   8.373   3.921   9.799
33424SOL     OW 2278   9.532   9.759   6.111
33424SOL    HW1 2279   9.589  20.723   6.099
33424SOL    HW2 2280   9.447  20.770  17.117
33425SOL     OW 2281   9.086  -1.783   9.502
33425SOL    HW1 2282  20.119  31.417  20.491
33425SOL    HW2 2283   9.053   9.189  -1.597
33426SOL     OW 2284   1.337   3.679   5.793
33426SOL    HW1 2285  23.448   3.675   5.703
33426SOL    HW2 2286   1.354   3.591   5.828
33427SOL     OW 2287  10.304   3.391   7.211
33427SOL    HW1 2288  10.241   3.343   7.264
33427SOL    HW2 2289  21.429 -18.721   7.239
33428SOL     OW 2290   6.225   7.932   8.437
33428SOL    HW1 2291   6.219  19.067   8.442
33428SOL    HW2 2292   6.250  29.993   8.347
33429SOL     OW 2293   5.193   1.528   6.670
33429SOL    HW1 2294  27.184  -9.537   6.643
33429SOL    HW2 2295  16.280   1.542  -4.452
33430SOL     OW 2296   9.543   1.048   0.166
33430SOL    HW1 2297   9.598   0.975   0.193
33430SOL    HW2 2298   9.462   1.007   0.135
33431SOL     OW 2299   1.542   1.210   8.717
33431SOL    HW1 2300   1.634  -9.857   8.720
33431SOL    HW2 2301   1.494   1.131   8.696
33432SOL     OW 2302   8.666   6.936   0.480
33432SOL    HW1 2303   8.733  18.043   0.491
33432SOL    HW2 2304   8.697  17.903   0.535
33433SOL     OW 2305   4.555   4.406   2.575
33433SOL    HW1 2306   4.527   4.323   2.536
33433SOL    HW2 2307   4.636   4.385  13.662
33434SOL     OW 2308   0.791   0.552   0.024
33434SOL    HW1 2309   0.742   0.573  10.984
33434SOL    HW2 2310   0.751   0.472  11.097
33435SOL     OW 2311   6.839   9.371   5.484
33435SOL    HW1 2312   6.864   9.381  27.655
33435SOL    HW2 2313   6.920  20.391   5.438
33436SOL     OW 2314   9.862   2.384  10.135
33436SOL    HW1 2315 -12.198   2.431  -0.823
33436SOL    HW2 2316  -1.154   2.293  10.154
33437SOL     OW 2317   4.380   9.985   0.706
33437SOL    HW1 2318  26.384  10.044   0.716
33437SOL    HW2 2319  26.504  -1.024   0.628
33438SOL     OW 2320   8.850   2.559   6.136
33438SOL    HW1 2321   8.761   2.568   6.170
33438SOL    HW2 2322   8.895  24.718   6.166
33439SOL     OW 2323   9.357   8.357   8.088
33439SOL    HW1 2324   9.426  19.380   8.152
33439SOL    HW2 2325   9.402   8.358   8.004
33440SOL     OW 2326   2.475   0.857   4.215
33440SOL    HW1 2327   2.503   0.947 -28.890
33440SOL    HW2 2328   2.548  22.895   4.168
33441SOL     OW 2329   3.312   2.481   7.668
33441SOL    HW1 2330  -7.707  13.428  18.694
33441SOL    HW2 2331   3.275   2.509  18.624
33442SOL     OW 2332   7.325   9.354   5.058
33442SOL    HW1 2333   7.395   9.291   5.072
33442SOL    HW2 2334   7.255  -1.736   5.018
33443SOL     OW 2335   8.291   8.250   9.825
33443SOL    HW1 2336   8.329   8.256   9.738
33443SOL    HW2 2337   8.201   8.281   9.815
33444SOL     OW 2338   6.060   7.963  -0.872
33444SOL    HW1 2339 -16.006   7.978  -0.966
33444SOL    HW2 2340   5.966   7.944  43.295
33445SOL     OW 2341  10.834   6.147   2.556
33445SOL    HW1 2342  10.795   6.234   2.556
33445SOL    HW2 2343  10.861   6.132   2.646
33446SOL     OW 2344   1.849   8.803   3.045
33446SOL    HW1 2345 -20.159   8.768   3.099
33446SOL    HW2 2346   1.893   8.851   2.975
33447SOL     OW 2347   1.372   0.893   4.362
33447SOL    HW1 2348   1.394   0.885   4.269
33447SOL    HW2 2349   1.427  12.006   4.392
33448SOL     OW 2350   7.342   0.447  10.494
33448SOL    HW1 2351   7.289   0.517  10.456
33448SOL    HW2 2352  40.453   0.460  10.589
33449SOL     OW 2353  10.838   4.522   9.093
33449SOL    HW1 2354  10.763   4.548   9.039
33449SOL    HW2 2355  10.886  37.578   9.039
33450SOL     OW 2356   8.709   1.446   5.959
33450SOL    HW1 2357   8.666   1.437  28.123
33450SOL    HW2 2358   8.774   1.376   5.958
33451SOL     OW 2359   2.283   8.553   9.531
33451SOL    HW1 2360  13.262   8.626   9.546
33451SOL    HW2 2361   2.284  -2.534  31.693
33452SOL     OW 2362   1.142  10.561   9.123
33452SOL    HW1 2363   1.054  10.599   9.121
33452SOL    HW2 2364   1.185  10.595   9.045
33453SOL     OW 2365   3.296   2.518  10.594
33453SOL    HW1 2366   3.329   2.586  10.653
33453SOL    HW2 2367   3.251  -8.473  10.525
33454SOL     OW 2368   4.025   1.478   7.771
33454SOL    HW1 2369  26.143   1.523  -3.344
33454SOL    HW2 2370  15.118   1.399   7.781
33455SOL     OW 2371   4.734  10.696   6.172
33455SOL    HW1 2372   4.687  10.628   6.124
33455SOL    HW2 2373 -17.254  10.688   6.142
33456SOL     OW 2374  10.969   9.836  10.955
33456SOL    HW1 2375  10.897  20.935  10.974
33456SOL    HW2 2376  11.006   9.868  -0.167
33457SOL     OW 2377   9.494   4.777   4.398
33457SOL    HW1 2378   9.482 -28.359  15.531
33457SOL    HW2 2379   9.468  -6.344  -6.685
33458SOL     OW 2380   7.157   0.652   5.909
33458SOL    HW1 2381  18.156   0.666   5.823
33458SOL    HW2 2382   7.169   0.741  -5.095
33459SOL     OW 2383   0.047   9.107   3.670
33459SOL    HW1 2384 -11.067   9.065 -29.406
33459SOL    HW2 2385  11.098   9.190 -18.364
33460SOL     OW 2386   3.441   7.299   6.118
33460SOL    HW1 2387   3.448 -14.865 -16.003
33460SOL    HW2 2388   3.402   7.356   6.052
33461SOL     OW 2389   3.493   1.693   4.002
33461SOL    HW1 2390  25.534   1.611   4.032
33461SOL    HW2 2391   3.545   1.725  15.116
33462SOL     OW 2392   7.206   9.599   3.117
33462SOL    HW1 2393   7.161   9.516  14.174
33462SOL    HW2 2394   7.170   9.629   3.033
33463SOL     OW 2395   3.067   2.117   8.724
33463SOL    HW1 2396   3.061   2.038 -13.408
33463SOL    HW2 2397   3.030   2.186  -2.371
33464SOL     OW 2398   3.316   9.134   0.368
33464SOL    HW1 2399  25.483   9.173   0.373
33464SOL    HW2 2400  14.369   9.051  44.482
33465SOL     OW 2401   3.216   4.866  10.875
33465SOL    HW1 2402   3.283   4.829  10.818
33465SOL    HW2 2403   3.209   4.958  10.848
33466SOL     OW 2404   4.497   7.107  10.622
33466SOL    HW1 2405   4.404  -3.929  10.599
33466SOL    HW2 2406   4.513   7.014  10.640
33467SOL     OW 2407   9.409   8.135   0.526
33467SOL    HW1 2408   9.375 -13.890  11.494
33467SOL    HW2 2409  20.379   8.073   0.545
33468SOL     OW 2410   5.503   3.506   8.948
33468SOL    HW1 2411   5.534  14.554   9.038
33468SOL    HW2 2412  16.594  14.473 -13.168
33469SOL     OW 2413   3.774   7.034   0.705
33469SOL    HW1 2414   3.828   7.038  22.705
33469SOL    HW2 2415   3.760   7.126   0.729
33470SOL     OW 2416   4.584   2.168   9.277
33470SOL    HW1 2417  26.725   2.104  -1.797
33470SOL    HW2 2418   4.505   2.116   9.298
33471SOL     OW 2419   6.968   5.634   4.068
33471SOL    HW1 2420   6.967   5.548   4.111
33471SOL    HW2 2421  29.098   5.690   4.127
33472SOL     OW 2422   8.784  10.599  11.027
33472SOL    HW1 2423  -2.241  10.511  11.060
33472SOL    HW2 2424   8.811  10.657  11.098
33473SOL     OW 2425   5.850   1.630  10.975
33473SOL    HW1 2426  27.913   1.606  10.884
33473SOL    HW2 2427   5.851   1.725  -0.064
33474SOL     OW 2428   1.224  10.415   1.023
33474SOL    HW1 2429   1.169  10.372  23.037
33474SOL    HW2 2430   1.306  10.434  12.017
33475SOL     OW 2431   3.205   8.719   4.078
33475SOL    HW1 2432   3.262  30.722   4.084
33475SOL    HW2 2433 -29.954   8.726   4.164
33476SOL     OW 2434  12.105   5.542   3.634
33476SOL    HW1 2435   1.157   5.530   3.608
33476SOL    HW2 2436  -9.972 -27.503  25.776
33477SOL     OW 2437   5.701   7.921   3.256
33477SOL    HW1 2438  16.789   7.945   3.177
33477SOL    HW2 2439  -5.303  19.017 -18.754
33478SOL     OW 2440   1.259   7.333   7.942
33478SOL    HW1 2441   1.174   7.362  18.949
33478SOL    HW2 2442   1.274   7.249   7.898
33479SOL     OW 2443  10.695   7.985   0.731
33479SOL    HW1 2444  10.757  19.014   0.803
33479SOL    HW2 2445  10.652  19.108   0.749
33480SOL     OW 2446   1.381   6.254   8.891
33480SOL    HW1 2447   1.358   6.239   8.983
33480SOL    HW2 2448   1.367   6.348   8.878
33481SOL     OW 2449   3.426   8.677   9.924
33481SOL    HW1 2450  25.422   8.666   9.971
33481SOL    HW2 2451   3.410   8.750   9.865
33482SOL     OW 2452   2.741   5.587   7.358
33482SOL    HW1 2453  -8.247  -5.469  -3.760
33482SOL    HW2 2454  13.841  16.612 -14.648
33483SOL     OW 2455   5.638  10.593   5.936
33483SOL    HW1 2456   5.612  10.566   5.848
33483SOL    HW2 2457   5.605  10.682  -5.095
33484SOL     OW 2458   9.799   3.627   3.540
33484SOL    HW1 2459   9.868   3.608   3.477
33484SOL    HW2 2460   9.728  14.703  36.606
33485SOL     OW 2461   9.677  10.707   4.226
33485SOL    HW1 2462   9.655  10.707   4.319
33485SOL    HW2 2463   9.614  -0.393   4.186
33486SOL     OW 2464   5.942   4.802   3.790
33486SOL    HW1 2465  16.918   4.782   3.721
33486SOL    HW2 2466  17.056  -6.295   3.771
33487SOL     OW 2467   7.326   6.591   5.806
33487SOL    HW1 2468  29.327  28.671   5.861
33487SOL    HW2 2469  -3.745  50.773  -5.321
33488SOL     OW 2470   5.270   7.486   0.822
33488SOL    HW1 2471   5.314   7.451   0.899
33488SOL    HW2 2472 -16.759   7.453   0.748
33489SOL     OW 2473   4.421   1.070   8.859
33489SOL    HW1 2474   4.460   0.983   8.868
33489SOL    HW2 2475   4.485   1.130  19.937
33490SOL     OW 2476   0.364   2.541   7.303
33490SOL    HW1 2477   0.297   2.476  29.361
33490SOL    HW2 2478   0.382   2.528   7.396
33491SOL     OW 2479  -0.583   8.343   5.342
33491SOL    HW1 2480  10.366  19.362 -16.760
33491SOL    HW2 2481  -0.556   8.409   5.279
33492SOL     OW 2482   8.302   5.075   8.568
33492SOL    HW1 2483   8.387  -5.929   8.540
33492SOL    HW2 2484   8.247   5.080  19.529
33493SOL     OW 2485   5.937   0.733   7.083
33493SOL    HW1 2486   5.874  11.726   7.138
33493SOL    HW2 2487   6.001  11.809   7.145
33494SOL     OW 2488   1.346  10.337   7.285
33494SOL    HW1 2489   1.328  21.331   7.368
33494SOL    HW2 2490  -9.647 -11.662   7.311
33495SOL     OW 2491   5.135   0.187   2.018
33495SOL    HW1 2492   5.171  11.141   2.041
33495SOL    HW2 2493   5.205   0.231   1.970
33496SOL     OW 2494   2.792   2.709   4.308
33496SOL    HW1 2495  13.789   2.645   4.365
33496SOL    HW2 2496  13.786   2.701   4.224
33497SOL     OW 2497   3.357   6.452   6.720
33497SOL    HW1 2498 -18.698 -37.631   6.775
33497SOL    HW2 2499   3.414   6.382   6.750
33498SOL     OW 2500  10.809   0.983   6.315
33498SOL    HW1 2501  10.784   1.062   6.267
33498SOL    HW2 2502  -0.187   0.928   6.249
33499SOL     OW 2503   4.156   4.473   4.544
33499SOL    HW1 2504  15.128   4.528  26.663
33499SOL    HW2 2505  26.318   4.513   4.571
33500SOL     OW 2506   1.641   3.504   4.441
33500SOL    HW1 2507   1.733   3.492   4.419
33500SOL    HW2 2508  -9.410  14.497   4.524
33501SOL     OW 2509   5.282   7.734   7.104
33501SOL    HW1 2510  16.338   7.655   7.053
33501SOL    HW2 2511   5.187   7.746   7.099
33502SOL     OW 2512   3.315   1.726   4.563
33502SOL    HW1 2513   3.240   1.695   4.614
33502SOL    HW2 2514   3.290  -9.225  15.575
33503SOL     OW 2515   4.857   3.198   5.034
33503SOL    HW1 2516   4.911   3.259   5.085
33503SOL    HW2 2517   4.767 -18.855   5.053
33504SOL     OW 2518   0.249   8.348   0.684
33504SOL    HW1 2519   0.181   8.398   0.640
33504SOL    HW2 2520   0.270   8.399   0.762
33505SOL     OW 2521   8.614   1.111   7.148
33505SOL    HW1 2522  19.736  12.112   7.181
33505SOL    HW2 2523   8.630   1.127  40.174
33506SOL     OW 2524   2.943   2.562   6.777
33506SOL    HW1 2525   2.983  -8.565  17.818
33506SOL    HW2 2526   2.920   2.576   6.685
33507SOL     OW 2527   4.580   0.928  10.315
33507SOL    HW1 2528   4.675  22.996  -0.733
33507SOL    HW2 2529   4.550   0.847  21.395
33508SOL     OW 2530   6.825   2.426   6.192
33508SOL    HW1 2531   6.755  13.423   6.242
33508SOL    HW2 2532   6.785   2.504   6.154
33509SOL     OW 2533   4.285  11.263   0.150
33509SOL    HW1 2534   4.298  11.352   0.117
33509SOL    HW2 2535   4.256 -10.866   0.074
33510SOL     OW 2536   0.255   0.882  10.958
33510SOL    HW1 2537   0.340  11.921  10.914
33510SOL    HW2 2538   0.243   0.973  10.986
33511SOL     OW 2539   2.904   9.072   4.424
33511SOL    HW1 2540   2.852   9.111  15.534
33511SOL    HW2 2541   2.924   9.145  15.406
33512SOL     OW 2542   4.101  -1.576   0.888
33512SOL    HW1 2543   4.019   9.416   0.878
33512SOL    HW2 2544   4.098  20.570   0.819
33513SOL     OW 2545   7.413   0.140   1.759
33513SOL    HW1 2546   7.452   0.070   1.708
33513SOL    HW2 2547   7.487  11.219  -9.233
33514SOL     OW 2548   2.382   3.282   6.295
33514SOL    HW1 2549   2.402   3.369   6.330
33514SOL    HW2 2550   2.467 -29.876   6.277
33515SOL     OW 2551   4.542   0.325   5.307
33515SOL    HW1 2552  -6.499   0.401   5.365
33515SOL    HW2 2553   4.459   0.329   5.259
33516SOL     OW 2554   1.223   7.118   0.683
33516SOL    HW1 2555  12.177  18.163 -10.400
33516SOL    HW2 2556  12.303   7.040   0.647
33517SOL     OW 2557   6.204   1.403   3.051
33517SOL    HW1 2558   6.144   1.338   3.088
33517SOL    HW2 2559   6.263   1.426   3.124
33518SOL     OW 2560   4.950   1.740   8.877
33518SOL    HW1 2561   4.944   1.782   8.791
33518SOL    HW2 2562   4.863   1.703   8.892
33519SOL     OW 2563   7.160   3.686   2.291
33519SOL    HW1 2564   7.190 -18.437   2.370
33519SOL    HW2 2565   7.182   3.625   2.220
33520SOL     OW 2566   8.441   6.705   0.698
33520SOL    HW1 2567   8.468  -4.349   0.608
33520SOL    HW2 2568   8.365   6.648   0.710
33521SOL     OW 2569  10.559   1.646   8.379
33521SOL    HW1 2570  10.634  -9.364   8.429
33521SOL    HW2 2571  -0.547  -9.327   8.392
33522SOL     OW 2572   2.459   7.656   7.639
33522SOL    HW1 2573   2.508   7.719   7.587
33522SOL    HW2 2574   2.446   7.581   7.580
33523SOL     OW 2575   9.125   6.948   7.777
33523SOL    HW1 2576 -12.889   6.995   7.830
33523SOL    HW2 2577  20.157 -15.078  -3.342
33524SOL     OW 2578   7.716   3.365   6.261
33524SOL    HW1 2579  18.665   3.396   6.262
33524SOL    HW2 2580   7.751  -7.643  17.217
33525SOL     OW 2581   8.838   2.448   8.131
33525SOL    HW1 2582   8.929  13.502   8.104
33525SOL    HW2 2583   8.831  46.652   8.215
33526SOL     OW 2584   7.692   7.658   3.608
33526SOL    HW1 2585   7.670   7.663   3.515
33526SOL    HW2 2586   7.761  18.631  14.652
33527SOL     OW 2587   6.329   9.188  10.698
33527SOL    HW1 2588   6.289 -23.961  10.617
33527SOL    HW2 2589   6.343   9.282  10.684
33528SOL     OW 2590   4.015   7.344   6.871
33528SOL    HW1 2591   3.995   7.264  17.863
33528SOL    HW2 2592   4.099   7.374   6.835
33529SOL     OW 2593   4.700   0.169   9.069
33529SOL    HW1 2594   4.729   0.131   8.986
33529SOL    HW2 2595   4.698   0.264   9.053
33530SOL     OW 2596   6.335   7.778   8.645
33530SOL    HW1 2597  17.344   7.835   8.574
33530SOL    HW2 2598  28.344   7.781  -2.329
33531SOL     OW 2599   1.287   7.452   1.566
33531SOL    HW1 2600  23.287   7.462   1.513
33531SOL    HW2 2601  12.366   7.539   1.566
33532SOL     OW 2602   7.644   3.068  10.250
33532SOL    HW1 2603  18.619   3.100  10.313
33532SOL    HW2 2604   7.636  -7.914  10.175
33533SOL     OW 2605   3.575   1.289   9.913
33533SOL    HW1 2606   3.593   1.278  -1.220
33533SOL    HW2 2607  36.673   1.200  -1.096
33534SOL     OW 2608   4.535   8.658   2.483
33534SOL    HW1 2609   4.451   8.687   2.519
33534SOL    HW2 2610  15.551   8.595   2.415
33535SOL     OW 2611   2.201   9.168   5.091
33535SOL    HW1 2612   2.262   9.173   5.165
33535SOL    HW2 2613   2.115   9.183   5.131
33536SOL     OW 2614   7.969  10.215   1.752
33536SOL    HW1 2615   7.918  -0.745 -20.312
33536SOL    HW2 2616  18.979  10.183   1.667
33537SOL     OW 2617   0.970   6.567   5.384
33537SOL    HW1 2618  11.931 -15.463  27.440
33537SOL    HW2 2619   1.035 -15.487   5.317
33538SOL     OW 2620   2.305   9.530  10.048
33538SOL    HW1 2621   2.322   9.487   9.964
33538SOL    HW2 2622   2.222   9.492 -12.001
33539SOL     OW 2623   6.620   5.317   2.319
33539SOL    HW1 2624 -15.518  27.321   2.325
33539SOL    HW2 2625   6.630   5.347  13.448
33540SOL     OW 2626   1.187   8.981   3.819
33540SOL    HW1 2627   1.245   8.916  36.979
33540SOL    HW2 2628   1.206   9.063  25.944
33541SOL     OW 2629   7.786   7.157   7.692
33541SOL    HW1 2630   7.820   7.219   7.628
33541SOL    HW2 2631   7.786   7.073  18.685
33542SOL     OW 2632   0.984   2.705   6.093
33542SOL    HW1 2633   0.959   2.624   6.048
33542SOL    HW2 2634   1.063   2.682   6.141
33543SOL     OW 2635   6.939   1.504  10.052
33543SOL    HW1 2636   6.958  12.459  10.092
33543SOL    HW2 2637 -15.112  23.648  10.117
33544SOL     OW 2638   7.291   8.901  11.603
33544SOL    HW1 2639   7.369   8.876 -10.427
33544SOL    HW2 2640   7.286 -13.083  11.615
33545SOL     OW 2641   7.874   1.085   2.365
33545SOL    HW1 2642   7.924   1.011  24.479
33545SOL    HW2 2643  18.980  -9.890  -8.698
33546SOL     OW 2644   1.069   5.774   2.134
33546SOL    HW1 2645   1.138  16.845   2.075
33546SOL    HW2 2646  -9.945   5.805  -8.819
33547SOL     OW 2647   5.567   9.269   9.739
33547SOL    HW1 2648   5.569   9.203  -1.231
33547SOL    HW2 2649   5.501   9.237   9.677
33548SOL     OW 2650   9.758   5.765   6.521
33548SOL    HW1 2651   9.834   5.823   6.514
33548SOL    HW2 2652   9.782   5.702  28.668
33549SOL     OW 2653   4.511   8.870   4.966
33549SOL    HW1 2654  48.675   8.918   4.883
33549SOL    HW2 2655   4.602   8.855   4.991
33550SOL     OW 2656   4.449   9.526   5.041
33550SOL    HW1 2657   4.392   9.469   5.093
33550SOL    HW2 2658  15.436   9.603  16.062
33551SOL     OW 2659   9.355   8.291   4.732
33551SOL    HW1 2660   9.419   8.219   4.729
33551SOL    HW2 2661   9.395  19.400  -6.359
33552SOL     OW 2662   1.902   2.531   3.768
33552SOL    HW1 2663   1.911  13.516   3.690
33552SOL    HW2 2664  13.030   2.562   3.786
33553SOL     OW 2665  10.113  10.789   1.510
33553SOL    HW1 2666  10.046  10.858  12.558
33553SOL    HW2 2667  10.122  10.755  12.639
33554SOL     OW 2668   5.763   6.545   4.002
33554SOL    HW1 2669  -5.349  17.523   3.995
33554SOL    HW2 2670   5.835  17.543   3.954
33555SOL     OW 2671   0.583   5.683   2.038
33555SOL    HW1 2672   0.654  16.699   1.978
33555SOL    HW2 2673   0.521   5.611  -9.010
33556SOL     OW 2674   2.135   6.853   8.478
33556SOL    HW1 2675   2.159   6.761   8.482
33556SOL    HW2 2676 -30.942  28.972   8.554
33557SOL     OW 2677   6.538   2.661  -0.259
33557SOL    HW1 2678 -15.537   2.643  10.875
33557SOL    HW2 2679   6.624  13.677  -0.292
33558SOL     OW 2680   6.914   3.897   3.812
33558SOL    HW1 2681   6.981  -7.209 -18.282
33558SOL    HW2 2682 -15.170   3.945  25.808
33559SOL     OW 2683   2.935   5.045   2.613
33559SOL    HW1 2684   2.942  -5.960  13.741
33559SOL    HW2 2685   2.956 -17.127  35.740
33560SOL     OW 2686   8.750   5.389   5.878
33560SOL    HW1 2687  -2.318   5.389   5.786
33560SOL    HW2 2688  19.850   5.315   5.885
33561SOL     OW 2689   0.966   9.738  10.410
33561SOL    HW1 2690  12.067   9.811  -0.623
33561SOL    HW2 2691  11.930   9.775  10.364
33562SOL     OW 2692   1.758   5.543   3.650
33562SOL    HW1 2693   1.790   5.632   3.660
33562SOL    HW2 2694   1.716   5.523   3.734
33563SOL     OW 2695   4.617   7.094   3.546
33563SOL    HW1 2696   4.612  18.083  58.825
33563SOL    HW2 2697   4.535   7.144  14.584
33564SOL     OW 2698  10.550  11.519   6.042
33564SOL    HW1 2699  10.488   0.508   6.109
33564SOL    HW2 2700  10.591 -32.717   6.079
33565SOL     OW 2701   7.611  10.711   5.492
33565SOL    HW1 2702   7.559  10.641   5.532
33565SOL    HW2 2703 -14.528  10.755  27.511
33566SOL     OW 2704   1.916   2.162  10.222
33566SOL    HW1 2705   1.923   2.079  21.309
33566SOL    HW2 2706   1.908   2.228  10.291
33567SOL     OW 2707   6.940   7.208   8.784
33567SOL    HW1 2708   6.852   7.244  -2.242
33567SOL    HW2 2709  -4.090   7.202   8.689
33568SOL     OW 2710   4.470   5.717   5.840
33568SOL    HW1 2711   4.515  16.762  49.914
33568SOL    HW2 2712  -6.601   5.806  27.936
33569SOL     OW 2713   1.881  10.742   2.791
33569SOL    HW1 2714   1.863  10.697   2.874
33569SOL    HW2 2715   1.935  10.680   2.741
33570SOL     OW 2716   7.695   9.942   5.622
33570SOL    HW1 2717   7.624   9.909 -27.552
33570SOL    HW2 2718  40.892  -1.144  16.631
33571SOL     OW 2719   5.972   4.629   3.024
33571SOL    HW1 2720   5.900   4.638   3.087
33571SOL    HW2 2721   6.049  15.698  14.111
33572SOL     OW 2722   5.590   4.286   9.813
33572SOL    HW1 2723   5.668   4.258   9.862
33572SOL    HW2 2724  16.663   4.350 -12.329
33573SOL     OW 2725   3.496   5.063   6.095
33573SOL    HW1 2726  14.477  16.047   6.043
33573SOL    HW2 2727   3.438  16.142   6.161
33574SOL     OW 2728   2.129   1.503   8.955
33574SOL    HW1 2729  13.244   1.559   8.935
33574SOL    HW2 2730   2.104   1.528   9.044
33575SOL     OW 2731   6.509   3.031   1.959
33575SOL    HW1 2732  -4.520   2.972   1.884
33575SOL    HW2 2733   6.549   3.113  -9.109
33576SOL     OW 2734   0.306   6.055  -0.334
33576SOL    HW1 2735   0.257  17.160  -0.384
33576SOL    HW2 2736  11.434  17.097  10.668
33577SOL     OW 2737   0.879   1.945   7.832
33577SOL    HW1 2738  11.970   2.024  -3.195
33577SOL    HW2 2739   0.790  -9.063   7.815
33578SOL     OW 2740   6.439  10.627   0.774
33578SOL    HW1 2741   6.358  10.610   0.725
33578SOL    HW2 2742 -15.661  10.598 -10.176
33579SOL     OW 2743  12.680   3.117   3.200
33579SOL    HW1 2744  -9.376   3.025  -7.827
33579SOL    HW2 2745  -9.316   3.160  14.220
33580SOL     OW 2746  -1.468   9.822   5.458
33580SOL    HW1 2747   9.546  -1.147   5.398
33580SOL    HW2 2748  20.560   9.747  27.509
33581SOL     OW 2749   7.839   6.505   5.749
33581SOL    HW1 2750  -3.186  50.752  -5.323
33581SOL    HW2 2751   7.779   6.515   5.822
33582SOL     OW 2752   5.033   6.903   6.232
33582SOL    HW1 2753   5.046  18.034   6.206
33582SOL    HW2 2754  49.216   6.853   6.155
33583SOL     OW 2755  -0.071   3.427   1.739
33583SOL    HW1 2756  -0.029   3.443   1.655
33583SOL    HW2 2757  21.977  -7.527  12.808
33584SOL     OW 2758   9.490   5.476   8.688
33584SOL    HW1 2759  -1.525   5.494  19.637
33584SOL    HW2 2760   9.420   5.538   8.707
33585SOL     OW 2761  10.067   1.163   1.488
33585SOL    HW1 2762  10.018   1.084  12.550
33585SOL    HW2 2763  21.198   1.140  -9.537
33586SOL     OW 2764   5.378   6.643   5.524
33586SOL    HW1 2765   5.462   6.649   5.477
33586SOL    HW2 2766   5.334  -4.314   5.505
33587SOL     OW 2767   7.379   4.331   4.676
33587SOL    HW1 2768 -14.770  37.512  15.693
33587SOL    HW2 2769   7.438   4.334   4.601
33588SOL     OW 2770   6.940  12.566   8.382
33588SOL    HW1 2771  -4.161  -9.452   8.421
33588SOL    HW2 2772   6.987   1.488   8.456
33589SOL     OW 2773   0.685   5.658   7.421
33589SOL    HW1 2774  22.673   5.675   7.444
33589SOL    HW2 2775   0.727   5.632   7.503
33590SOL     OW 2776   9.467   8.708   7.853
33590SOL    HW1 2777   9.561   8.690  29.937
33590SOL    HW2 2778   9.434   8.688  18.981
33591SOL     OW 2779   5.672  -0.539   4.188
33591SOL    HW1 2780   5.704  -0.627  15.207
33591SOL    HW2 2781   5.602  10.487   4.251
33592SOL     OW 2782   3.193   7.041   7.338
33592SOL    HW1 2783  25.222   7.095  -3.763
33592SOL    HW2 2784   3.147  17.997   7.340
33593SOL     OW 2785   5.564   1.341   8.149
33593SOL    HW1 2786   5.629  12.326   8.192
33593SOL    HW2 2787  16.651   1.422   8.127
33594SOL     OW 2788  10.662   6.184   1.395
33594SOL    HW1 2789  -0.453  28.224   1.351
33594SOL    HW2 2790  -0.311  17.155   1.393
33595SOL     OW 2791   3.940   2.508   4.455
33595SOL    HW1 2792   3.895   2.561   4.521
33595SOL    HW2 2793   4.031   2.536   4.459
33596SOL     OW 2794   1.979   3.086   9.965
33596SOL    HW1 2795  13.030  36.231   9.874
33596SOL    HW2 2796   1.887  14.101   9.972
33597SOL     OW 2797  10.883   7.968   0.220
33597SOL    HW1 2798  10.820  19.073   0.251
33597SOL    HW2 2799  10.880   7.899   0.287
33598SOL     OW 2800   8.796   5.468   7.280
33598SOL    HW1 2801   8.803   5.538   7.345
33598SOL    HW2 2802   8.869   5.485   7.220
33599SOL     OW 2803   7.626   5.192   5.634
33599SOL    HW1 2804   7.537 -16.910   5.660
33599SOL    HW2 2805   7.618   5.221   5.543
33600SOL     OW 2806   5.017   1.696   8.358
33600SOL    HW1 2807  16.012   1.758  19.340
33600SOL    HW2 2808  16.011   1.703  -2.598
33601SOL     OW 2809   4.822   7.405   2.332
33601SOL    HW1 2810  -6.272   7.451  -8.644
33601SOL    HW2 2811  -6.214   7.314   2.364
33602SOL     OW 2812   5.295   5.397   4.836
33602SOL    HW1 2813  16.407  -5.659   4.896
33602SOL    HW2 2814   5.262   5.310   4.815
33603SOL     OW 2815  -0.769   2.803   2.070
33603SOL    HW1 2816  -0.816   2.767 -19.933
33603SOL    HW2 2817  43.465   2.848   2.108
33604SOL     OW 2818   4.676   7.818   2.765
33604SOL    HW1 2819   4.739  -3.222   2.838
33604SOL    HW2 2820   4.703   7.891   2.710
33605SOL     OW 2821   5.433   9.881   5.428
33605SOL    HW1 2822   5.510   9.854   5.478
33605SOL    HW2 2823   5.422   9.974   5.448
33606SOL     OW 2824   6.879   6.667   1.471
33606SOL    HW1 2825  -4.087   6.608  12.498
33606SOL    HW2 2826  17.863   6.654  23.473
33607SOL     OW 2827   4.262   8.829   5.050
33607SOL    HW1 2828   4.354   8.847   5.032
33607SOL    HW2 2829   4.214  30.957   4.983
33608SOL     OW 2830   7.141   9.287   0.588
33608SOL    HW1 2831   7.052   9.254   0.586
33608SOL    HW2 2832   7.169  -1.753   0.496
33609SOL     OW 2833   3.730   8.974   5.848
33609SOL    HW1 2834   3.762   9.023   5.923
33609SOL    HW2 2835   3.761  -2.016   5.772
33610SOL     OW 2836   1.904   9.449   6.273
33610SOL    HW1 2837   1.982   9.500  17.289
33610SOL    HW2 2838   1.856  31.585   6.333
33611SOL     OW 2839   6.824   0.862   9.021
33611SOL    HW1 2840   6.780   0.778   9.017
33611SOL    HW2 2841   6.917  22.919   9.024
33612SOL     OW 2842   1.941  10.526   8.764
33612SOL    HW1 2843   1.900  10.461   8.708
33612SOL    HW2 2844   2.022  10.550   8.719
33613SOL     OW 2845   4.951   0.531   0.939
33613SOL    HW1 2846   4.984   0.589   1.008
33613SOL    HW2 2847   4.950  22.665   0.860
33614SOL     OW 2848   6.855   6.830   5.855
33614SOL    HW1 2849   6.943   6.859   5.831
33614SOL    HW2 2850   6.814   6.807   5.771
33615SOL     OW 2851   4.138   4.304   0.580
33615SOL    HW1 2852   4.049   4.337   0.591
33615SOL    HW2 2853   4.187   4.342  22.732
33616SOL     OW 2854  10.294  10.729   4.001
33616SOL    HW1 2855  10.241  10.760 -29.192
33616SOL    HW2 2856  10.250 -11.429  15.070
33617SOL     OW 2857  10.001   2.899   4.546
33617SOL    HW1 2858  10.060   2.975 -17.538
33617SOL    HW2 2859  10.060 -30.295   4.557
33618SOL     OW 2860   7.462   8.021   3.330
33618SOL    HW1 2861   7.542   8.001   3.281
33618SOL    HW2 2862   7.487   8.092   3.389
33619SOL     OW 2863   2.622   9.204  10.767
33619SOL    HW1 2864   2.645   9.234  10.855
33619SOL    HW2 2865   2.705  20.211  10.731
33620SOL     OW 2866   7.242   0.251   8.163
33620SOL    HW1 2867   7.253   0.164  -2.915
33620SOL    HW2 2868   7.231   0.309   8.088
33621SOL     OW 2869  -1.651  -0.441   7.827
33621SOL    HW1 2870   9.440  -0.498   7.770
33621SOL    HW2 2871  20.410  10.676  29.852
33622SOL     OW 2872   3.456   8.450   8.816
33622SOL    HW1 2873  14.542   8.502  42.000
33622SOL    HW2 2874  14.553  41.493   8.800
33623SOL     OW 2875   2.206  10.479   4.132
33623SOL    HW1 2876   2.300  10.476   4.115
33623SOL    HW2 2877  13.206  10.454   4.049
33624SOL     OW 2878   9.085   1.126   3.382
33624SOL    HW1 2879  -1.959   1.109   3.288
33624SOL    HW2 2880   9.003   1.090   3.417
33625SOL     OW 2881   3.224   5.325   5.945
33625SOL    HW1 2882  -7.779   5.297   6.029
33625SOL    HW2 2883   3.141  16.407  17.007
33626SOL     OW 2884   2.684   3.928   9.302
33626SOL    HW1 2885   2.597   3.899   9.275
33626SOL    HW2 2886   2.673   4.020   9.325
33627SOL     OW 2887   8.837   5.937   4.623
33627SOL    HW1 2888 -13.228  17.070   4.606
33627SOL    HW2 2889   8.885  -5.147  15.593
33628SOL     OW 2890   5.157   0.309   6.580
33628SOL    HW1 2891   5.218  11.284   6.544
33628SOL    HW2 2892   5.118   0.266   6.656
33629SOL     OW 2893  12.024   8.967   9.608
33629SOL    HW1 2894   1.068  -2.028   9.620
33629SOL    HW2 2895   0.965   8.977   9.515
33630SOL     OW 2896   6.256  10.874  10.355
33630SOL    HW1 2897   6.347 -11.229  10.338
33630SOL    HW2 2898   6.263  10.950  21.453
33631SOL     OW 2899  10.134  10.640   7.827
33631SOL    HW1 2900  10.128 -11.513   7.766
33631SOL    HW2 2901  10.225  10.667   7.822
33632SOL     OW 2902   4.708   8.234   6.552
33632SOL    HW1 2903  15.689  19.335   6.596
33632SOL    HW2 2904   4.653  -2.850   6.488
33633SOL     OW 2905   5.748   3.832   2.565
33633SOL    HW1 2906   5.680   3.769  13.628
33633SOL    HW2 2907  16.870   3.787   2.581
33634SOL     OW 2908   1.300  10.737   3.024
33634SOL    HW1 2909  23.347  10.826   3.011
33634SOL    HW2 2910  12.343  10.727  -7.920
33635SOL     OW 2911   7.097   5.870   3.734
33635SOL    HW1 2912   7.006   5.840   3.737
33635SOL    HW2 2913   7.102   5.924  25.735
33636SOL     OW 2914   0.480   5.648   1.210
33636SOL    HW1 2915  22.522   5.584  23.228
33636SOL    HW2 2916   0.554  16.725   1.162
33637SOL     OW 2917   3.986   5.286   0.795
33637SOL    HW1 2918 -18.008   5.326   0.811
33637SOL    HW2 2919   4.006   5.201 -10.283
33638SOL     OW 2920   5.560  11.359  11.573
33638SOL    HW1 2921  -5.392   0.358   0.532
33638SOL    HW2 2922   5.557  11.303  11.496
33639SOL     OW 2923   8.535   6.289   3.776
33639SOL    HW1 2924 -13.629  17.340   3.731
33639SOL    HW2 2925   8.541   6.195  14.830
33640SOL     OW 2926  11.000   2.801   4.837
33640SOL    HW1 2927  11.030   2.756   4.759
33640SOL    HW2 2928  11.062   2.873   4.849
33641SOL     OW 2929   6.743  10.824   4.683
33641SOL    HW1 2930   6.729  10.914  26.733
33641SOL    HW2 2931   6.755  10.832   4.778
33642SOL     OW 2932   9.990   7.214  13.133
33642SOL    HW1 2933  10.032   7.245 -30.944
33642SOL    HW2 2934   9.977   7.120  13.147
33643SOL     OW 2935   2.822   4.907   9.479
33643SOL    HW1 2936   2.729  15.966   9.465
33643SOL    HW2 2937   2.866   4.992  31.547
33644SOL     OW 2938   3.930   6.479  -0.103
33644SOL    HW1 2939  26.061   6.476  -0.183
33644SOL    HW2 2940   3.970  50.573  10.995
33645SOL     OW 2941   6.567   0.383   5.539
33645SOL    HW1 2942  -4.516   0.468 -16.543
33645SOL    HW2 2943   6.527   0.333   5.468
33646SOL     OW 2944   7.836  -0.414   3.715
33646SOL    HW1 2945   7.829  21.752   3.754
33646SOL    HW2 2946   7.797  -0.473   3.780
33647SOL     OW 2947   2.158   5.294   4.203
33647SOL    HW1 2948   2.123   5.332  -6.756
33647SOL    HW2 2949   2.253   5.290   4.217
33648SOL     OW 2950   9.812   7.495   2.049
33648SOL    HW1 2951 -12.317  18.453   2.047
33648SOL    HW2 2952  42.997   7.484   1.981
33649SOL     OW 2953   6.019   0.940   3.933
33649SOL    HW1 2954  17.099 -10.111  25.927
33649SOL    HW2 2955   6.039   1.030   3.958
33650SOL     OW 2956  12.082   0.140   9.898
33650SOL    HW1 2957 -21.051  11.087   9.918
33650SOL    HW2 2958  12.067   0.147   9.804
33651SOL     OW 2959   2.792   2.268   8.897
33651SOL    HW1 2960   2.838  35.357  19.858
33651SOL    HW2 2961 -30.404  -8.827  19.942
33652SOL     OW 2962   0.089   7.519  10.109
33652SOL    HW1 2963   0.120  29.688  21.159
33652SOL    HW2 2964   0.018  18.564  10.045
33653SOL     OW 2965   5.086   1.102   5.774
33653SOL    HW1 2966  27.188  -9.902   5.861
33653SOL    HW2 2967   5.154   1.136   5.716
33654SOL     OW 2968   9.653  10.141   2.847
33654SOL    HW1 2969   9.619  10.123   2.935
33654SOL    HW2 2970 -12.333  10.160  -8.179
33655SOL     OW 2971   5.782   9.358   9.515
33655SOL    HW1 2972 -16.234   9.287   9.527
33655SOL    HW2 2973  -5.324  -1.698  -1.457
33656SOL     OW 2974   4.617   8.643   3.059
33656SOL    HW1 2975   4.626   8.699   2.982
33656SOL    HW2 2976  26.770   8.583   3.052
33657SOL     OW 2977   7.039   3.014   3.786
33657SOL    HW1 2978   7.126   3.043   3.756
33657SOL    HW2 2979  -4.057  14.065   3.709
33658SOL     OW 2980   8.064   0.739   5.817
33658SOL    HW1 2981   8.125 -10.370   5.791
33658SOL    HW2 2982   7.984   0.693   5.841
33659SOL     OW 2983  -1.399   5.407   0.606
33659SOL    HW1 2984   9.550   5.399   0.638
33659SOL    HW2 2985  20.670 -27.695   0.512
33660SOL     OW 2986   9.503   8.616   5.021
33660SOL    HW1 2987  20.517   8.525  16.055
33660SOL    HW2 2988   9.569   8.627   4.952
33661SOL     OW 2989   5.774   8.170   0.961
33661SOL    HW1 2990  -5.347  19.198   0.911
33661SOL    HW2 2991   5.803   8.081   0.980
33662SOL     OW 2992   9.116   5.593   5.747
33662SOL    HW1 2993   9.180  16.670   5.807
33662SOL    HW2 2994   9.151   5.507   5.724
33663SOL     OW 2995   5.876   7.524   7.003
33663SOL    HW1 2996  16.977 -14.482 -15.068
33663SOL    HW2 2997 -16.269   7.540  -3.969
33664SOL     OW 2998   5.628  10.793   3.448
33664SOL    HW1 2999   5.562  10.723  14.486
33664SOL    HW2 3000   5.685  10.774  14.414
33665SOL     OW 3001   2.744   6.620   5.804
33665SOL    HW1 3002   2.807   6.649   5.869
33665SOL    HW2 3003  13.816  17.695  16.761
33666SOL     OW 3004   3.093   6.093   1.345
33666SOL    HW1 3005   3.070  28.083   1.320
33666SOL    HW2 3006   3.188  17.130   1.357
33667SOL     OW 3007   4.764   1.173   5.358
33667SOL    HW1 3008   4.723   1.164   5.445
33667SOL    HW2 3009 -17.319  -9.954   5.321
33668SOL     OW 3010   7.626   9.225   9.105
33668SOL    HW1 3011  29.667   9.275  -2.006
33668SOL    HW2 3012  -3.485   9.169   9.136
33669SOL     OW 3013   3.900   1.870   1.785
33669SOL    HW1 3014   3.967  12.881   1.723
33669SOL    HW2 3015 -18.157  13.001  12.843
33670SOL     OW 3016   8.454   3.869   5.900
33670SOL    HW1 3017  19.520   3.858  16.848
33670SOL    HW2 3018  30.458   3.928  16.936
33671SOL     OW 3019   6.400  -0.439   5.887
33671SOL    HW1 3020   6.420  10.511   5.914
33671SOL    HW2 3021   6.308  -0.427   5.912
33672SOL     OW 3022   5.751   1.454   8.773
33672SOL    HW1 3023   5.743   1.382   8.835
33672SOL    HW2 3024   5.668   1.501   8.779
33673SOL     OW 3025   2.295   3.670   6.933
33673SOL    HW1 3026   2.312   3.749   6.983
33673SOL    HW2 3027   2.247   3.700   6.856
33674SOL     OW 3028   7.374   0.783   3.382
33674SOL    HW1 3029   7.314   0.763   3.454
33674SOL    HW2 3030  18.457   0.864   3.409
33675SOL     OW 3031   7.116   3.935   5.077
33675SOL    HW1 3032  -3.974   3.856   5.096
33675SOL    HW2 3033   7.185   3.906  -6.023
33676SOL     OW 3034   7.964   8.240   2.327
33676SOL    HW1 3035   7.985   8.147 -19.757
33676SOL    HW2 3036   7.871   8.246  13.343
33677SOL     OW 3037   2.977   1.020   2.577
33677SOL    HW1 3038   2.961  23.186  13.652
33677SOL    HW2 3039  -8.069  12.071 -19.597
33678SOL     OW 3040   5.274   8.259   8.798
33678SOL    HW1 3041   5.304   8.340   8.839
33678SOL    HW2 3042  16.280  19.246  -2.169
33679SOL     OW 3043   7.653   8.684   1.273
33679SOL    HW1 3044   7.743   8.697  12.342
33679SOL    HW2 3045  40.731  19.672  12.382
33680SOL     OW 3046   3.196   3.165   6.036
33680SOL    HW1 3047  25.249 -18.822  17.072
33680SOL    HW2 3048  14.218   3.139  28.205
33681SOL     OW 3049   8.297   4.429  10.384
33681SOL    HW1 3050  -2.803  15.479  10.310
33681SOL    HW2 3051   8.322   4.337  -0.658
33682SOL     OW 3052   0.213   0.464   5.021
33682SOL    HW1 3053   0.243   0.376   5.046
33682SOL    HW2 3054   0.248   0.477   4.933
33683SOL     OW 3055   8.349   7.165   3.596
33683SOL    HW1 3056  19.447  -3.901   3.667
33683SOL    HW2 3057 -13.806  -3.932  -7.434
33684SOL     OW 3058  10.147   4.846   1.815
33684SOL    HW1 3059  10.163   4.807  12.769
33684SOL    HW2 3060  -0.970   4.901   1.802
33685SOL     OW 3061   9.130   6.905   0.229
33685SOL    HW1 3062   9.128  28.892   0.203
33685SOL    HW2 3063   9.093   6.906   0.317
33686SOL     OW 3064   8.008   9.731   8.997
33686SOL    HW1 3065   8.071   9.803   8.989
33686SOL    HW2 3066   7.927   9.774   9.027
33687SOL     OW 3067   3.516   0.541  11.311
33687SOL    HW1 3068   3.479   0.563  11.226
33687SOL    HW2 3069  14.630   0.601 -10.757
33688SOL     OW 3070   3.331   4.728   8.464
33688SOL    HW1 3071   3.303   4.659  30.483
33688SOL    HW2 3072   3.257   4.789   8.467
33689SOL     OW 3073   0.365  11.438   2.708
33689SOL    HW1 3074   0.291  11.412   2.764
33689SOL    HW2 3075   0.333   0.475   2.662
33690SOL     OW 3076   5.200   6.939  10.795
33690SOL    HW1 3077   5.251   7.012  10.831
33690SOL    HW2 3078  27.338  17.903  10.801
33691SOL     OW 3079   9.844  10.551  10.058
33691SOL    HW1 3080   9.830  10.507   9.974
33691SOL    HW2 3081   9.851  -0.396  21.075
33692SOL     OW 3082   2.043   1.253   9.878
33692SOL    HW1 3083   2.052   1.284   9.969
33692SOL    HW2 3084  24.201   1.284   9.834
33693SOL     OW 3085   6.414  10.352   5.000
33693SOL    HW1 3086  28.552  10.420   4.965
33693SOL    HW2 3087   6.400  10.293  -6.113
33694SOL     OW 3088   4.076   3.249   2.330
33694SOL    HW1 3089   4.024  -7.811   2.253
33694SOL    HW2 3090   4.020  -7.732  13.421
33695SOL     OW 3091   5.835   1.389   7.073
33695SOL    HW1 3092   5.882   1.347 -14.934
33695SOL    HW2 3093  -5.161  -9.567   7.061
33696SOL     OW 3094   8.127   2.710   1.642
33696SOL    HW1 3095  30.283   2.728   1.587
33696SOL    HW2 3096   8.101   2.795  23.755
33697SOL     OW 3097   6.268   0.934   1.470
33697SOL    HW1 3098   6.193   0.894   1.515
33697SOL    HW2 3099  17.276   0.951  -9.658
33698SOL     OW 3100  10.518   1.945   0.724
33698SOL    HW1 3101  10.451  35.028   0.665
33698SOL    HW2 3102 -11.542  13.071   0.688
33699SOL     OW 3103   4.071   7.511   0.652
33699SOL    HW1 3104   4.052   7.563   0.574
33699SOL    HW2 3105  15.197  18.514   0.636
33700SOL     OW 3106   7.790   6.814   5.098
33700SOL    HW1 3107  -3.337  17.893   5.108
33700SOL    HW2 3108   7.783   6.729   5.141
33701SOL     OW 3109  10.798  11.512   9.414
33701SOL    HW1 3110  10.781  11.596 -12.706
33701SOL    HW2 3111  10.894   0.464  -1.629
33702SOL     OW 3112   3.395   4.073   9.926
33702SOL    HW1 3113   3.448  15.049   9.975
33702SOL    HW2 3114  -7.706   4.108   9.991
33703SOL     OW 3115  10.377   0.864   6.942
33703SOL    HW1 3116  21.470   0.785  -4.091
33703SOL    HW2 3117  10.343   0.863   6.852
33704SOL     OW 3118   4.256   5.457   8.991
33704SOL    HW1 3119   4.242   5.487  19.941
33704SOL    HW2 3120 -17.837   5.534  31.125
33705SOL     OW 3121   0.382   8.593  10.074
33705SOL    HW1 3122   0.331 -24.447  10.055
33705SOL    HW2 3123   0.434   8.616  -0.889
33706SOL     OW 3124   6.141  -0.195   8.519
33706SOL    HW1 3125   6.057  32.890   8.549
33706SOL    HW2 3126   6.175  21.935  -2.447
33707SOL     OW 3127   3.158   1.959   4.562
33707SOL    HW1 3128  -7.867   1.969   4.656
33707SOL    HW2 3129  -7.963   1.910   4.556
33708SOL     OW 3130   7.643   6.964  10.214
33708SOL    HW1 3131   7.638  62.143  -0.919
33708SOL    HW2 3132  -3.477   6.926  10.250
33709SOL     OW 3133   7.763   8.103   8.577
33709SOL    HW1 3134   7.744   8.060   8.661
33709SOL    HW2 3135  51.897   8.037   8.511
33710SOL     OW 3136   2.082  11.418   2.821
33710SOL    HW1 3137  -8.876  11.376   2.793
33710SOL    HW2 3138  -8.933   0.430   2.898
33711SOL     OW 3139   4.224   3.441   1.083
33711SOL    HW1 3140 -17.780   3.499  -9.942
33711SOL    HW2 3141   4.209   3.400   1.169
33712SOL     OW 3142  10.526   5.987   4.028
33712SOL    HW1 3143  10.529   5.997  -6.916
33712SOL    HW2 3144  10.477   6.063   3.998
33713SOL     OW 3145   5.548   1.660   9.657
33713SOL    HW1 3146   5.588  -9.398   9.572
33713SOL    HW2 3147   5.519   1.751  -1.390
33714SOL     OW 3148   1.148  10.575   5.551
33714SOL    HW1 3149   1.085  -0.532   5.525
33714SOL    HW2 3150   1.099 -11.445  16.648
33715SOL     OW 3151  -1.177   3.698   9.157
33715SOL    HW1 3152  -1.111   3.644   9.115
33715SOL    HW2 3153  20.820   3.674   9.114
33716SOL     OW 3154   8.889   9.663  10.417
33716SOL    HW1 3155  -2.089   9.591  10.407
33716SOL    HW2 3156   8.943   9.736  10.448
33717SOL     OW 3157   7.726   3.041   8.767
33717SOL    HW1 3158   7.815 -19.012   8.743
33717SOL    HW2 3159  -3.334  -8.071  19.747
33718SOL     OW 3160   6.877   5.428  10.033
33718SOL    HW1 3161   6.927   5.392   9.960
33718SOL    HW2 3162   6.816  -5.550   9.992
33719SOL     OW 3163   0.401  10.823   4.986
33719SOL    HW1 3164   0.490  10.848   4.963
33719SOL    HW2 3165  11.386 -22.223   4.954
33720SOL     OW 3166   7.479   2.928   0.641
33720SOL    HW1 3167 -25.723   2.973   0.652
33720SOL    HW2 3168   7.513   2.917   0.730
33721SOL     OW 3169   2.388   8.633   8.360
33721SOL    HW1 3170   2.366  -2.462   8.284
33721SOL    HW2 3171   2.306   8.676   8.383
33722SOL     OW 3172   8.909   2.765   4.792
33722SOL    HW1 3173   8.845  -8.204   4.787
33722SOL    HW2 3174  42.015   2.727   4.879
33723SOL     OW 3175   4.006   1.547   8.739
33723SOL    HW1 3176   4.025  23.549   8.791
33723SOL    HW2 3177   4.062   1.615  19.814
33724SOL     OW 3178   2.128   2.011   5.400
33724SOL    HW1 3179   2.189  -9.092   5.437
33724SOL    HW2 3180  -8.996  -9.074   5.399
33725SOL     OW 3181  10.291  10.664   9.054
33725SOL    HW1 3182  10.234  10.616   9.114
33725SOL    HW2 3183  21.292  10.752  -1.991
33726SOL     OW 3184  10.479   3.140   7.869
33726SOL    HW1 3185  10.557   3.099  18.871
33726SOL    HW2 3186 -11.622  -7.955  18.984
33727SOL     OW 3187   4.035   2.746   9.857
33727SOL    HW1 3188  -6.958  13.842  -1.244
33727SOL    HW2 3189  -6.980  35.776   9.832
33728SOL     OW 3190   8.054   2.229   8.235
33728SOL    HW1 3191  19.004  13.240  19.259
33728SOL    HW2 3192   8.103  -8.892   8.245
33729SOL     OW 3193  12.849   7.057   7.377
33729SOL    HW1 3194  -9.301  -4.036   7.411
33729SOL    HW2 3195  -9.198   7.009  -3.739
33730SOL     OW 3196   4.147  10.701   1.947
33730SOL    HW1 3197   4.219  10.651   1.985
33730SOL    HW2 3198   4.076  10.692  13.051
33731SOL     OW 3199   5.156   4.405   6.378
33731SOL    HW1 3200   5.229   4.467   6.375
33731SOL    HW2 3201   5.177   4.340  28.391
33732SOL     OW 3202   4.570   4.288   3.971
33732SOL    HW1 3203  -6.422   4.255   3.895
33732SOL    HW2 3204   4.579  -6.820   4.037
33733SOL     OW 3205   7.680   3.736   8.547
33733SOL    HW1 3206   7.594   3.778   8.557
33733SOL    HW2 3207   7.663   3.643   8.557
33734SOL     OW 3208   8.377   5.421   9.571
33734SOL    HW1 3209   8.365  -5.691  -1.406
33734SOL    HW2 3210   8.415   5.491   9.623
33735SOL     OW 3211   0.521   6.531   4.336
33735SOL    HW1 3212  11.607   6.604   4.375
33735SOL    HW2 3213   0.556   6.525  15.287
33736SOL     OW 3214   5.527   4.462   8.364
33736SOL    HW1 3215   5.492   4.544   8.328
33736SOL    HW2 3216   5.603   4.490  41.535
33737SOL     OW 3217   2.971   4.838   2.387
33737SOL    HW1 3218   2.900   4.903 -30.735
33737SOL    HW2 3219   3.041 -28.242   2.335
33738SOL     OW 3220   1.184  10.835   5.099
33738SOL    HW1 3221   1.130  10.901  -5.985
33738SOL    HW2 3222   1.235  10.886 -16.917
33739SOL     OW 3223   7.112   4.057   5.327
33739SOL    HW1 3224  18.194   4.140  27.386
33739SOL    HW2 3225   7.114   4.008   5.245
33740SOL     OW 3226   1.601   4.362   8.673
33740SOL    HW1 3227  -9.482   4.315  30.824
33740SOL    HW2 3228  -9.450   4.305   8.597
33741SOL     OW 3229   5.874   2.849   2.668
33741SOL    HW1 3230   5.868  -8.138   2.748
33741SOL    HW2 3231  -5.155   2.759   2.700
33742SOL     OW 3232   7.880   5.877   1.198
33742SOL    HW1 3233   7.865  16.911   1.292
33742SOL    HW2 3234   7.918   5.792   1.175
33743SOL     OW 3235   1.940   3.427   0.119
33743SOL    HW1 3236  -9.137   3.495   0.064
33743SOL    HW2 3237   2.025  -7.578   0.146
33744SOL     OW 3238   4.293   1.008  10.336
33744SOL    HW1 3239   4.269   0.945  10.404
33744SOL    HW2 3240  -6.652   1.000  10.328
33745SOL     OW 3241   1.342  11.413   8.050
33745SOL    HW1 3242   1.372  11.325 -47.127
33745SOL    HW2 3243   1.256 -10.660   8.091
33746SOL     OW 3244   6.867  11.237   7.622
33746SOL    HW1 3245  17.841   0.267   7.619
33746SOL    HW2 3246   6.824  11.166   7.670
33747SOL     OW 3247   6.340   3.314   7.468
33747SOL    HW1 3248  -4.740   3.303   7.554
33747SOL    HW2 3249   6.269   3.350   7.414
33748SOL     OW 3250  -0.820   9.867   0.966
33748SOL    HW1 3251  -0.903   9.884   1.009
33748SOL    HW2 3252  21.279   9.948   0.918
33749SOL     OW 3253   5.067   4.035  10.054
33749SOL    HW1 3254  16.157   3.963  10.017
33749SOL    HW2 3255   4.976   4.003  10.053
33750SOL     OW 3256   7.320  11.201   9.522
33750SOL    HW1 3257  -3.758  11.288  20.553
33750SOL    HW2 3258   7.359   0.161   9.609
33751SOL     OW 3259   3.191  10.911   9.614
33751SOL    HW1 3260  25.191  -0.102   9.661
33751SOL    HW2 3261  14.209  -0.119   9.522
33752SOL     OW 3262   9.757  13.360   9.040
33752SOL    HW1 3263   9.715  -8.672 -35.191
33752SOL    HW2 3264   9.721  -8.679 -12.960
33753SOL     OW 3265   9.983   7.394  10.705
33753SOL    HW1 3266  20.931   7.367  10.714
33753SOL    HW2 3267  10.006 -14.646  10.789
33754SOL     OW 3268   3.198  10.441   7.073
33754SOL    HW1 3269   3.205  -0.622   6.981
33754SOL    HW2 3270  14.280  10.527   7.080
33755SOL     OW 3271   8.360   8.043   1.029
33755SOL    HW1 3272   8.447 -25.059   0.992
33755SOL    HW2 3273  19.397   8.097   1.108
33756SOL     OW 3274   3.255   3.114   9.481
33756SOL    HW1 3275   3.233   3.029   9.518
33756SOL    HW2 3276  36.458  -7.902   9.520
33757SOL     OW 3277   5.363   4.232   0.484
33757SOL    HW1 3278   5.419  -6.792   0.408
33757SOL    HW2 3279   5.278   4.207   0.447
33758SOL     OW 3280   3.728   0.858   9.179
33758SOL    HW1 3281   3.805  22.917  31.311
33758SOL    HW2 3282   3.659   0.875   9.242
33759SOL     OW 3283   2.282   7.362   6.642
33759SOL    HW1 3284  -8.783   7.283  17.729
33759SOL    HW2 3285   2.335   7.411   6.704
33760SOL     OW 3286   3.794   5.880   4.803
33760SOL    HW1 3287   3.805   5.826  15.764
33760SOL    HW2 3288   3.884   5.895  15.873
33761SOL     OW 3289   8.816   2.053   1.318
33761SOL    HW1 3290   8.908   2.075  -9.740
33761SOL    HW2 3291   8.768   2.086   1.243
33762SOL     OW 3292   8.195   8.571   0.455
33762SOL    HW1 3293   8.140   8.608  11.425
33762SOL    HW2 3294   8.179   8.477   0.451
33763SOL     OW 3295   3.569   5.392   7.057
33763SOL    HW1 3296  14.666   5.348   7.120
33763SOL    HW2 3297   3.543   5.473 -14.978
33764SOL     OW 3298   0.912   9.944   3.018
33764SOL    HW1 3299   0.912   9.951  -8.117
33764SOL    HW2 3300   0.999   9.973   3.045
33765SOL     OW 3301   5.894   2.948   5.127
33765SOL    HW1 3302   5.942  13.960   5.205
33765SOL    HW2 3303   5.833  -8.164   5.109
33766SOL     OW 3304   4.894   8.432   4.034
33766SOL    HW1 3305   4.873   8.340   4.054
33766SOL    HW2 3306   4.809   8.477  -7.002
33767SOL     OW 3307   7.224   5.911   4.022
33767SOL    HW1 3308   7.227  -5.217  15.097
33767SOL    HW2 3309  29.250   5.903   3.942
33768SOL     OW 3310   2.552   0.480   9.986
33768SOL    HW1 3311   2.530   0.388   9.973
33768SOL    HW2 3312   2.544   0.493  10.080
33769SOL     OW 3313   2.607   5.218   2.973
33769SOL    HW1 3314  24.736  -5.896   3.006
33769SOL    HW2 3315  13.669 -16.789   3.032
33770SOL     OW 3316   2.823   3.471   2.348
33770SOL    HW1 3317  13.871   3.447   2.255
33770SOL    HW2 3318   2.744   3.524   2.352
33771SOL     OW 3319   9.288   9.678   5.704
33771SOL    HW1 3320   9.363   9.652   5.757
33771SOL    HW2 3321   9.271   9.603   5.647
33772SOL     OW 3322   1.501   7.213   2.234
33772SOL    HW1 3323   1.479   7.120  13.268
33772SOL    HW2 3324   1.440   7.248   2.299
33773SOL     OW 3325   5.038   7.391   7.752
33773SOL    HW1 3326   5.077   7.306   7.733
33773SOL    HW2 3327   5.028   7.393   7.847
33774SOL     OW 3328   3.459   9.000   9.491
33774SOL    HW1 3329   3.464  19.973   9.422
33774SOL    HW2 3330   3.548  20.073   9.499
33775SOL     OW 3331  10.617   2.466   8.675
33775SOL    HW1 3332  10.621   2.536  30.819
33775SOL    HW2 3333  10.647 -30.731   8.722
33776SOL     OW 3334   9.168   9.213   4.047
33776SOL    HW1 3335 -12.850   9.236   3.978
33776SOL    HW2 3336   9.222   9.176   4.117
33777SOL     OW 3337   5.652   7.421   9.843
33777SOL    HW1 3338   5.650  40.635   9.857
33777SOL    HW2 3339  -5.332   7.388   9.913
33778SOL     OW 3340   0.682   4.453   0.517
33778SOL    HW1 3341   0.681   4.458   0.421
33778SOL    HW2 3342   0.771   4.427   0.539
33779SOL     OW 3343  10.321   5.091   9.608
33779SOL    HW1 3344  -0.721   5.000   9.576
33779SOL    HW2 3345  10.237   5.103  20.691
33780SOL     OW 3346   2.430   8.701   6.963
33780SOL    HW1 3347   2.428  19.669  18.066
33780SOL    HW2 3348   2.428 -24.338   7.016
33781SOL     OW 3349   5.977   6.715   2.440
33781SOL    HW1 3350   5.960   6.621  24.525
33781SOL    HW2 3351   5.969   6.735  13.386
33782SOL     OW 3352   5.137  -0.133   3.022
33782SOL    HW1 3353   5.107  21.955  13.971
33782SOL    HW2 3354   5.083  22.007   3.071
33783SOL     OW 3355   5.447   7.863   9.717
33783SOL    HW1 3356  16.408 -25.229   9.671
33783SOL    HW2 3357   5.511   7.931  20.737
33784SOL     OW 3358   2.867   8.078   3.557
33784SOL    HW1 3359   2.785  -2.975  -7.530
33784SOL    HW2 3360  13.879  -2.950   3.648
33785SOL     OW 3361   2.930   7.776   6.123
33785SOL    HW1 3362 -19.226  -3.221   6.160
33785SOL    HW2 3363  -8.145  -3.338   6.073
33786SOL     OW 3364   1.745   7.165   2.729
33786SOL    HW1 3365   1.709   7.229 -19.412
33786SOL    HW2 3366   1.815   7.212   2.774
33787SOL     OW 3367   9.047  10.584   6.223
33787SOL    HW1 3368   9.063  10.500   6.265
33787SOL    HW2 3369   8.955 -11.497   6.198
33788SOL     OW 3370   5.435   6.336   7.031
33788SOL    HW1 3371   5.355   6.389   7.030
33788SOL    HW2 3372   5.505 -15.682  -3.986
33789SOL     OW 3373   8.776   4.637   2.077
33789SOL    HW1 3374   8.870   4.649   2.088
33789SOL    HW2 3375   8.767  15.646   1.986
33790SOL     OW 3376   1.593   7.213   6.624
33790SOL    HW1 3377   1.555  -3.858   6.542
33790SOL    HW2 3378  -9.408   7.298   6.601
33791SOL     OW 3379   8.520   8.963   7.944
33791SOL    HW1 3380   8.594 -13.071 -14.096
33791SOL    HW2 3381  19.536   8.894  -3.032
33792SOL     OW 3382   4.023   0.855   2.354
33792SOL    HW1 3383   4.024   0.797  13.318
33792SOL    HW2 3384  26.166   0.923  24.412
33793SOL     OW 3385   7.271   7.968   4.567
33793SOL    HW1 3386   7.228  41.173  15.603
33793SOL    HW2 3387   7.342  19.015  -6.537
33794SOL     OW 3388   5.251   2.041   5.828
33794SOL    HW1 3389  -5.870   2.004  27.874
33794SOL    HW2 3390   5.298   1.967 -16.212
33795SOL     OW 3391   5.779   9.876   4.179
33795SOL    HW1 3392   5.708   9.926  15.178
33795SOL    HW2 3393   5.821 -23.287   4.106
33796SOL     OW 3394   1.200   8.677   3.161
33796SOL    HW1 3395   1.154   8.657  -7.797
33796SOL    HW2 3396   1.282 -13.361   3.189
33797SOL     OW 3397   8.870   3.725   2.139
33797SOL    HW1 3398 -13.281   3.678  13.136
33797SOL    HW2 3399   8.863   3.814  35.223
33798SOL     OW 3400   4.794   3.016  10.286
33798SOL    HW1 3401   4.885   2.985  10.286
33798SOL    HW2 3402   4.789   3.075  10.361
33799SOL     OW 3403   8.805   2.743   3.394
33799SOL    HW1 3404   8.725  13.830  -7.667
33799SOL    HW2 3405 -13.207   2.812   3.401
33800SOL     OW 3406   8.263   2.887   6.443
33800SOL    HW1 3407   8.240   2.980  28.522
33800SOL    HW2 3408   8.180   2.842   6.433
33801SOL     OW 3409   2.085   3.233   0.536
33801SOL    HW1 3410   2.160   3.272   0.492
33801SOL    HW2 3411  13.066  25.285   0.465
33802SOL     OW 3412   2.324   2.274   0.438
33802SOL    HW1 3413   2.370   2.338   0.492
33802SOL    HW2 3414 -19.696  -8.782   0.365
33803SOL     OW 3415   6.921   1.087   0.059
33803SOL    HW1 3416  17.914   1.147   0.002
33803SOL    HW2 3417  28.991   1.124  44.305
33804SOL     OW 3418   6.338  11.270  10.072
33804SOL    HW1 3419   6.329 -32.866   9.979
33804SOL    HW2 3420   6.250 -21.839  10.107
33805SOL     OW 3421   4.270  -1.076   7.099
33805SOL    HW1 3422   4.274  21.052   7.018
33805SOL    HW2 3423   4.328  -1.151  18.125
33806SOL     OW 3424   5.960   8.081   0.664
33806SOL    HW1 3425   5.915   7.996   0.662
33806SOL    HW2 3426  16.929 -24.973   0.667
33807SOL     OW 3427   6.649   9.981  10.678
33807SOL    HW1 3428  17.728  -1.019  10.756
33807SOL    HW2 3429   6.721   9.969  10.618
33808SOL     OW 3430   0.307   3.158   5.798
33808SOL    HW1 3431   0.288   3.246   5.764
33808SOL    HW2 3432   0.398   3.162   5.824
33809SOL     OW 3433   8.007  -1.221   6.486
33809SOL    HW1 3434   7.994  20.768   6.460
33809SOL    HW2 3435   8.005   9.868  17.444
33810SOL     OW 3436   9.770   9.213  10.834
33810SOL    HW1 3437  20.820   9.286  10.772
33810SOL    HW2 3438  -1.227   9.139  10.791
33811SOL     OW 3439   8.985   3.464  12.446
33811SOL    HW1 3440   9.015   3.386   1.453
33811SOL    HW2 3441   9.062   3.521  -9.637
33812SOL     OW 3442   8.233   5.344  10.959
33812SOL    HW1 3443  19.261 -27.836  10.887
33812SOL    HW2 3444   8.265   5.424  10.919
33813SOL     OW 3445   4.955   8.019   0.267
33813SOL    HW1 3446  15.902   8.002   0.250
33813SOL    HW2 3447   4.991   8.046   0.183
33814SOL     OW 3448   5.978   9.450   1.800
33814SOL    HW1 3449   6.061   9.480   1.836
33814SOL    HW2 3450  16.961   9.436   1.876
33815SOL     OW 3451  10.760   6.459   6.230
33815SOL    HW1 3452 -11.367   6.427  -4.886
33815SOL    HW2 3453 -11.273   6.383 -26.856
33816SOL     OW 3454   9.561   5.836   7.620
33816SOL    HW1 3455   9.637  16.818   7.625
33816SOL    HW2 3456  20.526   5.777   7.620
33817SOL     OW 3457   2.226   8.080   8.496
33817SOL    HW1 3458   2.189   8.031  19.462
33817SOL    HW2 3459   2.240   8.014  30.643
33818SOL     OW 3460   0.654   1.728   3.594
33818SOL    HW1 3461   0.730  -9.329   3.649
33818SOL    HW2 3462   0.678   1.806   3.544
33819SOL     OW 3463   8.054   9.873   2.425
33819SOL    HW1 3464   8.117   9.933   2.464
33819SOL    HW2 3465  19.073 -12.168   2.339
33820SOL     OW 3466   9.410   3.246   6.348
33820SOL    HW1 3467   9.477   3.179   6.338
33820SOL    HW2 3468   9.389   3.245   6.442
33821SOL     OW 3469   9.844  10.606   8.262
33821SOL    HW1 3470  20.909 -11.384 -24.831
33821SOL    HW2 3471   9.916  21.615 -13.872
33822SOL     OW 3472   9.904   6.694   1.979
33822SOL    HW1 3473   9.854  28.745   1.903
33822SOL    HW2 3474  21.034  17.735   1.949
33823SOL     OW 3475   8.183   3.961   2.783
33823SOL    HW1 3476 -13.956   3.908   2.731
33823SOL    HW2 3477   8.197   3.910   2.863
33824SOL     OW 3478   3.253   7.793   6.373
33824SOL    HW1 3479   3.270  -3.323   6.428
33824SOL    HW2 3480   3.212   7.856   6.432
33825SOL     OW 3481   5.736   4.369   3.634
33825SOL    HW1 3482   5.718  -6.760  25.684
33825SOL    HW2 3483  27.847   4.414   3.555
33826SOL     OW 3484   8.178   2.594   6.012
33826SOL    HW1 3485   8.174   2.501   5.991
33826SOL    HW2 3486  30.166   2.620   6.025
33827SOL     OW 3487   8.029   9.621   4.673
33827SOL    HW1 3488   8.043   9.633   4.767
33827SOL    HW2 3489   7.935   9.634   4.661
33828SOL     OW 3490   8.831   3.973   8.700
33828SOL    HW1 3491   8.921  -7.086 -13.404
33828SOL    HW2 3492  19.828   3.888   8.706
33829SOL     OW 3493   2.476   5.646   7.696
33829SOL    HW1 3494  -8.590   5.556   7.717
33829SOL    HW2 3495  13.505   5.652   7.601
33830SOL     OW 3496  10.243   7.037   1.985
33830SOL    HW1 3497  10.154   7.071   1.973
33830SOL    HW2 3498  10.280  -4.006   1.897
33831SOL     OW 3499   4.140   9.220   2.542
33831SOL    HW1 3500  26.219  20.351   2.516
33831SOL    HW2 3501  26.311   9.192   2.534
33832SOL     OW 3502   7.398  10.075   8.637
33832SOL    HW1 3503   7.310  10.070  -2.439
33832SOL    HW2 3504  40.518  10.156   8.687
33833SOL     OW 3505   0.988   9.667   0.028
33833SOL    HW1 3506 -10.040   9.692  11.160
33833SOL    HW2 3507   0.896   9.638   0.023
33834SOL     OW 3508   8.991   9.921   6.296
33834SOL    HW1 3509   8.945   9.948  17.415
33834SOL    HW2 3510  20.123   9.937   6.315
33835SOL     OW 3511   7.163   9.158   8.138
33835SOL    HW1 3512   7.187   9.152   8.231
33835SOL    HW2 3513   7.212   9.086   8.097
33836SOL     OW 3514  10.333   8.971   0.934
33836SOL    HW1 3515  10.425   8.950   0.916
33836SOL    HW2 3516  10.335   9.062   0.964
33837SOL     OW 3517   6.889   3.626   4.028
33837SOL    HW1 3518  -4.061  -7.434  -7.038
33837SOL    HW2 3519  39.953 -29.544   3.969
33838SOL     OW 3520   7.670   1.489   2.767
33838SOL    HW1 3521   7.616  12.458  -8.235
33838SOL    HW2 3522   7.642   1.568  24.893
33839SOL     OW 3523   0.487   8.753  10.894
33839SOL    HW1 3524   0.519  30.873  10.974
33839SOL    HW2 3525   0.399   8.722  10.915
33840SOL     OW 3526   7.034  11.379   8.659
33840SOL    HW1 3527   7.020   0.305   8.747
33840SOL    HW2 3528 -15.065 -10.607   8.666
33841SOL     OW 3529   9.737   8.685   3.173
33841SOL    HW1 3530  -1.314  19.784   3.246
33841SOL    HW2 3531  20.744   8.601   3.204
33842SOL     OW 3532   3.077  10.568   2.728
33842SOL    HW1 3533   3.039  10.619   2.800
33842SOL    HW2 3534   3.005  10.511   2.699
33843SOL     OW 3535   4.552  11.160   1.245
33843SOL    HW1 3536  -6.538   0.064   1.303
33843SOL    HW2 3537  37.753  11.175   1.292
33844SOL     OW 3538   5.017   2.842   7.773
33844SOL    HW1 3539   5.056   2.820   7.689
33844SOL    HW2 3540   4.989   2.934   7.764
33845SOL     OW 3541  10.276   4.025   8.478
33845SOL    HW1 3542  10.337  -6.972   8.417
33845SOL    HW2 3543  21.249  -7.054   8.422
33846SOL     OW 3544  10.509   9.082   6.871
33846SOL    HW1 3545  10.557   9.076   6.788
33846SOL    HW2 3546  10.576  -1.937   6.936
33847SOL     OW 3547   3.700   9.272   3.342
33847SOL    HW1 3548  14.761   9.364   3.325
33847SOL    HW2 3549   3.687  31.313   3.256
33848SOL     OW 3550   2.408   3.418   1.489
33848SOL    HW1 3551   2.487   3.400   1.439
33848SOL    HW2 3552   2.353   3.469  56.627
33849SOL     OW 3553   9.992   1.665  10.497
33849SOL    HW1 3554  10.002  23.814  10.562
33849SOL    HW2 3555   9.910   1.621  10.523
33850SOL     OW 3556   1.423   1.660   3.104
33850SOL    HW1 3557   1.492   1.662  14.210
33850SOL    HW2 3558  12.508   1.675  14.060
33851SOL     OW 3559   1.315   8.777   7.717
33851SOL    HW1 3560  12.409   8.715   7.764
33851SOL    HW2 3561  -9.806   8.782   7.768
33852SOL     OW 3562   2.735   8.397   5.741
33852SOL    HW1 3563  13.779 -13.685   5.837
33852SOL    HW2 3564   2.827  -2.645   5.713
33853SOL     OW 3565   4.192   2.912   5.255
33853SOL    HW1 3566   4.128   2.854  16.334
33853SOL    HW2 3567   4.230   2.860   5.184
33854SOL     OW 3568   9.559   3.140   4.750
33854SOL    HW1 3569   9.589  14.207   4.837
33854SOL    HW2 3570  -1.415  14.116   4.721
33855SOL     OW 3571   8.229   9.206   3.348
33855SOL    HW1 3572  -2.894   9.170   3.318
33855SOL    HW2 3573   8.296   9.156   3.301
33856SOL     OW 3574   3.473   8.180   9.518
33856SOL    HW1 3575   3.479 -13.853  -1.438
33856SOL    HW2 3576  25.574   8.089   9.538
33857SOL     OW 3577   3.597   5.408   4.140
33857SOL    HW1 3578   3.636   5.376   4.059
33857SOL    HW2 3579   3.641  16.398  -6.830
33858SOL     OW 3580  10.202   0.100   5.283
33858SOL    HW1 3581  10.178   0.189   5.311
33858SOL    HW2 3582  10.240   0.113   5.196
33859SOL     OW 3583  10.169   4.154   2.812
33859SOL    HW1 3584  -0.955  15.177   2.855
33859SOL    HW2 3585  -0.833   4.066  13.839
33860SOL     OW 3586   0.916   6.008   9.378
33860SOL    HW1 3587   0.982  17.036   9.310
33860SOL    HW2 3588   0.918 -15.978   9.398
33861SOL     OW 3589   4.570   7.332   9.349
33861SOL    HW1 3590   4.513   7.345   9.425
33861SOL    HW2 3591   4.575  18.276   9.339
33862SOL     OW 3592  10.451   2.848   3.437
33862SOL    HW1 3593  10.455   2.850   3.341
33862SOL    HW2 3594  10.542   2.854  -7.575
33863SOL     OW 3595   0.016   0.230   3.191
33863SOL    HW1 3596  -0.062  11.292   3.141
33863SOL    HW2 3597  -0.016   0.210   3.279
33864SOL     OW 3598   1.119   2.552  -0.265
33864SOL    HW1 3599  23.179  -8.413  21.871
33864SOL    HW2 3600   1.189   2.584  10.716
33865SOL     OW 3601   7.734   8.902  10.131
33865SOL    HW1 3602   7.769   8.817  10.104
33865SOL    HW2 3603   7.717   8.948  10.050
33866SOL     OW 3604   9.181   4.673   0.951
33866SOL    HW1 3605   9.101   4.708  23.069
33866SOL    HW2 3606   9.236   4.650  12.065
33867SOL     OW 3607   2.866   7.419   9.744
33867SOL    HW1 3608   2.874   7.416   9.839
33867SOL    HW2 3609  35.891   7.408  20.767
33868SOL     OW 3610   9.844   9.390  10.352
33868SOL    HW1 3611  20.843 -12.699  10.438
33868SOL    HW2 3612   9.915 -23.793  10.353
33869SOL     OW 3613   3.463   2.119   7.159
33869SOL    HW1 3614   3.443   2.138   7.251
33869SOL    HW2 3615   3.379   2.123   7.115
33870SOL     OW 3616   1.047   8.650   5.655
33870SOL    HW1 3617   1.027  -2.346   5.738
33870SOL    HW2 3618  12.074   8.557   5.673
33871SOL     OW 3619   9.470   6.516   5.889
33871SOL    HW1 3620   9.519 -15.642   5.911
33871SOL    HW2 3621   9.535  17.615   5.851
33872SOL     OW 3622  10.007   7.870   5.184
33872SOL    HW1 3623  10.091   7.908   5.210
33872SOL    HW2 3624  10.028   7.810   5.113
33873SOL     OW 3625   4.695   7.157  -1.406
33873SOL    HW1 3626   4.671   7.066  -1.391
33873SOL    HW2 3627   4.656   7.179  53.708
33874SOL     OW 3628   3.202   4.985   6.282
33874SOL    HW1 3629  -7.928   5.016 -15.801
33874SOL    HW2 3630   3.255   5.064  -4.766
33875SOL     OW 3631  11.442   5.843   0.973
33875SOL    HW1 3632   0.328   5.823   1.029
33875SOL    HW2 3633  11.444  16.811   0.909
33876SOL     OW 3634   9.456   8.733   6.119
33876SOL    HW1 3635   9.469   8.781   6.201
33876SOL    HW2 3636   9.544   8.725   6.082
33877SOL     OW 3637   4.052   0.566   6.658
33877SOL    HW1 3638   3.987  11.668  17.730
33877SOL    HW2 3639  -6.929 -10.421  17.643
33878SOL     OW 3640   7.290   8.538   5.529
33878SOL    HW1 3641   7.252   8.451   5.521
33878SOL    HW2 3642   7.329  19.594   5.443
33879SOL     OW 3643   7.065   8.310   8.729
33879SOL    HW1 3644   7.086 -13.687   8.685
33879SOL    HW2 3645   6.970   8.300  19.756
33880SOL     OW 3646   3.760  -0.122   4.200
33880SOL    HW1 3647  14.712  10.884   4.217
33880SOL    HW2 3648  -7.231  10.899   4.281
33881SOL     OW 3649   1.440   3.917  12.498
33881SOL    HW1 3650   1.404   3.939 -20.534
33881SOL    HW2 3651   1.364  -7.153   1.408
33882SOL     OW 3652   9.481   6.676   5.534
33882SOL    HW1 3653  -1.592   6.587 -16.554
33882SOL    HW2 3654   9.429   6.715   5.604
33883SOL     OW 3655   6.596   5.832   0.386
33883SOL    HW1 3656   6.686  -5.176  22.464
33883SOL    HW2 3657   6.603 -16.341  11.406
33884SOL     OW 3658   8.518   7.897   4.964
33884SOL    HW1 3659  19.548   7.927   4.874
33884SOL    HW2 3660   8.606   7.859  -6.072
33885SOL     OW 3661   9.179   9.108   3.105
33885SOL    HW1 3662   9.131   9.035   3.144
33885SOL    HW2 3663   9.267   9.101  47.301
33886SOL     OW 3664   1.998   4.700   7.769
33886SOL    HW1 3665  -8.953   4.665  29.836
33886SOL    HW2 3666   2.009  -6.268   7.832
33887SOL     OW 3667  -1.359   8.515   1.575
33887SOL    HW1 3668  31.801 -24.548   1.641
33887SOL    HW2 3669  -1.397 -13.502   1.513
33888SOL     OW 3670   6.851  11.927   0.869
33888SOL    HW1 3671   6.851 -10.192   0.956
33888SOL    HW2 3672   6.856  11.852   0.809
33889SOL     OW 3673   0.176   7.436   4.514
33889SOL    HW1 3674   0.230   7.478   4.581
33889SOL    HW2 3675  22.284   7.345  15.553
33890SOL     OW 3676   8.903   3.359   5.988
33890SOL    HW1 3677   8.879   3.442   5.946
33890SOL    HW2 3678   8.840  -7.691   6.059
33891SOL     OW 3679   1.058   3.292   2.474
33891SOL    HW1 3680   1.018   3.355   2.413
33891SOL    HW2 3681   1.068  14.380   2.555
33892SOL     OW 3682   8.905   1.075   6.742
33892SOL    HW1 3683  42.005  12.094   6.834
33892SOL    HW2 3684   8.845  12.187  -4.317
33893SOL     OW 3685   7.688   5.383   9.729
33893SOL    HW1 3686  -3.258   5.381  31.789
33893SOL    HW2 3687   7.670   5.297   9.768
33894SOL     OW 3688   4.475   1.893   3.868
33894SOL    HW1 3689   4.436   1.980   3.875
33894SOL    HW2 3690   4.402   1.833  -7.158
33895SOL     OW 3691   1.705   4.092   6.436
33895SOL    HW1 3692   1.718   4.146   6.513
33895SOL    HW2 3693   1.665   4.151  -4.668
33896SOL     OW 3694   8.280   3.032   7.411
33896SOL    HW1 3695   8.234   2.950   7.395
33896SOL    HW2 3696   8.314   3.023 -14.579
33897SOL     OW 3697   2.043   0.237   1.172
33897SOL    HW1 3698 -19.974   0.309   1.183
33897SOL    HW2 3699   2.098  22.240   1.151
33898SOL     OW 3700   4.362   7.992   6.632
33898SOL    HW1 3701   4.383   8.069   6.579
33898SOL    HW2 3702   4.340   7.924   6.568
33899SOL     OW 3703   9.026   1.066   1.593
33899SOL    HW1 3704  -2.079  12.110   1.663
33899SOL    HW2 3705   9.061   1.155   1.586
33900SOL     OW 3706   5.369   8.187   7.768
33900SOL    HW1 3707  -5.679  -2.778   7.708
33900SOL    HW2 3708   5.336 -13.967   7.719
33901SOL     OW 3709   2.205   4.935   8.168
33901SOL    HW1 3710   2.155  -6.169  -2.822
33901SOL    HW2 3711   2.187   5.018  30.290
33902SOL     OW 3712   6.426   6.123   8.779
33902SOL    HW1 3713  -4.676 -27.039  -2.202
33902SOL    HW2 3714   6.393  -4.936   8.691
33903SOL     OW 3715   3.213   7.314  -0.707
33903SOL    HW1 3716   3.192   7.383  32.349
33903SOL    HW2 3717 -18.771  -3.738  -0.717
33904SOL     OW 3718  -0.160  10.157   2.115
33904SOL    HW1 3719  10.809  10.216   2.142
33904SOL    HW2 3720  10.836  10.090  -8.978
33905SOL     OW 3721   2.502   7.440   5.813
33905SOL    HW1 3722 -19.508 -25.656   5.750
33905SOL    HW2 3723   2.535   7.362   5.857
33906SOL     OW 3724   2.825   4.349   5.143
33906SOL    HW1 3725   2.848   4.418   5.080
33906SOL    HW2 3726   2.816   4.395   5.227
33907SOL     OW 3727   2.182   5.848   3.362
33907SOL    HW1 3728  13.182   5.761   3.370
33907SOL    HW2 3729   2.184 -38.277 -18.627
33908SOL     OW 3730   9.039   6.951   8.864
33908SOL    HW1 3731   9.133   6.931   8.867
33908SOL    HW2 3732   8.997   6.865   8.858
33909SOL     OW 3733  10.961   1.510   4.097
33909SOL    HW1 3734  11.005   1.425  -6.950
33909SOL    HW2 3735  10.869   1.491   4.077
33910SOL     OW 3736  -1.471   2.471   7.164
33910SOL    HW1 3737   9.569   2.495  -3.969
33910SOL    HW2 3738  31.570   2.416  18.213
33911SOL     OW 3739  10.968   8.625   6.893
33911SOL    HW1 3740  -0.105   8.714  -4.154
33911SOL    HW2 3741 -11.178   8.578   6.943
33912SOL     OW 3742   8.954   1.834   2.104
33912SOL    HW1 3743  -2.028   1.877   2.040
33912SOL    HW2 3744   8.891   1.902   2.129
33913SOL     OW 3745   6.343   2.840  10.710
33913SOL    HW1 3746   6.417   2.782  10.732
33913SOL    HW2 3747   6.315   2.875  10.794
33914SOL     OW 3748   3.616   6.229   3.190
33914SOL    HW1 3749   3.709   6.229   3.209
33914SOL    HW2 3750   3.591   6.321   3.193
33915SOL     OW 3751   3.802   5.880   2.781
33915SOL    HW1 3752   3.807   5.827   2.860
33915SOL    HW2 3753  25.793   5.919   2.784
33916SOL     OW 3754   4.385   5.925   8.891
33916SOL    HW1 3755  26.383   5.885   8.924
33916SOL    HW2 3756  15.421 -16.169   8.797
33917SOL     OW 3757   8.293  10.014   7.251
33917SOL    HW1 3758   8.295   9.937   7.307
33917SOL    HW2 3759  19.245  21.055  18.253
33918SOL     OW 3760   5.475   6.920   5.894
33918SOL    HW1 3761   5.530   6.911   5.816
33918SOL    HW2 3762  38.595   7.013   5.914
33919SOL     OW 3763   5.727   4.607   6.373
33919SOL    HW1 3764   5.749   4.688   6.418
33919SOL    HW2 3765   5.726   4.541   6.442
33920SOL     OW 3766  10.198   6.938  10.168
33920SOL    HW1 3767  10.155  -4.046  10.104
33920SOL    HW2 3768  10.273 -26.218  10.122
33921SOL     OW 3769   3.540   9.553   3.438
33921SOL    HW1 3770   3.599  20.517   3.435
33921SOL    HW2 3771   3.491   9.542   3.519
33922SOL     OW 3772   3.200   3.467   2.270
33922SOL    HW1 3773  25.287   3.382   2.226
33922SOL    HW2 3774 -18.921   3.447  24.433
33923SOL     OW 3775   8.490   3.562   4.673
33923SOL    HW1 3776  -2.626   3.552  -6.310
33923SOL    HW2 3777  41.643   3.473   4.663
33924SOL     OW 3778  -1.838   6.620   9.133
33924SOL    HW1 3779  31.366  -4.393  20.207
33924SOL    HW2 3780  -1.899   6.684   9.171
33925SOL     OW 3781   5.844  10.660   7.026
33925SOL    HW1 3782   5.897  10.726   6.982
33925SOL    HW2 3783   5.870  10.577   6.986
33926SOL     OW 3784   6.148   4.473   3.809
33926SOL    HW1 3785   6.103   4.525  14.915
33926SOL    HW2 3786   6.235   4.457  -7.194
33927SOL     OW 3787  10.193   9.095   8.863
33927SOL    HW1 3788  10.249  -2.022   8.855
33927SOL    HW2 3789  10.128   9.070 -24.190
33928SOL     OW 3790   4.797  11.500   0.317
33928SOL    HW1 3791   4.723  11.520  22.454
33928SOL    HW2 3792   4.760   0.403  11.290
33929SOL     OW 3793   5.706   1.288   0.213
33929SOL    HW1 3794   5.684   1.377   0.184
33929SOL    HW2 3795  -5.386   1.231  11.197
33930SOL     OW 3796   8.511   9.140   7.687
33930SOL    HW1 3797   8.428   9.158 -14.346
33930SOL    HW2 3798   8.543  31.139   7.727
33931SOL     OW 3799  10.417   4.605   6.952
33931SOL    HW1 3800  10.504   4.632 -26.136
33931SOL    HW2 3801  -0.605   4.532   6.892
33932SOL     OW 3802   6.693   2.289   2.304
33932SOL    HW1 3803  -4.343   2.283 -19.871
33932SOL    HW2 3804   6.768   2.344   2.327
33933SOL     OW 3805   1.678  10.512   1.491
33933SOL    HW1 3806  12.728  10.584  -9.486
33933SOL    HW2 3807   1.686  10.553   1.405
33934SOL     OW 3808   5.727   6.768   0.347
33934SOL    HW1 3809  -5.230   6.760  11.339
33934SOL    HW2 3810   5.744  -4.205  11.453
33935SOL     OW 3811   5.063   6.895   8.669
33935SOL    HW1 3812   5.133  17.922 -24.386
33935SOL    HW2 3813   4.998  -4.091   8.715
33936SOL     OW 3814   2.970   5.702   3.240
33936SOL    HW1 3815  -8.085   5.643   3.313
33936SOL    HW2 3816   2.930   5.658   3.165
33937SOL     OW 3817   3.696   2.412   5.851
33937SOL    HW1 3818   3.638  13.449  -5.112
33937SOL    HW2 3819   3.671   2.493   5.806
33938SOL     OW 3820   0.815   6.878   4.850
33938SOL    HW1 3821   0.880   6.943   4.878
33938SOL    HW2 3822   0.799   6.824  -6.112
33939SOL     OW 3823   5.301   8.783   7.122
33939SOL    HW1 3824   5.383  19.779   7.144
33939SOL    HW2 3825   5.311   8.809  -4.009
33940SOL     OW 3826  10.746   5.278   9.186
33940SOL    HW1 3827  21.828   5.306   9.267
33940SOL    HW2 3828 -11.273   5.306   9.117
33941SOL     OW 3829   9.928   9.625   0.717
33941SOL    HW1 3830  -1.166 -12.512   0.664
33941SOL    HW2 3831   9.868   9.691  11.792
33942SOL     OW 3832   1.309  -0.277  -1.043
33942SOL    HW1 3833   1.257  10.688  10.029
33942SOL    HW2 3834   1.318  -0.220  10.073
33943SOL     OW 3835   9.965   8.276   9.777
33943SOL    HW1 3836   9.983 -24.812   9.688
33943SOL    HW2 3837   9.921   8.191   9.765
33944SOL     OW 3838   7.483   5.057   8.708
33944SOL    HW1 3839 -14.561 -72.186   8.790
33944SOL    HW2 3840   7.461  -5.905   8.657
33945SOL     OW 3841   5.187   9.721  10.962
33945SOL    HW1 3842   5.170   9.747 -11.207
33945SOL    HW2 3843   5.219   9.631  10.955
33946SOL     OW 3844  -1.182   8.530   4.247
33946SOL    HW1 3845  32.015   8.477   4.263
33946SOL    HW2 3846  -1.154   8.596   4.183
33947SOL     OW 3847   3.747   8.801   2.190
33947SOL    HW1 3848  14.783   8.859   2.266
33947SOL    HW2 3849   3.660  19.845  24.230
33948SOL     OW 3850   3.780  -0.746   3.092
33948SOL    HW1 3851  25.927  -0.813 -18.998
33948SOL    HW2 3852   3.744  21.345  -8.036
33949SOL     OW 3853   9.681  -0.536   5.464
33949SOL    HW1 3854   9.640  10.568  38.641
33949SOL    HW2 3855  -1.388  -0.621   5.499
33950SOL     OW 3856   2.110   7.574   1.852
33950SOL    HW1 3857   2.114 -36.626 -20.313
33950SOL    HW2 3858   2.027   7.544  23.968
33951SOL     OW 3859  10.227   7.516  10.845
33951SOL    HW1 3860  21.352  18.592  10.823
33951SOL    HW2 3861  10.236   7.422  10.829
33952SOL     OW 3862   2.742   2.581   3.067
33952SOL    HW1 3863   2.767   2.496   3.103
33952SOL    HW2 3864   2.744   2.640   3.142
33953SOL     OW 3865   5.159  -0.556  12.311
33953SOL    HW1 3866  -5.866  10.570  -9.806
33953SOL    HW2 3867   5.096  -0.542   1.343
33954SOL     OW 3868   3.386   7.690   8.465
33954SOL    HW1 3869  47.453   7.665 -13.602
33954SOL    HW2 3870   3.392 -14.359   8.375
33955SOL     OW 3871   8.475   3.007   5.068
33955SOL    HW1 3872   8.475  14.090   5.154
33955SOL    HW2 3873   8.493  13.955 -39.069
33956SOL     OW 3874   9.734  11.246  10.173
33956SOL    HW1 3875   9.754  11.329  10.217
33956SOL    HW2 3876   9.645 -10.854 -11.878
33957SOL     OW 3877   5.041   7.986   7.135
33957SOL    HW1 3878   5.020   7.964  -3.995
33957SOL    HW2 3879  -6.072  52.110   7.186
33958SOL     OW 3880   6.468  -0.749   8.732
33958SOL    HW1 3881   6.389  32.419 -13.370
33958SOL    HW2 3882   6.438  -0.840   8.741
33959SOL     OW 3883   9.293  10.081   4.909
33959SOL    HW1 3884   9.240  10.144  15.998
33959SOL    HW2 3885   9.371  21.108  27.042
33960SOL     OW 3886   9.775   2.908   5.580
33960SOL    HW1 3887  -1.283   2.864  -5.376
33960SOL    HW2 3888   9.835   2.850   5.534
33961SOL     OW 3889   7.265   0.864   0.072
33961SOL    HW1 3890  29.432   0.854   0.034
33961SOL    HW2 3891  40.329 -10.234   0.021
33962SOL     OW 3892  10.207   9.381   4.004
33962SOL    HW1 3893  21.328   9.423   4.033
33962SOL    HW2 3894  10.142   9.451  48.165
33963SOL     OW 3895   5.309  11.978   4.696
33963SOL    HW1 3896  -5.661  11.997   4.632
33963SOL    HW2 3897   5.258 -10.171   4.656
33964SOL     OW 3898   9.638   8.062   7.725
33964SOL    HW1 3899  -1.378  -2.946   7.638
33964SOL    HW2 3900   9.579  19.028   7.709
33965SOL     OW 3901   0.343   6.565   2.114
33965SOL    HW1 3902   0.257 -15.496  24.233
33965SOL    HW2 3903   0.406   6.592   2.179
33966SOL     OW 3904   0.712  11.638  -0.226
33966SOL    HW1 3905 -10.310   0.668  32.829
33966SOL    HW2 3906   0.619  11.619  -0.236
33967SOL     OW 3907   4.892   9.562   2.105
33967SOL    HW1 3908  15.971 -34.511   2.091
33967SOL    HW2 3909   4.808 -12.513   2.058
33968SOL     OW 3910   3.307   3.903   1.787
33968SOL    HW1 3911   3.213   3.914   1.772
33968SOL    HW2 3912  -7.727   3.838  12.896
33969SOL     OW 3913   5.239   8.146   3.147
33969SOL    HW1 3914  16.315   8.222   3.103
33969SOL    HW2 3915   5.315  -2.941 -29.937
33970SOL     OW 3916   7.900   5.842  10.396
33970SOL    HW1 3917   7.951   5.767  10.368
33970SOL    HW2 3918   7.929  -5.126  10.339
33971SOL     OW 3919   4.297   5.664   6.540
33971SOL    HW1 3920  15.316   5.585   6.590
33971SOL    HW2 3921  15.360   5.729   6.606
33972SOL     OW 3922   3.164   7.050   2.919
33972SOL    HW1 3923   3.244   7.103   2.923
33972SOL    HW2 3924   3.194  40.078   2.923
33973SOL     OW 3925   6.021   7.317   8.662
33973SOL    HW1 3926   6.085   7.333   8.732
33973SOL    HW2 3927 -16.012   7.263   8.598
33974SOL     OW 3928   3.469   4.818   2.437
33974SOL    HW1 3929   3.457   4.770   2.355
33974SOL    HW2 3930   3.389   4.801  -8.553
33975SOL     OW 3931   7.680   1.886   7.895
33975SOL    HW1 3932   7.771   1.868  18.914
33975SOL    HW2 3933   7.635 -20.192   7.810
33976SOL     OW 3934  10.693   9.321  10.378
33976SOL    HW1 3935  10.681   9.231  -0.631
33976SOL    HW2 3936  10.671   9.375  -0.586
33977SOL     OW 3937   8.763   6.594   9.223
33977SOL    HW1 3938   8.785   6.582   9.130
33977SOL    HW2 3939  19.787   6.505   9.255
33978SOL     OW 3940   8.867   5.220  10.506
33978SOL    HW1 3941   8.880   5.128  -0.558
33978SOL    HW2 3942   8.813  27.335 -22.684
33979SOL     OW 3943   8.332   4.487   8.257
33979SOL    HW1 3944   8.275   4.465   8.183
33979SOL    HW2 3945 -13.659  -6.566   8.224
33980SOL     OW 3946   1.843   5.871   9.907
33980SOL    HW1 3947   1.868  -5.234   9.972
33980SOL    HW2 3948   1.830   5.822   9.826
33981SOL     OW 3949   4.823   0.147   4.887
33981SOL    HW1 3950 -17.303   0.123 -17.271
33981SOL    HW2 3951   4.811   0.073   4.946
33982SOL     OW 3952   0.368   1.748   3.647
33982SOL    HW1 3953   0.329   1.714   3.728
33982SOL    HW2 3954  11.501   1.752  36.784
33983SOL     OW 3955   3.116   6.164   3.336
33983SOL    HW1 3956   3.172 -15.841   3.357
33983SOL    HW2 3957   3.027 -26.921   3.345
33984SOL     OW 3958   0.215   3.166   9.904
33984SOL    HW1 3959  22.219   3.131 -12.223
33984SOL    HW2 3960  11.220   3.243  -1.090
33985SOL     OW 3961   5.978   0.027   4.577
33985SOL    HW1 3962   5.981  22.179  15.554
33985SOL    HW2 3963   6.016   0.063   4.657
33986SOL     OW 3964  10.808   1.954   3.655
33986SOL    HW1 3965  10.780   1.909   3.735
33986SOL    HW2 3966  10.892   1.914  25.713
33987SOL     OW 3967   6.642   7.588   7.313
33987SOL    HW1 3968   6.586   7.544   7.376
33987SOL    HW2 3969 -15.416   7.672   7.354
33988SOL     OW 3970   1.672   9.145  10.267
33988SOL    HW1 3971   1.698   9.097  10.188
33988SOL    HW2 3972  -9.428 -12.867  -0.805
33989SOL     OW 3973   1.068   8.019   4.861
33989SOL    HW1 3974   1.015   7.983   4.933
33989SOL    HW2 3975   1.007   8.071  15.849
33990SOL     OW 3976   1.174   3.319   8.491
33990SOL    HW1 3977   1.164   3.273  19.448
33990SOL    HW2 3978  12.241   3.407   8.466
33991SOL     OW 3979  10.302   8.735   4.943
33991SOL    HW1 3980  10.340  19.687   4.937
33991SOL    HW2 3981  -0.782   8.737  27.107
33992SOL     OW 3982   5.967   5.170   8.390
33992SOL    HW1 3983  -5.116   5.248   8.424
33992SOL    HW2 3984  -5.074   5.181   8.295
33993SOL     OW 3985   0.041   9.473   6.555
33993SOL    HW1 3986  22.097   9.486   6.463
33993SOL    HW2 3987  -0.041   9.488 -15.476
33994SOL     OW 3988   8.686   5.629   8.490
33994SOL    HW1 3989 -13.310   5.654  19.570
33994SOL    HW2 3990 -35.471   5.533   8.491
33995SOL     OW 3991   7.149   3.963   1.214
33995SOL    HW1 3992  -3.877  14.920   1.168
33995SOL    HW2 3993   7.065  26.033   1.257
33996SOL     OW 3994   7.953   1.802   8.093
33996SOL    HW1 3995  -3.113   1.736   8.029
33996SOL    HW2 3996   7.960   1.883   8.042
33997SOL     OW 3997   2.877   2.160   7.922
33997SOL    HW1 3998  24.881   2.173   7.864
33997SOL    HW2 3999  25.031  -8.887  -3.177
33998SOL     OW 4000   6.087   6.051   4.435
33998SOL    HW1 4001   6.133   5.968  15.466
33998SOL    HW2 4002   6.018   6.048   4.369
33999SOL     OW 4003   5.296   1.401   8.246
33999SOL    HW1 4004   5.231  12.484   8.190
33999SOL    HW2 4005 -16.709   1.384   8.188
34000SOL     OW 4006   1.446   4.216  10.336
34000SOL    HW1 4007  23.545   4.123 -11.751
34000SOL    HW2 4008   1.353   4.223  -0.726
34001SOL     OW 4009   7.280   2.572   6.322
34001SOL    HW1 4010  -3.749   2.493   6.374
34001SOL    HW2 4011   7.221   2.546  17.291
34002SOL     OW 4012   8.857   5.912   5.654
34002SOL    HW1 4013  19.950   5.892   5.577
34002SOL    HW2 4014   8.839   5.828   5.695
34003SOL     OW 4015   8.191   3.300   7.336
34003SOL    HW1 4016   8.230  14.377   7.257
34003SOL    HW2 4017   8.240   3.219   7.351
34004SOL     OW 4018   0.191   3.114   3.620
34004SOL    HW1 4019   0.202   3.173   3.694
34004SOL    HW2 4020   0.191   3.027  14.699
34005SOL     OW 4021   8.646   4.447   9.078
34005SOL    HW1 4022   8.620  15.395   9.078
34005SOL    HW2 4023  19.750   4.454  20.048
34006SOL     OW 4024   3.186   7.410  10.821
34006SOL    HW1 4025   3.162   7.320 -33.314
34006SOL    HW2 4026 -30.015   7.449  10.791
34007SOL     OW 4027  12.135   6.492   5.848
34007SOL    HW1 4028   1.056   6.559  27.871
34007SOL    HW2 4029   1.036 -15.593   5.923
34008SOL     OW 4030   4.991   9.718   0.357
34008SOL    HW1 4031   5.041   9.785   0.404
34008SOL    HW2 4032   4.901   9.731  33.504
34009SOL     OW 4033   8.746   0.928   6.085
34009SOL    HW1 4034  19.695   0.900   6.077
34009SOL    HW2 4035   8.798 -10.189   6.064
34010SOL     OW 4036  10.099   3.285   9.931
34010SOL    HW1 4037 -12.004   3.378   9.936
34010SOL    HW2 4038  10.150   3.278  20.889
34011SOL     OW 4039   5.764   6.809   8.278
34011SOL    HW1 4040   5.690   6.869  19.309
34011SOL    HW2 4041   5.749  28.821   8.212
34012SOL     OW 4042   9.222   9.660   8.332
34012SOL    HW1 4043  -1.735   9.643   8.378
34012SOL    HW2 4044   9.227   9.606   8.253
34013SOL     OW 4045  10.820   0.038   5.136
34013SOL    HW1 4046  10.846  -0.047  16.139
34013SOL    HW2 4047 -11.312   0.079   5.068
34014SOL     OW 4048   5.028   9.605   5.872
34014SOL    HW1 4049  -6.055   9.676   5.826
34014SOL    HW2 4050  -5.951   9.569   5.807
34015SOL     OW 4051   9.697   8.319   5.995
34015SOL    HW1 4052  -1.430  30.371   6.023
34015SOL    HW2 4053 -12.388 -13.757   5.900
34016SOL     OW 4054   7.679   6.846  11.115
34016SOL    HW1 4055  -3.285   6.815   0.025
34016SOL    HW2 4056 -58.552   6.941  11.112
34017SOL     OW 4057  11.277   5.076   7.122
34017SOL    HW1 4058 -21.910   5.016   7.091
34017SOL    HW2 4059  11.326   5.025   7.186
34018SOL     OW 4060   1.669   6.393   5.857
34018SOL    HW1 4061  23.814   6.339   5.901
34018SOL    HW2 4062  23.679 -15.749  16.872
34019SOL     OW 4063   0.149   3.787   9.308
34019SOL    HW1 4064  11.147  25.806   9.246
34019SOL    HW2 4065   0.094   3.785  20.425
34020SOL     OW 4066   1.972   3.275   8.059
34020SOL    HW1 4067  12.921   3.307  30.147
34020SOL    HW2 4068   1.963   3.181   8.044
34021SOL     OW 4069   8.464  10.693   6.456
34021SOL    HW1 4070   8.401  10.765   6.453
34021SOL    HW2 4071   8.519  10.712   6.532
34022SOL     OW 4072   2.780   4.188  -0.407
34022SOL    HW1 4073   2.700   4.136  10.631
34022SOL    HW2 4074   2.808   4.190  -0.499
34023SOL     OW 4075   7.173   5.124  11.811
34023SOL    HW1 4076  -3.800   5.154 -10.207
34023SOL    HW2 4077  -3.853 -27.941  11.733
34024SOL     OW 4078   0.947   1.737   8.014
34024SOL    HW1 4079 -10.116   1.798   7.944
34024SOL    HW2 4080   1.040 -20.325   8.031
34025SOL     OW 4081   8.902   4.645   1.671
34025SOL    HW1 4082   8.986  -6.437   1.691
34025SOL    HW2 4083  19.921   4.616   1.582
34026SOL     OW 4084  11.334  -1.006   6.278
34026SOL    HW1 4085   0.297  32.019   6.262
34026SOL    HW2 4086  11.244  43.178   6.257
34027SOL     OW 4087   6.838  10.667   2.017
34027SOL    HW1 4088 -26.253  10.583  -8.984
34027SOL    HW2 4089  -4.245  10.713  -8.951
34028SOL     OW 4090   9.149   4.852   1.385
34028SOL    HW1 4091 -34.922 -17.224  -9.693
34028SOL    HW2 4092  -1.876   4.861  -9.561
34029SOL     OW 4093   0.188   4.442   3.224
34029SOL    HW1 4094   0.127   4.485  47.322
34029SOL    HW2 4095   0.165  26.555   3.310
34030SOL     OW 4096   8.190   2.116   1.568
34030SOL    HW1 4097  19.219   2.153   1.481
34030SOL    HW2 4098 -13.904   2.022   1.557
34031SOL     OW 4099   5.075   9.351   4.050
34031SOL    HW1 4100   5.062   9.367   3.957
34031SOL    HW2 4101   5.167   9.373   4.066
34032SOL     OW 4102   2.267   7.838   1.813
34032SOL    HW1 4103   2.317   7.822   1.893
34032SOL    HW2 4104   2.193   7.777   1.818
34033SOL     OW 4105   8.974   3.017   3.636
34033SOL    HW1 4106   8.965  -8.059  -7.491
34033SOL    HW2 4107  20.100   3.057   3.637
34034SOL     OW 4108   3.526   2.485   9.291
34034SOL    HW1 4109   3.482   2.403   9.313
34034SOL    HW2 4110   3.550   2.476   9.199
34035SOL     OW 4111   7.030   2.354   8.474
34035SOL    HW1 4112   7.034   2.338   8.568
34035SOL    HW2 4113  -4.103   2.361   8.455
34036SOL     OW 4114   9.924   1.934  12.065
34036SOL    HW1 4115  -1.127   1.881  11.986
34036SOL    HW2 4116  10.011   1.909  -9.981
34037SOL     OW 4117   5.146   2.462   4.611
34037SOL    HW1 4118   5.233   2.483   4.578
34037SOL    HW2 4119   5.143   2.366   4.613
34038SOL     OW 4120   8.004   7.475  13.355
34038SOL    HW1 4121 -36.248   7.464 -19.782
34038SOL    HW2 4122 -25.073  -3.638 -19.810
34039SOL     OW 4123   7.143   7.833   7.734
34039SOL    HW1 4124   7.124   7.776  -3.380
34039SOL    HW2 4125  -3.805   7.815  -3.284
34040SOL     OW 4126   1.921   1.167   7.299
34040SOL    HW1 4127  13.007   1.239 -25.777
34040SOL    HW2 4128   1.967   1.088   7.327
34041SOL     OW 4129   5.849   0.281   3.916
34041SOL    HW1 4130   5.785   0.271  -7.194
34041SOL    HW2 4131 -16.278  11.296  15.035
34042SOL     OW 4132   6.899   5.980   2.072
34042SOL    HW1 4133   6.887   6.073   2.053
34042SOL    HW2 4134   6.811   5.950   2.096
34043SOL     OW 4135  -0.366   1.572   0.341
34043SOL    HW1 4136  21.666   1.605   0.418
34043SOL    HW2 4137  -0.277   1.554   0.373
34044SOL     OW 4138   5.169   0.728   0.054
34044SOL    HW1 4139   5.196   0.695   0.140
34044SOL    HW2 4140 -17.005   0.716   0.053
34045SOL     OW 4141   1.413   3.565   9.593
34045SOL    HW1 4142   1.346 -29.599   9.644
34045SOL    HW2 4143  -9.547  36.677  -1.394
34046SOL     OW 4144   9.890  -0.565   1.769
34046SOL    HW1 4145   9.851  -0.643   1.808
34046SOL    HW2 4146   9.874  32.623   1.833
34047SOL     OW 4147   9.444   7.020   5.250
34047SOL    HW1 4148  -1.608  -3.966  16.368
34047SOL    HW2 4149   9.538   7.016   5.238
34048SOL     OW 4150   4.601   6.435   3.664
34048SOL    HW1 4151   4.515   6.397  25.730
34048SOL    HW2 4152   4.611  28.519   3.759
34049SOL     OW 4153   3.024   5.468   1.159
34049SOL    HW1 4154 -19.143   5.486  12.163
34049SOL    HW2 4155   3.045   5.544  12.252
34050SOL     OW 4156   0.945  10.557  -0.592
34050SOL    HW1 4157   0.905  10.471  10.452
34050SOL    HW2 4158   0.975  -0.475  10.357
34051SOL     OW 4159   7.215   6.285  -0.487
34051SOL    HW1 4160   7.232   6.203  -0.534
34051SOL    HW2 4161   7.263  17.390  21.542
34052SOL     OW 4162   3.649   2.197   9.848
34052SOL    HW1 4163  -7.387  13.194   9.762
34052SOL    HW2 4164 -18.357   2.259  -1.192
34053SOL     OW 4165   1.410  10.801   7.801
34053SOL    HW1 4166   1.451  -0.290   7.731
34053SOL    HW2 4167  -9.574  10.785   7.877
34054SOL     OW 4168   9.992   0.801   4.423
34054SOL    HW1 4169  10.080  11.876  15.448
34054SOL    HW2 4170  -1.068  11.863  26.593
34055SOL     OW 4171  10.346   1.519  10.286
34055SOL    HW1 4172  10.290  12.636 -22.830
34055SOL    HW2 4173  10.286   1.446  10.270
34056SOL     OW 4174   1.448   6.307   7.556
34056SOL    HW1 4175   1.399   6.389   7.568
34056SOL    HW2 4176   1.433  -4.757   7.465
34057SOL     OW 4177   8.309  -0.160   6.856
34057SOL    HW1 4178   8.290  -0.108   6.934
34057SOL    HW2 4179   8.393  10.838   6.874
34058SOL     OW 4180   4.413   3.316   9.994
34058SOL    HW1 4181   4.455   3.373   9.930
34058SOL    HW2 4182   4.430   3.227   9.961
34059SOL     OW 4183   8.173   1.468   8.863
34059SOL    HW1 4184   8.167  12.563  19.980
34059SOL    HW2 4185   8.266  -9.578   8.845
34060SOL     OW 4186   7.300   3.518   6.463
34060SOL    HW1 4187   7.369  25.662   6.481
34060SOL    HW2 4188   7.236  25.644   6.410
34061SOL     OW 4189   2.587  11.061   5.605
34061SOL    HW1 4190  -8.483  11.029  16.729
34061SOL    HW2 4191   2.540  -0.031  16.580
34062SOL     OW 4192   9.095   9.714   0.606
34062SOL    HW1 4193   9.182  -1.316   0.645
34062SOL    HW2 4194   9.110  20.704  11.565
34063SOL     OW 4195   9.509   7.650   9.023
34063SOL    HW1 4196   9.422  29.753   8.989
34063SOL    HW2 4197   9.516   7.696   9.106
34064SOL     OW 4198   1.309   4.880   4.202
34064SOL    HW1 4199   1.252   4.957   4.200
34064SOL    HW2 4200 -20.725   4.881   4.118
34065SOL     OW 4201   5.688   8.091   2.372
34065SOL    HW1 4202  16.790   8.053   2.310
34065SOL    HW2 4203   5.653  -3.024   2.420
34066SOL     OW 4204   6.232   6.638   1.374
34066SOL    HW1 4205 -15.793   6.706   1.414
34066SOL    HW2 4206   6.258   6.557   1.417
34067SOL     OW 4207   0.360   3.818   3.353
34067SOL    HW1 4208   0.324   3.733  -7.661
34067SOL    HW2 4209   0.448  -7.241   3.321
34068SOL     OW 4210   8.320   4.058   2.383
34068SOL    HW1 4211   8.393   4.088   2.329
34068SOL    HW2 4212   8.361  15.055   2.458
34069SOL     OW 4213   2.447   1.826   8.275
34069SOL    HW1 4214   2.533  -9.239  -2.732
34069SOL    HW2 4215   2.411  -9.293   8.236
34070SOL     OW 4216   5.696   0.203   0.318
34070SOL    HW1 4217  16.824 -21.880  33.401
34070SOL    HW2 4218   5.640  22.251   0.247
34071SOL     OW 4219   9.485   7.353   5.344
34071SOL    HW1 4220  -1.649  29.430   5.326
34071SOL    HW2 4221 -12.555  29.392   5.267
34072SOL     OW 4222   6.875   2.952   9.785
34072SOL    HW1 4223  -4.112  36.128  31.921
34072SOL    HW2 4224  17.977   2.890   9.749
34073SOL     OW 4225   7.511   1.049   7.584
34073SOL    HW1 4226   7.488  -9.899  18.608
34073SOL    HW2 4227   7.431   1.011  18.660
34074SOL     OW 4228   0.078   8.091   5.692
34074SOL    HW1 4229  -0.011 -14.004   5.661
34074SOL    HW2 4230   0.128   8.110   5.613
34075SOL     OW 4231   4.702   7.157   8.249
34075SOL    HW1 4232   4.743   7.091   8.304
34075SOL    HW2 4233   4.744   7.146   8.163
34076SOL     OW 4234  10.049   2.237   0.587
34076SOL    HW1 4235  -0.983  24.380   0.657
34076SOL    HW2 4236  32.210   2.244   0.538
34077SOL     OW 4237  11.276   0.106   5.578
34077SOL    HW1 4238 -10.723   0.061   5.551
34077SOL    HW2 4239  11.226  22.118   5.625
34078SOL     OW 4240   6.264  10.089   2.246
34078SOL    HW1 4241  50.362  10.146   2.294
34078SOL    HW2 4242  -4.831  -0.996   2.182
34079SOL     OW 4243   2.401   2.325   4.896
34079SOL    HW1 4244   2.315   2.368 -28.214
34079SOL    HW2 4245   2.451   2.359   4.970
34080SOL     OW 4246   1.090   5.925   2.383
34080SOL    HW1 4247   1.011   5.948   2.432
34080SOL    HW2 4248   1.153   5.993  13.445
34081SOL     OW 4249   3.288   4.300   3.541
34081SOL    HW1 4250   3.214   4.340   3.587
34081SOL    HW2 4251   3.277   4.327  -7.589
34082SOL     OW 4252   0.806   4.214   4.976
34082SOL    HW1 4253   0.817  26.303   4.882
34082SOL    HW2 4254   0.779   4.123   4.988
34083SOL     OW 4255   1.914  12.140   3.884
34083SOL    HW1 4256  12.943  -9.922  36.910
34083SOL    HW2 4257   2.009  12.141   3.898
34084SOL     OW 4258   9.047   7.491   9.775
34084SOL    HW1 4259   9.007   7.413   9.737
34084SOL    HW2 4260   9.034   7.560   9.710
34085SOL     OW 4261   1.176   3.311   9.590
34085SOL    HW1 4262   1.221   3.342   9.512
34085SOL    HW2 4263   1.229  -7.802   9.621
34086SOL     OW 4264  10.329  11.044   3.995
34086SOL    HW1 4265 -22.768  -0.075   3.946
34086SOL    HW2 4266  10.414  11.082   4.016
34087SOL     OW 4267   4.696   4.431  -0.274
34087SOL    HW1 4268 -17.361   4.439  -0.182
34087SOL    HW2 4269   4.634   4.503  21.788
34088SOL     OW 4270  11.511   2.534   9.683
34088SOL    HW1 4271 -10.599   2.616   9.644
34088SOL    HW2 4272  11.545 -19.595   9.609
34089SOL     OW 4273   3.082  10.699   4.891
34089SOL    HW1 4274  -7.916  10.746   4.964
34089SOL    HW2 4275 -18.928  10.691   4.825
34090SOL     OW 4276   7.261   1.961  10.829
34090SOL    HW1 4277  -3.748   1.960  10.919
34090SOL    HW2 4278   7.335   1.996  -0.261
34091SOL     OW 4279   8.890  10.479   7.681
34091SOL    HW1 4280   8.936  -0.644  18.723
34091SOL    HW2 4281   8.958  10.545  18.710
34092SOL     OW 4282   2.836   6.045   9.058
34092SOL    HW1 4283   2.829  -4.904   9.090
34092SOL    HW2 4284 -41.254   6.006 -35.046
34093SOL     OW 4285   2.434   9.737   7.161
34093SOL    HW1 4286   2.455 -12.381   7.246
34093SOL    HW2 4287   2.349 -23.419   7.138
34094SOL     OW 4288   7.482   3.526   5.173
34094SOL    HW1 4289  29.638   3.579  27.233
34094SOL    HW2 4290   7.513 -18.622   5.231
34095SOL     OW 4291   9.282   4.454   5.070
34095SOL    HW1 4292 -23.798  -6.602   5.155
34095SOL    HW2 4293   9.293 -17.707   5.022
34096SOL     OW 4294   6.862   2.991   6.433
34096SOL    HW1 4295   6.850  25.054   6.340
34096SOL    HW2 4296  29.020  13.980   6.456
34097SOL     OW 4297   1.632   3.002   1.280
34097SOL    HW1 4298   1.613  -8.044   1.187
34097SOL    HW2 4299  -9.419 -30.024   1.301
34098SOL     OW 4300  -0.525  11.664   2.437
34098SOL    HW1 4301  10.541 -21.540   2.470
34098SOL    HW2 4302  -0.443  11.704  -8.634
34099SOL     OW 4303   5.279   5.570  10.248
34099SOL    HW1 4304   5.331 -16.472  10.320
34099SOL    HW2 4305   5.260  -5.559  10.278
34100SOL     OW 4306   0.567  -0.203   7.072
34100SOL    HW1 4307  11.599  -0.249   6.989
34100SOL    HW2 4308   0.593  10.926   7.048
34101SOL     OW 4309   4.086  11.852   3.110
34101SOL    HW1 4310 -17.938  11.804   3.048
34101SOL    HW2 4311 -40.021 -32.228   3.131
34102SOL     OW 4312   1.918   9.907   9.133
34102SOL    HW1 4313  12.972   9.837  20.235
34102SOL    HW2 4314   1.940   9.987  20.220
34103SOL     OW 4315   6.366  10.027   0.522
34103SOL    HW1 4316  17.497  21.060  11.592
34103SOL    HW2 4317   6.346   9.939   0.490
34104SOL     OW 4318   8.587   3.696   0.866
34104SOL    HW1 4319  19.626   3.654  11.819
34104SOL    HW2 4320 -13.585   3.703   0.889
34105SOL     OW 4321   5.924   2.052   6.717
34105SOL    HW1 4322  17.000   2.127   6.763
34105SOL    HW2 4323  16.893   2.088  28.743
34106SOL     OW 4324   9.761   4.677   1.201
34106SOL    HW1 4325   9.744   4.693   1.108
34106SOL    HW2 4326 -12.276  -6.449   1.203
34107SOL     OW 4327   4.752   9.698   3.305
34107SOL    HW1 4328   4.789   9.638   3.369
34107SOL    HW2 4329  26.907   9.733  14.297
34108SOL     OW 4330   2.131   6.891   2.516
34108SOL    HW1 4331   2.078 -15.145  13.489
34108SOL    HW2 4332   2.090  17.955   2.599
34109SOL     OW 4333  -0.962   3.979   5.710
34109SOL    HW1 4334  -0.874   3.975   5.746
34109SOL    HW2 4335  21.102   3.893  -5.367
34110SOL     OW 4336   5.206   9.495   5.642
34110SOL    HW1 4337   5.167   9.419   5.685
34110SOL    HW2 4338   5.291   9.463   5.611
34111SOL     OW 4339   1.385   8.494   3.789
34111SOL    HW1 4340  23.458   8.401  -7.271
34111SOL    HW2 4341   1.452  30.607   3.730
34112SOL     OW 4342   9.066   6.160   2.379
34112SOL    HW1 4343   9.082   6.066  -8.649
34112SOL    HW2 4344  -1.892   6.194 -19.736
34113SOL     OW 4345   7.575   1.470   8.706
34113SOL    HW1 4346   7.611 -20.694   8.679
34113SOL    HW2 4347   7.558   1.515   8.623
34114SOL     OW 4348   6.956   9.358   3.465
34114SOL    HW1 4349   6.884   9.351   3.402
34114SOL    HW2 4350   7.035   9.345 -18.667
34115SOL     OW 4351   4.290   9.557   7.209
34115SOL    HW1 4352   4.374  -1.474  -3.787
34115SOL    HW2 4353   4.295   9.618   7.135
34116SOL     OW 4354   1.065   1.787   7.276
34116SOL    HW1 4355  -9.972   1.836   7.358
34116SOL    HW2 4356   1.015   1.708 -25.822
34117SOL     OW 4357   7.423   8.236   6.344
34117SOL    HW1 4358   7.372   8.155  -4.690
34117SOL    HW2 4359   7.509   8.212  -4.663
34118SOL     OW 4360   5.881   9.876   8.225
34118SOL    HW1 4361   5.878  20.882   8.314
34118SOL    HW2 4362   5.960   9.929   8.222
34119SOL     OW 4363   9.161   1.291   7.413
34119SOL    HW1 4364  20.121   1.339   7.388
34119SOL    HW2 4365   9.131  -9.838   7.426
34120SOL     OW 4366   1.606   8.307   7.652
34120SOL    HW1 4367   1.670 -13.740  18.755
34120SOL    HW2 4368   1.521   8.324   7.694
34121SOL     OW 4369   5.618   7.273   2.417
34121SOL    HW1 4370   5.631  18.219  -8.639
34121SOL    HW2 4371  16.565   7.282   2.438
34122SOL     OW 4372   2.487   8.071   7.369
34122SOL    HW1 4373   2.469   8.002   7.305
34122SOL    HW2 4374   2.415   8.133   7.358
34123SOL     OW 4375   7.959   5.386   9.402
34123SOL    HW1 4376   7.885  27.526  -1.633
34123SOL    HW2 4377   8.029  16.476   9.360
34124SOL     OW 4378   4.984   2.169   1.530
34124SOL    HW1 4379   4.922  -8.804  12.540
34124SOL    HW2 4380   4.953   2.088   1.492
34125SOL     OW 4381   1.915   4.516   4.133
34125SOL    HW1 4382  -9.147   4.586  -6.845
34125SOL    HW2 4383   1.981  15.594   4.076
34126SOL     OW 4384  10.806   5.915   2.411
34126SOL    HW1 4385  10.813   5.995  -8.576
34126SOL    HW2 4386  10.833   5.845  13.510
34127SOL     OW 4387  10.672   6.053   5.776
34127SOL    HW1 4388  10.693   6.081   5.687
34127SOL    HW2 4389 -11.418   5.959   5.770
34128SOL     OW 4390   7.717   4.025   1.733
34128SOL    HW1 4391  29.879   3.980   1.718
34128SOL    HW2 4392   7.686   3.991   1.816
34129SOL     OW 4393   6.812   1.064   6.043
34129SOL    HW1 4394 -15.290   1.096   5.955
34129SOL    HW2 4395 -48.428 -10.061  -4.991
34130SOL     OW 4396   5.506   3.948   9.425
34130SOL    HW1 4397   5.501   3.852 -12.654
34130SOL    HW2 4398   5.486  26.052   9.515
34131SOL     OW 4399   3.869   8.839   4.428
34131SOL    HW1 4400   3.839   8.923   4.393
34131SOL    HW2 4401   3.880   8.783  26.430
34132SOL     OW 4402   6.224   2.249   5.611
34132SOL    HW1 4403  17.297   2.282  16.734
34132SOL    HW2 4404  -4.846   2.160  27.710
34133SOL     OW 4405   3.867   4.354   0.608
34133SOL    HW1 4406   3.839  -6.609  11.697
34133SOL    HW2 4407   3.860  -6.758  11.710
34134SOL     OW 4408   4.185  10.429   6.798
34134SOL    HW1 4409  -6.767  10.456   6.769
34134SOL    HW2 4410   4.165 -11.593  -4.168
34135SOL     OW 4411   4.709   0.434   9.043
34135SOL    HW1 4412  -6.337   0.443   9.138
34135SOL    HW2 4413  37.745   0.469  -2.030
34136SOL     OW 4414   9.421   4.703   3.511
34136SOL    HW1 4415   9.466   4.655  -7.597
34136SOL    HW2 4416   9.393   4.635 -18.506
34137SOL     OW 4417   3.642   1.505   9.141
34137SOL    HW1 4418   3.699   1.526   9.215
34137SOL    HW2 4419 -18.429   1.580   9.082
34138SOL     OW 4420   2.650   2.815   1.231
34138SOL    HW1 4421   2.728   2.869  23.323
34138SOL    HW2 4422   2.669  -8.306   1.277
34139SOL     OW 4423   1.374   4.113   4.005
34139SOL    HW1 4424   1.292  -6.917   4.052
34139SOL    HW2 4425   1.378   4.020   3.982
34140SOL     OW 4426   8.843   1.212   1.132
34140SOL    HW1 4427  19.821   1.266  -9.857
34140SOL    HW2 4428   8.926  12.263  12.217
34141SOL     OW 4429   2.849   8.217  10.066
34141SOL    HW1 4430  13.970  -2.797  10.023
34141SOL    HW2 4431   2.796   8.179 -12.084
34142SOL     OW 4432   9.767   9.649   4.699
34142SOL    HW1 4433   9.744   9.559   4.676
34142SOL    HW2 4434   9.743  -1.338   4.623
34143SOL     OW 4435   3.221   8.201   2.778
34143SOL    HW1 4436   3.276   8.178  13.742
34143SOL    HW2 4437   3.259  30.231   2.851
34144SOL     OW 4438   1.989   7.237   2.887
34144SOL    HW1 4439   1.988 -14.828   2.982
34144SOL    HW2 4440   2.081 -14.861  13.907
34145SOL     OW 4441   1.978  10.414   6.816
34145SOL    HW1 4442   2.040  21.472   6.745
34145SOL    HW2 4443  13.040  10.326   6.845
34146SOL     OW 4444   9.800   3.312   4.061
34146SOL    HW1 4445   9.740  25.463  15.084
34146SOL    HW2 4446   9.759   3.261  37.250
34147SOL     OW 4447   3.928   7.511   9.697
34147SOL    HW1 4448  -7.195   7.509   9.745
34147SOL    HW2 4449   3.977   7.583  -1.302
34148SOL     OW 4450   3.298   8.691   9.572
34148SOL    HW1 4451   3.299   8.626   9.641
34148SOL    HW2 4452   3.365   8.661 -12.569
34149SOL     OW 4453   6.405   8.118  11.034
34149SOL    HW1 4454   6.454   8.195  11.063
34149SOL    HW2 4455  -4.720   8.152 -11.072
34150SOL     OW 4456   1.820   6.279   3.975
34150SOL    HW1 4457 -20.237 -15.738  37.024
34150SOL    HW2 4458   1.880 -15.778  26.125
34151SOL     OW 4459   2.493   5.676   7.407
34151SOL    HW1 4460  13.627   5.658   7.403
34151SOL    HW2 4461  24.533   5.613   7.346
34152SOL     OW 4462   5.112   3.162   3.239
34152SOL    HW1 4463   5.029  -7.903  25.359
34152SOL    HW2 4464  -5.915   3.253  36.384
34153SOL     OW 4465   0.289   9.811   9.327
34153SOL    HW1 4466  11.355  20.942   9.318
34153SOL    HW2 4467   0.268   9.783   9.238
34154SOL     OW 4468   7.717   7.272   4.147
34154SOL    HW1 4469   7.633   7.255  -6.849
34154SOL    HW2 4470  -3.340   7.257   4.054
34155SOL     OW 4471   6.022   5.858   2.534
34155SOL    HW1 4472   5.940   5.850 -19.498
34155SOL    HW2 4473   6.006   5.927   2.469
34156SOL     OW 4474   6.170   9.051   1.128
34156SOL    HW1 4475   6.107   8.988   1.093
34156SOL    HW2 4476  28.335  -2.025   1.106
34157SOL     OW 4477   9.402   2.392   9.594
34157SOL    HW1 4478   9.485   2.346   9.602
34157SOL    HW2 4479   9.391  13.477   9.678
34158SOL     OW 4480   6.716  -1.250   8.327
34158SOL    HW1 4481   6.755  20.916 -24.786
34158SOL    HW2 4482  28.702   9.805   8.316
34159SOL     OW 4483   5.490   8.311   9.688
34159SOL    HW1 4484 -16.557 -46.857   9.773
34159SOL    HW2 4485   5.545   8.237   9.666
34160SOL     OW 4486   1.773   1.182   1.535
34160SOL    HW1 4487   1.819   1.162   1.454
34160SOL    HW2 4488   1.718   1.257   1.514
34161SOL     OW 4489  12.014   5.658   4.926
34161SOL    HW1 4490 -10.149   5.665  -6.158
34161SOL    HW2 4491 -21.096   5.564   4.946
34162SOL     OW 4492   3.429   1.364   8.220
34162SOL    HW1 4493   3.468   1.277   8.217
34162SOL    HW2 4494   3.369   1.366  -2.894
34163SOL     OW 4495   2.771   1.319   8.312
34163SOL    HW1 4496   2.782   1.253   8.244
34163SOL    HW2 4497   2.682   1.305   8.345
34164SOL     OW 4498   1.649   3.636   5.520
34164SOL    HW1 4499  -9.467  14.658   5.464
34164SOL    HW2 4500   1.659   3.557   5.573
34165SOL     OW 4501   1.474  10.927   2.594
34165SOL    HW1 4502  -9.533  10.914  -8.356
34165SOL    HW2 4503   1.547  10.969   2.548
34166SOL     OW 4504   8.627   4.973   7.634
34166SOL    HW1 4505  -2.508  38.095   7.636
34166SOL    HW2 4506   8.654   5.064   7.639
34167SOL     OW 4507   6.179   3.477   4.652
34167SOL    HW1 4508   6.142  47.651  15.778
34167SOL    HW2 4509  17.151  14.546  15.631
34168SOL     OW 4510   2.328   4.599   9.424
34168SOL    HW1 4511   2.238 -17.460 -34.762
34168SOL    HW2 4512   2.318  15.597   9.509
34169SOL     OW 4513   3.409   3.031  11.520
34169SOL    HW1 4514  14.485   2.990   0.560
34169SOL    HW2 4515   3.320  -8.043  11.514
34170SOL     OW 4516   8.007   4.650   9.005
34170SOL    HW1 4517   7.962  -6.392   8.921
34170SOL    HW2 4518   7.966   4.723   9.052
34171SOL     OW 4519   9.925  -0.901  10.400
34171SOL    HW1 4520   9.922  32.287 -22.784
34171SOL    HW2 4521   9.839  -0.898  -0.597
34172SOL     OW 4522   1.291  10.724   4.625
34172SOL    HW1 4523  -9.734  10.706   4.718
34172SOL    HW2 4524   1.295  -0.402   4.583
34173SOL     OW 4525   5.587   8.342   2.371
34173SOL    HW1 4526  16.537   8.348  -8.702
34173SOL    HW2 4527   5.608   8.248  13.405
34174SOL     OW 4528   7.276   3.462   8.850
34174SOL    HW1 4529   7.191   3.501   8.828
34174SOL    HW2 4530   7.307   3.426   8.767
34175SOL     OW 4531   5.945   0.509   2.978
34175SOL    HW1 4532   5.931   0.520  13.923
34175SOL    HW2 4533   5.858   0.489   3.013
34176SOL     OW 4534   9.210   7.112   2.859
34176SOL    HW1 4535   9.294   7.074   2.885
34176SOL    HW2 4536   9.146  18.111   2.918
34177SOL     OW 4537   4.351  11.788   6.419
34177SOL    HW1 4538 -17.668 -10.222   6.391
34177SOL    HW2 4539 -17.711  11.778   6.513
34178SOL     OW 4540   8.505   0.676  10.441
34178SOL    HW1 4541  -2.522 -10.328  10.353
34178SOL    HW2 4542   8.529   0.583  10.432
34179SOL     OW 4543   5.279   2.562  10.794
34179SOL    HW1 4544   5.342   2.606  10.738
34179SOL    HW2 4545  16.271  -8.536  10.735
34180SOL     OW 4546   7.151   3.909   6.566
34180SOL    HW1 4547   7.157   3.869  -4.561
34180SOL    HW2 4548   7.127   4.000 -15.530
34181SOL     OW 4549   8.435   7.520   0.490
34181SOL    HW1 4550   8.450  18.502  11.604
34181SOL    HW2 4551   8.477   7.603   0.515
34182SOL     OW 4552   5.496   2.784   8.557
34182SOL    HW1 4553   5.587   2.767   8.582
34182SOL    HW2 4554  16.506  -8.192   8.622
34183SOL     OW 4555   2.054   7.728   8.128
34183SOL    HW1 4556  -8.911 -14.379   8.077
34183SOL    HW2 4557   1.995   7.653   8.129
34184SOL     OW 4558   9.178   4.767   8.940
34184SOL    HW1 4559   9.090   4.733   8.954
34184SOL    HW2 4560   9.188   4.836  42.124
34185SOL     OW 4561   1.221  11.350   5.823
34185SOL    HW1 4562   1.205  22.321   5.888
34185SOL    HW2 4563   1.244 -10.776   5.743
34186SOL     OW 4564   1.587  10.312   7.538
34186SOL    HW1 4565   1.543  21.428   7.575
34186SOL    HW2 4566   1.516  10.251   7.517
34187SOL     OW 4567   1.534   0.912   9.723
34187SOL    HW1 4568   1.464  22.954   9.776
34187SOL    HW2 4569 -20.558   0.875   9.636
34188SOL     OW 4570   4.647  12.232   5.871
34188SOL    HW1 4571  26.792  -9.917 -16.206
34188SOL    HW2 4572   4.567  12.189 -16.179
34189SOL     OW 4573   5.254   8.870   1.453
34189SOL    HW1 4574   5.202   8.947   1.430
34189SOL    HW2 4575   5.259   8.819  23.452
34190SOL     OW 4576   6.389   5.413   9.653
34190SOL    HW1 4577   6.316   5.354   9.674
34190SOL    HW2 4578   6.362   5.498   9.689
34191SOL     OW 4579   1.356   3.309   8.695
34191SOL    HW1 4580  23.360   3.312   8.635
34191SOL    HW2 4581   1.321  14.308   8.774
34192SOL     OW 4582   8.742   2.287   0.269
34192SOL    HW1 4583  19.850  35.452   0.317
34192SOL    HW2 4584  30.740   2.325   0.302
34193SOL     OW 4585   2.762   0.850   2.607
34193SOL    HW1 4586   2.682   0.902 -19.467
34193SOL    HW2 4587   2.829   0.913  -8.461
34194SOL     OW 4588  10.398   6.359   0.521
34194SOL    HW1 4589  10.417  -4.751   0.582
34194SOL    HW2 4590  10.461 -15.652   0.542
34195SOL     OW 4591   1.056   2.346   2.949
34195SOL    HW1 4592   1.002   2.311   2.879
34195SOL    HW2 4593   1.146  35.458   2.916
34196SOL     OW 4594   0.411   0.254   6.570
34196SOL    HW1 4595   0.333   0.277 -15.460
34196SOL    HW2 4596   0.378   0.212  -4.549
34197SOL     OW 4597   5.031  -1.544   4.381
34197SOL    HW1 4598   5.099   9.519  15.357
34197SOL    HW2 4599   5.031  42.687   4.444
34198SOL     OW 4600   9.620   3.885   5.245
34198SOL    HW1 4601   9.552  14.940   5.180
34198SOL    HW2 4602 -23.453  14.846   5.214
34199SOL     OW 4603   7.658   2.050   7.180
34199SOL    HW1 4604   7.580   2.017   7.135
34199SOL    HW2 4605  -3.415   2.103  -3.788
34200SOL     OW 4606  11.747   8.209   7.044
34200SOL    HW1 4607 -10.241   8.223   7.021
34200SOL    HW2 4608  11.707   8.172   6.965
34201SOL     OW 4609   7.453   7.351   5.199
34201SOL    HW1 4610   7.371   7.345   5.149
34201SOL    HW2 4611  18.493   7.440 -27.884
34202SOL     OW 4612  -0.478   8.857   4.973
34202SOL    HW1 4613  -0.547  30.975   5.028
34202SOL    HW2 4614  10.515   8.804   4.909
34203SOL     OW 4615   9.531   6.754   3.037
34203SOL    HW1 4616  20.582  -4.283   3.132
34203SOL    HW2 4617  20.554  17.701   3.018
34204SOL     OW 4618   8.823   4.464   5.098
34204SOL    HW1 4619   8.890  15.565  -5.972
34204SOL    HW2 4620   8.873   4.388   5.129
34205SOL     OW 4621   1.479   9.731   4.466
34205SOL    HW1 4622  12.472   9.811   4.486
34205SOL    HW2 4623  12.450   9.665   4.452
34206SOL     OW 4624   7.255   3.477   0.740
34206SOL    HW1 4625  -3.740  25.640 -10.312
34206SOL    HW2 4626 -36.978  14.537   0.796
34207SOL     OW 4627   5.214   3.223   7.095
34207SOL    HW1 4628  16.331   3.246   7.043
34207SOL    HW2 4629   5.166   3.161  29.120
34208SOL     OW 4630   6.646   6.663   3.696
34208SOL    HW1 4631  28.725  17.783   3.644
34208SOL    HW2 4632  17.747  -4.358   3.768
34209SOL     OW 4633   7.145   0.207   0.298
34209SOL    HW1 4634   7.118   0.178   0.211
34209SOL    HW2 4635   7.181   0.128  11.379
34210SOL     OW 4636   2.355   1.776   9.175
34210SOL    HW1 4637   2.393   1.826   9.103
34210SOL    HW2 4638   2.317   1.842   9.233
34211SOL     OW 4639   7.042   7.979   1.819
34211SOL    HW1 4640   7.133  30.088   1.817
34211SOL    HW2 4641   6.991  19.097   1.838
34212SOL     OW 4642   6.155   1.934   2.227
34212SOL    HW1 4643  -4.930   1.880  -8.747
34212SOL    HW2 4644   6.191   2.007   2.277
34213SOL     OW 4645   8.683   5.468   8.040
34213SOL    HW1 4646   8.589   5.471   8.019
34213SOL    HW2 4647   8.689   5.407   8.113
34214SOL     OW 4648   3.242   4.725   2.668
34214SOL    HW1 4649   3.325   4.680   2.680
34214SOL    HW2 4650 -18.824  -6.229 -19.368
34215SOL     OW 4651   9.731   8.808   7.296
34215SOL    HW1 4652  -1.302   8.753   7.374
34215SOL    HW2 4653  20.817   8.759   7.228
34216SOL     OW 4654   7.168   2.407   7.251
34216SOL    HW1 4655  -3.841   2.406   7.161
34216SOL    HW2 4656   7.209   2.485  -3.750
34217SOL     OW 4657   2.331   8.491   1.684
34217SOL    HW1 4658   2.336 -13.546   1.598
34217SOL    HW2 4659  -8.793 -13.561   1.719
34218SOL     OW 4660   8.426   5.550   2.574
34218SOL    HW1 4661  -2.688  -5.536   2.612
34218SOL    HW2 4662   8.494  27.626   2.641
34219SOL     OW 4663   9.302   6.719   8.624
34219SOL    HW1 4664  -1.800   6.771   8.575
34219SOL    HW2 4665   9.372   6.780   8.647
34220SOL     OW 4666   0.765  10.925   7.645
34220SOL    HW1 4667  11.771  10.971   7.568
34220SOL    HW2 4668   0.854  10.959   7.656
34221SOL     OW 4669   0.046   3.723  10.005
34221SOL    HW1 4670   0.099   3.645   9.988
34221SOL    HW2 4671   0.014   3.711  10.094
34222SOL     OW 4672   8.875   7.519   3.344
34222SOL    HW1 4673   8.964   7.514  -7.731
34222SOL    HW2 4674   8.849   7.428   3.358
34223SOL     OW 4675   1.775   1.765  10.997
34223SOL    HW1 4676   1.865   1.734  11.011
34223SOL    HW2 4677 -20.357   1.685  10.994
34224SOL     OW 4678  10.988   9.684   9.251
34224SOL    HW1 4679  -0.033  20.771   9.170
34224SOL    HW2 4680  10.893   9.679   9.255
34225SOL     OW 4681  10.235   7.096   0.667
34225SOL    HW1 4682  -0.825   7.115   0.759
34225SOL    HW2 4683  -0.877  18.175   0.618
34226SOL     OW 4684   2.480   3.647   0.951
34226SOL    HW1 4685   2.560 -18.482   0.937
34226SOL    HW2 4686   2.430   3.595   1.014
34227SOL     OW 4687   2.350   1.152  12.158
34227SOL    HW1 4688   2.439   1.158  -9.958
34227SOL    HW2 4689   2.363   1.139  12.252
34228SOL     OW 4690   5.572  11.539   9.804
34228SOL    HW1 4691   5.561 -21.604  -1.328
34228SOL    HW2 4692   5.630  11.472   9.839
34229SOL     OW 4693   2.431   8.564   5.018
34229SOL    HW1 4694   2.439  19.651  -5.939
34229SOL    HW2 4695 -19.742   8.562   5.001
34230SOL     OW 4696   5.408   1.007   4.951
34230SOL    HW1 4697   5.342   1.011   5.020
34230SOL    HW2 4698   5.361   0.975   4.874
34231SOL     OW 4699   8.000   5.229   2.215
34231SOL    HW1 4700   8.011   5.234   2.310
34231SOL    HW2 4701   8.089  -5.818   2.181
34232SOL     OW 4702   2.460  10.486   1.467
34232SOL    HW1 4703   2.479  -0.600   1.549
34232SOL    HW2 4704   2.501  10.572   1.478
34233SOL     OW 4705   5.608   2.602  10.169
34233SOL    HW1 4706  16.581   2.611  10.101
34233SOL    HW2 4707  27.732   2.686  10.170
34234SOL     OW 4708   6.775   3.461   1.587
34234SOL    HW1 4709   6.813  25.576  34.625
34234SOL    HW2 4710   6.694  36.629   1.599
34235SOL     OW 4711   0.456   2.152   0.051
34235SOL    HW1 4712  11.563   2.095   0.014
34235SOL    HW2 4713   0.417   2.101  11.161
34236SOL     OW 4714  10.821   5.524   4.862
34236SOL    HW1 4715  -0.261  27.522  15.929
34236SOL    HW2 4716  10.785   5.543   4.776
34237SOL     OW 4717   5.198   8.715   7.730
34237SOL    HW1 4718   5.283   8.708   7.688
34237SOL    HW2 4719   5.202   8.796  -3.259
34238SOL     OW 4720   0.142   4.893   6.684
34238SOL    HW1 4721  11.155   4.985   6.680
34238SOL    HW2 4722   0.229  26.974   6.725
34239SOL     OW 4723   3.575   8.281   0.802
34239SOL    HW1 4724   3.662  -2.738   0.835
34239SOL    HW2 4725  -7.517   8.358   0.822
34240SOL     OW 4726   2.178   5.332   7.418
34240SOL    HW1 4727   2.124   5.302  29.424
34240SOL    HW2 4728   2.142   5.286  29.574
34241SOL     OW 4729   4.624   2.641   5.924
34241SOL    HW1 4730   4.651   2.577   5.858
34241SOL    HW2 4731   4.565   2.701   5.877
34242SOL     OW 4732   4.226   9.780   1.596
34242SOL    HW1 4733   4.257   9.858   1.551
34242SOL    HW2 4734   4.306  20.769   1.614
34243SOL     OW 4735   7.657   2.575   7.509
34243SOL    HW1 4736   7.660  24.740  18.507
34243SOL    HW2 4737  18.731   2.590  -3.442
34244SOL     OW 4738   4.899   0.296   5.152
34244SOL    HW1 4739  -6.221   0.344   5.132
34244SOL    HW2 4740  26.985  11.270   5.083
34245SOL     OW 4741   7.875   2.829   0.648
34245SOL    HW1 4742   7.886  -8.162   0.566
34245SOL    HW2 4743   7.920   2.882   0.713
34246SOL     OW 4744   7.311   1.583   5.787
34246SOL    HW1 4745   7.321   1.553   5.877
34246SOL    HW2 4746  18.418  -9.502  -5.301
34247SOL     OW 4747  -1.265  -0.992   4.143
34247SOL    HW1 4748   9.750  21.108   4.233
34247SOL    HW2 4749  20.791  10.126   4.093
34248SOL     OW 4750   0.008   5.945   0.527
34248SOL    HW1 4751  -0.008   5.984  33.560
34248SOL    HW2 4752  -0.073   5.962   0.576
34249SOL     OW 4753   1.698   3.018   0.506
34249SOL    HW1 4754   1.778  14.026   0.465
34249SOL    HW2 4755   1.656   3.072  11.479
34250SOL     OW 4756   6.000   8.391   2.917
34250SOL    HW1 4757   6.085   8.354   2.942
34250SOL    HW2 4758  17.061   8.458   2.852
34251SOL     OW 4759   2.444   6.465  10.483
34251SOL    HW1 4760   2.414  17.586  32.523
34251SOL    HW2 4761   2.536   6.481 -11.574
34252SOL     OW 4762   6.926   3.735   5.210
34252SOL    HW1 4763   6.888 -18.345 -16.957
34252SOL    HW2 4764  17.906   3.790 -16.818
34253SOL     OW 4765   3.715   3.117   7.469
34253SOL    HW1 4766   3.724   3.030  -3.610
34253SOL    HW2 4767  -7.326  -7.863   7.394
34254SOL     OW 4768   1.837   6.715   0.782
34254SOL    HW1 4769   1.742  -4.317  11.811
34254SOL    HW2 4770  46.025   6.804   0.798
34255SOL     OW 4771   5.227   1.605   1.388
34255SOL    HW1 4772   5.147   1.653   1.408
34255SOL    HW2 4773   5.281   1.667  12.378
34256SOL     OW 4774   8.759   7.857   1.632
34256SOL    HW1 4775   8.847   7.887 -20.424
34256SOL    HW2 4776  30.818  -3.251   1.696
34257SOL     OW 4777   2.865   2.198   0.115
34257SOL    HW1 4778   2.871  -8.883   0.030
34257SOL    HW2 4779   2.856   2.125  11.216
34258SOL     OW 4780   2.573   9.212   7.426
34258SOL    HW1 4781   2.542   9.274   7.493
34258SOL    HW2 4782   2.620  20.185   7.476
34259SOL     OW 4783   9.028  10.104   0.168
34259SOL    HW1 4784   9.037 -11.936   0.255
34259SOL    HW2 4785   9.083  -1.013   0.170
34260SOL     OW 4786   9.272   3.475   3.676
34260SOL    HW1 4787 -45.912   3.454  14.623
34260SOL    HW2 4788   9.360   3.484   3.712
34261SOL     OW 4789   2.953   3.410   9.300
34261SOL    HW1 4790   2.997  25.443   9.372
34261SOL    HW2 4791  14.062   3.425   9.236
34262SOL     OW 4792   9.838   5.678  11.147
34262SOL    HW1 4793  -1.187   5.767   0.076
34262SOL    HW2 4794   9.895   5.624   0.053
34263SOL     OW 4795   1.355  -0.297   1.924
34263SOL    HW1 4796   1.413  32.793   1.854
34263SOL    HW2 4797  -9.767  -0.342 -20.173
34264SOL     OW 4798   7.797   8.104   0.914
34264SOL    HW1 4799  18.741   8.113   0.907
34264SOL    HW2 4800   7.823   8.058   0.835
34265SOL     OW 4801   9.264   5.492   3.497
34265SOL    HW1 4802  -1.859 -16.553  14.507
34265SOL    HW2 4803  31.333   5.397 -29.623
34266SOL     OW 4804   0.546   7.386   4.200
34266SOL    HW1 4805 -21.439 -36.764   4.185
34266SOL    HW2 4806  22.585   7.403   4.115
34267SOL     OW 4807   3.406   3.904   0.645
34267SOL    HW1 4808   3.389  25.896   0.679
34267SOL    HW2 4809   3.470  25.969   0.575
34268SOL     OW 4810  10.224   5.861   7.810
34268SOL    HW1 4811  10.183   5.937   7.769
34268SOL    HW2 4812  10.256  16.934 -14.185
34269SOL     OW 4813   1.127  -0.971   4.922
34269SOL    HW1 4814   1.167  10.150   4.954
34269SOL    HW2 4815   1.113  10.016   5.000
34270SOL     OW 4816   0.895   7.916   8.798
34270SOL    HW1 4817 -10.219 -14.113   8.832
34270SOL    HW2 4818   0.969 -14.136   8.852
34271SOL     OW 4819   0.100   2.960   4.312
34271SOL    HW1 4820  11.161   3.048   4.280
34271SOL    HW2 4821   0.182   2.927  15.387
34272SOL     OW 4822   4.469   7.736   6.366
34272SOL    HW1 4823   4.500   7.723   6.456
34272SOL    HW2 4824  -6.525   7.670  -4.725
34273SOL     OW 4825   7.525   2.907   8.388
34273SOL    HW1 4826   7.495  14.037   8.381
34273SOL    HW2 4827   7.584 -30.224   8.314
34274SOL     OW 4828   0.101   9.095   8.723
34274SOL    HW1 4829   0.109   9.190   8.725
34274SOL    HW2 4830   0.009  20.119  19.742
34275SOL     OW 4831   8.737   8.093   5.232
34275SOL    HW1 4832 -13.424   8.131   5.263
34275SOL    HW2 4833   8.729   7.999   5.250
34276SOL     OW 4834  11.264   6.125   7.726
34276SOL    HW1 4835   0.191   6.080   7.803
34276SOL    HW2 4836  11.190   6.127  18.704
34277SOL     OW 4837   2.011   4.661   8.655
34277SOL    HW1 4838   1.965  15.616   8.650
34277SOL    HW2 4839  -9.099  15.766   8.657
34278SOL     OW 4840   6.204   3.564   0.130
34278SOL    HW1 4841  17.305   3.491   0.140
34278SOL    HW2 4842   6.155   3.566   0.212
34279SOL     OW 4843   2.450   6.116  -2.912
34279SOL    HW1 4844   2.486  39.240  30.295
34279SOL    HW2 4845  35.524   6.031  41.244
34280SOL     OW 4846   8.806   3.772   7.227
34280SOL    HW1 4847   8.790  -7.297   7.138
34280SOL    HW2 4848   8.873   3.712   7.260
34281SOL     OW 4849   9.274   5.242   3.565
34281SOL    HW1 4850  31.446  27.302 -18.506
34281SOL    HW2 4851   9.245   5.258   3.655
34282SOL     OW 4852   2.993   3.823   2.407
34282SOL    HW1 4853   2.962  -7.283  13.386
34282SOL    HW2 4854   2.989   3.905   2.358
34283SOL     OW 4855   8.463   3.108   9.012
34283SOL    HW1 4856   8.538   3.158  -1.996
34283SOL    HW2 4857   8.403   3.106  20.127
34284SOL     OW 4858   9.938   9.586   7.704
34284SOL    HW1 4859   9.920   9.498   7.670
34284SOL    HW2 4860   9.886   9.591   7.784
34285SOL     OW 4861   2.745   8.924   4.862
34285SOL    HW1 4862   2.747  -2.211   4.856
34285SOL    HW2 4863   2.681   8.942   4.930
34286SOL     OW 4864   2.787   1.047   6.949
34286SOL    HW1 4865   2.756  12.095   6.859
34286SOL    HW2 4866 -19.288   1.137   6.982
34287SOL     OW 4867   2.741   7.933   2.780
34287SOL    HW1 4868   2.797  18.959   2.856
34287SOL    HW2 4869  -8.266  30.094   2.741
34288SOL     OW 4870   3.465  -0.736   1.926
34288SOL    HW1 4871   3.531  21.285  23.968
34288SOL    HW2 4872  36.524  10.323   1.853
34289SOL     OW 4873   1.500   0.142   3.329
34289SOL    HW1 4874  -9.553  11.206   3.237
34289SOL    HW2 4875   1.594   0.151   3.342
34290SOL     OW 4876   0.093   1.537   2.699
34290SOL    HW1 4877   0.002   1.555   2.725
34290SOL    HW2 4878   0.086   1.474   2.628
34291SOL     OW 4879   4.358  10.228   9.205
34291SOL    HW1 4880   4.303  -0.759   9.147
34291SOL    HW2 4881   4.297  10.181  -1.779
34292SOL     OW 4882   6.835  10.512   5.770
34292SOL    HW1 4883   6.866  10.485  16.896
34292SOL    HW2 4884   6.790 -11.644   5.735
34293SOL     OW 4885   5.929   8.576   0.897
34293SOL    HW1 4886   5.982  30.690   0.968
34293SOL    HW2 4887   5.979   8.500   0.865
34294SOL     OW 4888   5.325   4.687   2.360
34294SOL    HW1 4889   5.273 -17.360  -8.607
34294SOL    HW2 4890   5.261 -17.408  -8.749
34295SOL     OW 4891   8.314   0.196  10.801
34295SOL    HW1 4892  -2.646  11.230  10.748
34295SOL    HW2 4893  -2.793   0.155 -22.372
34296SOL     OW 4894   0.946   8.430  10.804
34296SOL    HW1 4895   1.003  -2.533  10.808
34296SOL    HW2 4896   0.858   8.466  10.801
34297SOL     OW 4897   6.471   5.873   7.896
34297SOL    HW1 4898   6.424   5.824  18.868
34297SOL    HW2 4899   6.535  16.964   7.847
34298SOL     OW 4900   4.762   9.579   1.275
34298SOL    HW1 4901  15.799 -23.543   1.180
34298SOL    HW2 4902   4.778   9.488   1.302
34299SOL     OW 4903   8.783   1.413   3.924
34299SOL    HW1 4904   8.785  -9.534   3.900
34299SOL    HW2 4905   8.839  -9.670   3.859
34300SOL     OW 4906  11.943   0.930   5.772
34300SOL    HW1 4907  11.916   0.844 -16.274
34300SOL    HW2 4908 -10.129   0.985   5.850
34301SOL     OW 4909   6.094   3.282   8.236
34301SOL    HW1 4910 -15.960  14.366 -13.925
34301SOL    HW2 4911   6.167   3.298   8.295
34302SOL     OW 4912   7.500   4.787   7.097
34302SOL    HW1 4913   7.459   4.787  18.223
34302SOL    HW2 4914  29.662   4.833   7.109
34303SOL     OW 4915   4.086   1.088   0.673
34303SOL    HW1 4916   4.094   0.996   0.647
34303SOL    HW2 4917  15.042   1.117   0.637
34304SOL     OW 4918   3.078   7.766   1.272
34304SOL    HW1 4919   3.047   7.723  -9.847
34304SOL    HW2 4920   3.170   7.742   1.279
34305SOL     OW 4921  -0.522   9.183   4.967
34305SOL    HW1 4922  21.503   9.135  -6.010
34305SOL    HW2 4923  -0.444   9.129   4.956
34306SOL     OW 4924   9.402   4.947   9.268
34306SOL    HW1 4925   9.437   4.993  -1.848
34306SOL    HW2 4926   9.341   5.010   9.307
34307SOL     OW 4927   3.260  10.400  12.137
34307SOL    HW1 4928   3.257  10.319 -21.033
34307SOL    HW2 4929   3.233  21.508  12.076
34308SOL     OW 4930   9.386   4.362   5.302
34308SOL    HW1 4931   9.429   4.281   5.329
34308SOL    HW2 4932   9.343   4.393   5.381
34309SOL     OW 4933   7.607   1.691   6.799
34309SOL    HW1 4934   7.589   1.782   6.823
34309SOL    HW2 4935  40.728  12.684   6.883
34310SOL     OW 4936   1.570  12.763   8.861
34310SOL    HW1 4937  12.583 -20.312   8.780
34310SOL    HW2 4938   1.546   1.786  19.969
34311SOL     OW 4939   1.166   1.392   6.893
34311SOL    HW1 4940   1.180  12.338   6.903
34311SOL    HW2 4941   1.085   1.410   6.940
34312SOL     OW 4942   9.039   4.260   8.592
34312SOL    HW1 4943   8.955 -17.831   8.637
34312SOL    HW2 4944   9.027   4.339   8.541
34313SOL     OW 4945  11.313   6.441   8.510
34313SOL    HW1 4946 -21.891  17.501   8.473
34313SOL    HW2 4947  11.333   6.353  19.519
34314SOL     OW 4948   6.669   6.450   7.255
34314SOL    HW1 4949   6.625   6.432 -14.907
34314SOL    HW2 4950   6.739  -4.655  -3.780
34315SOL     OW 4951   5.737   8.807   5.302
34315SOL    HW1 4952   5.791   8.732   5.276
34315SOL    HW2 4953   5.798 -13.198   5.303
34316SOL     OW 4954   5.144   2.570   8.320
34316SOL    HW1 4955   5.126   2.510   8.248
34316SOL    HW2 4956   5.121   2.522  19.439
34317SOL     OW 4957   8.957   2.884   8.836
34317SOL    HW1 4958   8.902   2.911   8.910
34317SOL    HW2 4959   8.954  -8.082   8.775
34318SOL     OW 4960   5.708   4.003   8.133
34318SOL    HW1 4961  27.876 -29.109   8.098
34318SOL    HW2 4962   5.663   4.081  19.141
34319SOL     OW 4963   5.003   1.795   3.496
34319SOL    HW1 4964   5.029  23.802   3.438
34319SOL    HW2 4965   4.910   1.782  -7.529
34320SOL     OW 4966   7.861   8.318   5.276
34320SOL    HW1 4967   7.888  30.341   5.348
34320SOL    HW2 4968   7.842  19.297   5.204
34321SOL     OW 4969   5.014  11.869   8.461
34321SOL    HW1 4970   4.931   0.783   8.453
34321SOL    HW2 4971   5.005   0.879   8.543
34322SOL     OW 4972   8.256   8.705   2.711
34322SOL    HW1 4973   8.173 -13.421   2.711
34322SOL    HW2 4974   8.241  -2.259   2.653
34323SOL     OW 4975   9.542   2.168   0.249
34323SOL    HW1 4976  20.545   2.164  11.376
34323SOL    HW2 4977   9.570  -8.780   0.239
34324SOL     OW 4978   2.172   2.679   3.401
34324SOL    HW1 4979   2.263  -8.334   3.418
34324SOL    HW2 4980 -19.960  -8.287   3.432
34325SOL     OW 4981   7.098   1.601   3.313
34325SOL    HW1 4982   7.119  -9.516   3.261
34325SOL    HW2 4983  18.168  -9.365   3.259
34326SOL     OW 4984   7.591   7.812   8.771
34326SOL    HW1 4985   7.500   7.832  19.832
34326SOL    HW2 4986   7.640   7.890   8.796
34327SOL     OW 4987   5.587   2.093   6.761
34327SOL    HW1 4988   5.545   2.011   6.735
34327SOL    HW2 4989  -5.385  -8.933 -15.384
34328SOL     OW 4990   9.115   5.012   2.347
34328SOL    HW1 4991  31.152   5.052   2.423
34328SOL    HW2 4992  20.091   4.947  13.356
34329SOL     OW 4993   1.378   0.523   9.870
34329SOL    HW1 4994   1.300   0.569   9.838
34329SOL    HW2 4995   1.374  11.476   9.830
34330SOL     OW 4996   5.520  10.840   5.919
34330SOL    HW1 4997   5.588  10.904   5.943
34330SOL    HW2 4998   5.440  10.874   5.960
34331SOL     OW 4999   3.715   5.059   3.695
34331SOL    HW1 5000  -7.338  16.126  -7.253
34331SOL    HW2 5001   3.770   5.127   3.658
34332SOL     OW 5002  10.443   6.967   8.666
34332SOL    HW1 5003  10.539   6.957   8.664
34332SOL    HW2 5004  10.416   6.958   8.575
34333SOL     OW 5005   4.419   0.016   1.609
34333SOL    HW1 5006   4.374  -0.055  12.604
34333SOL    HW2 5007   4.447  -0.021  45.851
34334SOL     OW 5008   2.897   5.814   9.864
34334SOL    HW1 5009 -19.207  39.025 -23.263
34334SOL    HW2 5010   2.851   5.784  -1.097
34335SOL     OW 5011   1.104   3.907   2.615
34335SOL    HW1 5012   1.055   3.964  24.636
34335SOL    HW2 5013   1.077 -18.261   2.589
34336SOL     OW 5014  10.322  13.399   0.641
34336SOL    HW1 5015 -22.831 -19.706   0.729
34336SOL    HW2 5016  10.363 -41.715   0.618
34337SOL     OW 5017   4.582   6.970  11.863
34337SOL    HW1 5018   4.602 -15.085 -10.126
34337SOL    HW2 5019   4.487   6.979 -10.223
34338SOL     OW 5020   5.976  10.734   5.744
34338SOL    HW1 5021  17.045  10.642   5.745
34338SOL    HW2 5022   5.902  10.734   5.683
34339SOL     OW 5023  10.076   4.083  10.913
34339SOL    HW1 5024  10.088   4.166  10.958
34339SOL    HW2 5025  10.085  -7.023  10.981
34340SOL     OW 5026   7.861   8.864   8.738
34340SOL    HW1 5027  29.866   8.805  30.827
34340SOL    HW2 5028  18.874   8.944  19.823
34341SOL     OW 5029   3.781   2.742   4.843
34341SOL    HW1 5030  -7.351  -8.322  -6.196
34341SOL    HW2 5031   3.787   2.816   4.903
34342SOL     OW 5032  10.412   6.328   5.322
34342SOL    HW1 5033  -0.554   6.275   5.352
34342SOL    HW2 5034  10.362   6.346   5.402
34343SOL     OW 5035   2.457   8.653   9.941
34343SOL    HW1 5036   2.366   8.679  -1.088
34343SOL    HW2 5037   2.459  19.600   9.968
34344SOL     OW 5038   9.524   2.038  10.950
34344SOL    HW1 5039   9.497  13.157 -11.084
34344SOL    HW2 5040   9.477  13.080  10.867
34345SOL     OW 5041   6.618   1.311   2.158
34345SOL    HW1 5042  17.640   1.308   2.064
34345SOL    HW2 5043   6.554  12.290   2.197
34346SOL     OW 5044   2.135   5.775   2.574
34346SOL    HW1 5045  -8.951  38.909  13.696
34346SOL    HW2 5046  -8.929  38.968  13.558
34347SOL     OW 5047   5.619   7.105   0.779
34347SOL    HW1 5048   5.579   7.062   0.855
34347SOL    HW2 5049 -27.475   7.033   0.721
34348SOL     OW 5050   2.333   3.441   0.233
34348SOL    HW1 5051  13.464  14.504   0.249
34348SOL    HW2 5052   2.317   3.366   0.290
34349SOL     OW 5053   9.058   4.655   7.970
34349SOL    HW1 5054  20.186   4.618  19.001
34349SOL    HW2 5055   9.047   4.667  19.104
34350SOL     OW 5056   5.130   0.050  12.036
34350SOL    HW1 5057   5.170   0.033  12.121
34350SOL    HW2 5058   5.193   0.015 -21.146
34351SOL     OW 5059   7.975   3.453   6.877
34351SOL    HW1 5060 -36.198   3.375   6.931
34351SOL    HW2 5061   8.022   3.420 -37.358
34352SOL     OW 5062   0.346   7.973   3.412
34352SOL    HW1 5063   0.431   7.974   3.456
34352SOL    HW2 5064   0.282   7.992   3.482
34353SOL     OW 5065   1.846   9.305   5.663
34353SOL    HW1 5066  12.855   9.265  -5.457
34353SOL    HW2 5067   1.920   9.359 -16.442
34354SOL     OW 5068   7.520   4.314   7.687
34354SOL    HW1 5069   7.510   4.247  18.659
34354SOL    HW2 5070   7.433   4.355   7.693
34355SOL     OW 5071   8.226   8.960   3.561
34355SOL    HW1 5072   8.190   8.892   3.504
34355SOL    HW2 5073   8.304   8.920  14.640
34356SOL     OW 5074   9.743   1.418   4.679
34356SOL    HW1 5075   9.786   1.387  15.798
34356SOL    HW2 5076   9.814  12.466  -6.424
34357SOL     OW 5077  10.261  10.932   5.477
34357SOL    HW1 5078  10.231  10.995  -5.628
34357SOL    HW2 5079  21.342  10.985   5.545
34358SOL     OW 5080   2.976   1.939   6.429
34358SOL    HW1 5081  -8.155   1.916  28.527
34358SOL    HW2 5082  14.059   1.855  50.574
34359SOL     OW 5083   6.156   0.633   6.849
34359SOL    HW1 5084   6.116   0.548   6.867
34359SOL    HW2 5085   6.213   0.649   6.925
34360SOL     OW 5086   1.503   5.864   0.932
34360SOL    HW1 5087   1.473  -5.136   0.851
34360SOL    HW2 5088   1.428   5.872   0.992
34361SOL     OW 5089   8.973  11.627  11.817
34361SOL    HW1 5090  19.976  11.638 -10.174
34361SOL    HW2 5091   8.956   0.671  11.774
34362SOL     OW 5092   1.928   1.603   4.319
34362SOL    HW1 5093  13.001   1.623   4.407
34362SOL    HW2 5094  13.022   1.655   4.260
34363SOL     OW 5095   4.739   0.798   8.344
34363SOL    HW1 5096   4.747   0.720  -2.641
34363SOL    HW2 5097   4.738   0.766  19.294
34364SOL     OW 5098   9.271   0.817   6.500
34364SOL    HW1 5099   9.221   0.747  17.496
34364SOL    HW2 5100   9.255  22.882   6.593
34365SOL     OW 5101   7.520  10.724   9.150
34365SOL    HW1 5102   7.479  10.743 -35.093
34365SOL    HW2 5103   7.602  10.679   9.128
34366SOL     OW 5104   3.647   8.138   5.328
34366SOL    HW1 5105  -7.326   8.105   5.268
34366SOL    HW2 5106   3.607   8.212   5.281
34367SOL     OW 5107   4.768   3.287   1.341
34367SOL    HW1 5108   4.758   3.346   1.266
34367SOL    HW2 5109   4.831  14.260  12.351
34368SOL     OW 5110   5.614   9.241  10.546
34368SOL    HW1 5111  -5.438   9.336  -0.496
34368SOL    HW2 5112   5.549  -1.830  10.609
34369SOL     OW 5113   6.855   5.087   1.682
34369SOL    HW1 5114  28.943  16.221   1.690
34369SOL    HW2 5115   6.907  16.091   1.754
34370SOL     OW 5116   2.715  10.579   9.732
34370SOL    HW1 5117   2.773  10.602   9.804
34370SOL    HW2 5118  13.667  10.604   9.763
34371SOL     OW 5119   9.126  11.960   6.994
34371SOL    HW1 5120   9.043  11.957   7.041
34371SOL    HW2 5121   9.176 -21.089   7.037
34372SOL     OW 5122   6.281   2.069   6.862
34372SOL    HW1 5123  17.299  13.061   6.942
34372SOL    HW2 5124  -4.831  13.171   6.852
34373SOL     OW 5125   4.060   8.234   7.763
34373SOL    HW1 5126   4.095  19.221  -3.349
34373SOL    HW2 5127   4.013   8.306   7.721
34374SOL     OW 5128   7.194   5.688  10.678
34374SOL    HW1 5129   7.171  -5.423  10.619
34374SOL    HW2 5130  40.264   5.764  10.646
34375SOL     OW 5131   3.433   8.222   4.171
34375SOL    HW1 5132 -18.646   8.141   4.223
34375SOL    HW2 5133  14.411   8.204   4.099
34376SOL     OW 5134   7.057   5.890   9.954
34376SOL    HW1 5135   7.085   5.837   9.880
34376SOL    HW2 5136  -3.933   5.854  10.029
34377SOL     OW 5137  11.693   3.915   6.789
34377SOL    HW1 5138 -10.429   3.969  -4.183
34377SOL    HW2 5139  11.622  -7.177   6.752
34378SOL     OW 5140   3.830   5.543   4.688
34378SOL    HW1 5141   3.836   5.632   4.652
34378SOL    HW2 5142   3.737   5.520   4.680
34379SOL     OW 5143   2.519   1.946   4.290
34379SOL    HW1 5144  13.485   1.996   4.256
34379SOL    HW2 5145   2.506  12.984   4.385
34380SOL     OW 5146   5.917   9.951   7.159
34380SOL    HW1 5147   5.900  20.934 -14.996
34380SOL    HW2 5148   5.971  10.022   7.124
34381SOL     OW 5149   3.868   4.396   4.177
34381SOL    HW1 5150   3.956   4.432   4.169
34381SOL    HW2 5151  -7.206   4.435   4.258
34382SOL     OW 5152   4.495  10.145   3.825
34382SOL    HW1 5153 -17.586  10.218   3.764
34382SOL    HW2 5154   4.546  10.177 -18.179
34383SOL     OW 5155   9.023  10.548   6.680
34383SOL    HW1 5156  -2.099  10.536   6.633
34383SOL    HW2 5157   9.089 -11.572   6.624
34384SOL     OW 5158   4.860   1.832   8.184
34384SOL    HW1 5159  15.923   1.765   8.119
34384SOL    HW2 5160   4.889  12.954   8.145
34385SOL     OW 5161   1.833  11.078   0.643
34385SOL    HW1 5162  -9.171  11.020  11.615
34385SOL    HW2 5163   1.890   0.024  11.758
34386SOL     OW 5164  11.546   4.992  -1.105
34386SOL    HW1 5165 -10.467 -17.147  -1.070
34386SOL    HW2 5166  11.574   5.079  21.002
34387SOL     OW 5167   7.326   8.589   7.504
34387SOL    HW1 5168   7.351  -2.372  18.496
34387SOL    HW2 5169  18.322   8.534   7.438
34388SOL     OW 5170   3.236   8.158   8.284
34388SOL    HW1 5171   3.249 -13.830   8.310
34388SOL    HW2 5172   3.177  -2.917  19.390
34389SOL     OW 5173   4.327   6.646   5.482
34389SOL    HW1 5174  15.284   6.681  -5.592
34389SOL    HW2 5175   4.308   6.555  16.541
34390SOL     OW 5176   6.431   4.978   1.253
34390SOL    HW1 5177   6.447   5.068   1.224
34390SOL    HW2 5178  -4.704  -6.068   1.255
34391SOL     OW 5179   5.587   7.630   0.783
34391SOL    HW1 5180   5.493  -3.423   0.769
34391SOL    HW2 5181  16.631   7.701   0.847
34392SOL     OW 5182   9.430   2.628   4.917
34392SOL    HW1 5183  20.504  13.676   5.006
34392SOL    HW2 5184   9.360  24.643  27.004
34393SOL     OW 5185   9.690   0.327   9.179
34393SOL    HW1 5186  -1.343   0.319   9.084
34393SOL    HW2 5187  20.794   0.394   9.202
34394SOL     OW 5188   1.458   0.039  10.887
34394SOL    HW1 5189   1.489  -0.021  10.820
34394SOL    HW2 5190   1.530  11.140  10.901
34395SOL     OW 5191   9.812  13.119   9.297
34395SOL    HW1 5192 -34.413  13.108 -12.849
34395SOL    HW2 5193   9.765 -31.004   9.373
34396SOL     OW 5194   0.518   7.813   9.430
34396SOL    HW1 5195  11.502   7.770   9.364
34396SOL    HW2 5196  33.579   7.879   9.470
34397SOL     OW 5197   2.294   1.539   0.311
34397SOL    HW1 5198  -8.773   1.494  11.430
34397SOL    HW2 5199   2.389  12.567   0.308
34398SOL     OW 5200   1.727   2.051   4.062
34398SOL    HW1 5201   1.769   2.067   4.146
34398SOL    HW2 5202   1.724   2.137   4.020
34399SOL     OW 5203  10.861   6.313   6.574
34399SOL    HW1 5204  10.940  -4.675   6.559
34399SOL    HW2 5205  10.880   6.263  -4.387
34400SOL     OW 5206   0.073   8.244   9.480
34400SOL    HW1 5207  -0.019   8.251   9.454
34400SOL    HW2 5208   0.121   8.282  -1.634
34401SOL     OW 5209  10.316   8.028   5.895
34401SOL    HW1 5210  10.391  -3.068  -5.128
34401SOL    HW2 5211  10.258   8.014   5.970
34402SOL     OW 5212   9.498  10.906   6.095
34402SOL    HW1 5213   9.442  10.919   6.171
34402SOL    HW2 5214  -1.602  10.891  39.141
34403SOL     OW 5215   7.774   7.914   0.296
34403SOL    HW1 5216   7.851   7.920   0.353
34403SOL    HW2 5217   7.780   7.992   0.241
34404SOL     OW 5218   9.033  10.141   4.111
34404SOL    HW1 5219  20.006  10.084   4.072
34404SOL    HW2 5220   8.984  10.211   4.152
34405SOL     OW 5221   3.389   9.282   5.192
34405SOL    HW1 5222  -7.700   9.323  16.161
34405SOL    HW2 5223   3.406   9.193  27.240
34406SOL     OW 5224  11.977   8.423   1.338
34406SOL    HW1 5225  12.014   8.475  12.449
34406SOL    HW2 5226 -10.158  19.524 -20.789
34407SOL     OW 5227   3.542   1.425   2.290
34407SOL    HW1 5228   3.468  12.467   2.228
34407SOL    HW2 5229   3.549  -9.706  -8.725
34408SOL     OW 5230   5.002   8.314  10.312
34408SOL    HW1 5231   5.053   8.270  -0.659
34408SOL    HW2 5232   4.961   8.388  10.357
34409SOL     OW 5233   3.230   5.067   1.511
34409SOL    HW1 5234  14.329  16.088   1.439
34409SOL    HW2 5235   3.143  16.106   1.472
34410SOL     OW 5236   9.087  10.974  10.835
34410SOL    HW1 5237  20.146  10.928  10.753
34410SOL    HW2 5238   8.996 -44.197  -0.213
34411SOL     OW 5239  10.411   2.442   5.679
34411SOL    HW1 5240  -0.565   2.512  -5.366
34411SOL    HW2 5241  10.437  -8.660   5.612
34412SOL     OW 5242   6.590   8.536   6.452
34412SOL    HW1 5243  17.565   8.594   6.410
34412SOL    HW2 5244   6.574   8.450   6.413
34413SOL     OW 5245  10.644   3.042  -0.236
34413SOL    HW1 5246 -11.340  14.067  10.804
34413SOL    HW2 5247  10.634   3.130  -0.272
34414SOL     OW 5248   0.326   8.592   8.793
34414SOL    HW1 5249   0.291   8.520   8.846
34414SOL    HW2 5250  11.410   8.648   8.857
34415SOL     OW 5251   2.144   7.143   0.651
34415SOL    HW1 5252   2.234  -3.916   0.628
34415SOL    HW2 5253  -8.906   7.236 -10.407
34416SOL     OW 5254   0.097   1.017   5.117
34416SOL    HW1 5255   0.114   0.936   5.070
34416SOL    HW2 5256   0.076   0.990   5.206
34417SOL     OW 5257   4.165   1.035   8.917
34417SOL    HW1 5258  15.188   0.977   8.992
34417SOL    HW2 5259   4.260   1.047   8.918
34418SOL     OW 5260  10.958  -0.605  10.625
34418SOL    HW1 5261   0.011  10.437  10.652
34418SOL    HW2 5262  10.919  21.550  10.668
34419SOL     OW 5263   0.207   4.546  10.655
34419SOL    HW1 5264   0.210   4.460  10.615
34419SOL    HW2 5265   0.298   4.576  10.655
34420SOL     OW 5266   1.753   8.153   3.562
34420SOL    HW1 5267   1.813   8.212  14.647
34420SOL    HW2 5268  -9.232  52.267   3.497
34421SOL     OW 5269   8.139   3.023   9.063
34421SOL    HW1 5270  19.260  25.065   9.097
34421SOL    HW2 5271   8.111   2.961   8.996
34422SOL     OW 5272   2.824   5.036  10.738
34422SOL    HW1 5273   2.869   4.952  10.734
34422SOL    HW2 5274   2.865   5.082 -11.269
34423SOL     OW 5275   3.117   2.210   5.033
34423SOL    HW1 5276   3.126   2.180   5.124
34423SOL    HW2 5277  25.281   2.248   5.011
34424SOL     OW 5278   7.019   3.440   9.266
34424SOL    HW1 5279   6.968   3.366   9.233
34424SOL    HW2 5280  29.184   3.430  -1.813
34425SOL     OW 5281   8.842   8.675   1.817
34425SOL    HW1 5282   8.866  19.806   1.831
34425SOL    HW2 5283  -2.171  19.696   1.727
34426SOL     OW 5284   6.283   1.779   0.983
34426SOL    HW1 5285   6.358  -9.307   1.021
34426SOL    HW2 5286   6.300  23.856   0.888
34427SOL     OW 5287   5.695   1.944   0.770
34427SOL    HW1 5288   5.714   1.899 -10.352
34427SOL    HW2 5289   5.615   1.903   0.802
34428SOL     OW 5290   8.957  10.558   9.385
34428SOL    HW1 5291   9.003  10.498   9.327
34428SOL    HW2 5292  -2.090  10.511  20.508
34429SOL     OW 5293   1.972   0.973  10.881
34429SOL    HW1 5294   1.980   1.063 -11.166
34429SOL    HW2 5295   1.881   0.949  10.897
34430SOL     OW 5296   8.968   9.758   8.082
34430SOL    HW1 5297 -13.084  20.889 -14.002
34430SOL    HW2 5298   8.873  20.802   8.096
34431SOL     OW 5299   8.312   6.889   2.903
34431SOL    HW1 5300   8.324  29.047   2.955
34431SOL    HW2 5301   8.251   6.915   2.834
34432SOL     OW 5302   6.839   2.426   6.737
34432SOL    HW1 5303   6.795   2.448   6.655
34432SOL    HW2 5304   6.928   2.461   6.727
34433SOL     OW 5305   1.659   1.193  10.618
34433SOL    HW1 5306   1.627  12.213  10.706
34433SOL    HW2 5307   1.754   1.187  10.625
34434SOL     OW 5308  10.101   6.034   6.818
34434SOL    HW1 5309  21.191   6.040   6.737
34434SOL    HW2 5310  10.089  17.164  17.885
34435SOL     OW 5311   3.457   9.079   8.103
34435SOL    HW1 5312  47.702   9.039   8.102
34435SOL    HW2 5313  36.515   9.006  30.169
34436SOL     OW 5314  -2.210   3.655   0.952
34436SOL    HW1 5315  19.917  14.680   0.871
34436SOL    HW2 5316  19.779   3.669  11.964
34437SOL     OW 5317   8.155  11.554   8.047
34437SOL    HW1 5318  -2.882  22.520   8.108
34437SOL    HW2 5319   8.109 -10.456 -13.984
34438SOL     OW 5320   4.194   5.033   1.677
34438SOL    HW1 5321   4.134   5.056   1.605
34438SOL    HW2 5322   4.138   4.992   1.742
34439SOL     OW 5323   1.735   1.792   1.687
34439SOL    HW1 5324   1.773   1.833   1.765
34439SOL    HW2 5325   1.805   1.796  -9.418
34440SOL     OW 5326   2.659   7.529   3.036
34440SOL    HW1 5327   2.712  29.554   2.978
34440SOL    HW2 5328   2.654   7.478  25.196
34441SOL     OW 5329   8.431  -1.405   2.523
34441SOL    HW1 5330  -2.679   9.570   2.517
34441SOL    HW2 5331   8.440  31.729  13.657
34442SOL     OW 5332   5.642   3.687   6.912
34442SOL    HW1 5333  16.630   3.644  17.884
34442SOL    HW2 5334 -27.542  14.764   6.972
34443SOL     OW 5335   0.626   4.379   8.998
34443SOL    HW1 5336   0.676   4.373   9.080
34443SOL    HW2 5337  22.673   4.469   8.997
34444SOL     OW 5338   9.444   8.403   9.800
34444SOL    HW1 5339   9.463   8.309   9.791
34444SOL    HW2 5340   9.522  19.479   9.841
34445SOL     OW 5341   2.522  10.533   3.724
34445SOL    HW1 5342   2.606  10.566   3.690
34445SOL    HW2 5343  13.534  10.468   3.660
34446SOL     OW 5344   1.945   4.139   3.796
34446SOL    HW1 5345   1.857   4.103   3.804
34446SOL    HW2 5346   1.983   4.094  14.760
34447SOL     OW 5347   8.472   5.262   7.629
34447SOL    HW1 5348   8.442   5.185   7.581
34447SOL    HW2 5349  -2.573  -5.802   7.721
34448SOL     OW 5350   3.667   1.079   1.933
34448SOL    HW1 5351   3.633  23.107   2.007
34448SOL    HW2 5352 -29.356   1.077  -9.095
34449SOL     OW 5353  12.250   6.821   5.559
34449SOL    HW1 5354   1.173 -15.247   5.472
34449SOL    HW2 5355 -20.917 -15.331   5.597
34450SOL     OW 5356   7.816   1.809   3.006
34450SOL    HW1 5357   7.911   1.799   3.002
34450SOL    HW2 5358  -3.246  12.826   3.097
34451SOL     OW 5359   3.095   6.151   3.036
34451SOL    HW1 5360   3.066   6.112   3.118
34451SOL    HW2 5361 -18.897   6.184  25.133
34452SOL     OW 5362   1.154   6.912   9.749
34452SOL    HW1 5363  12.181   6.859  -1.212
34452SOL    HW2 5364   1.234   6.961   9.766
34453SOL     OW 5365   1.619   1.477   7.253
34453SOL    HW1 5366  -9.477  12.555   7.321
34453SOL    HW2 5367   1.577  23.473   7.231
34454SOL     OW 5368   5.318  -0.437   6.307
34454SOL    HW1 5369   5.291  21.711   6.247
34454SOL    HW2 5370  16.276  -0.470   6.344
34455SOL     OW 5371   5.317   1.425   3.454
34455SOL    HW1 5372   5.290   1.479   3.380
34455SOL    HW2 5373  38.366  -9.605  -7.522
34456SOL     OW 5374  10.732   3.140   4.156
34456SOL    HW1 5375  10.714   3.152   4.249
34456SOL    HW2 5376  10.785   3.216   4.132
34457SOL     OW 5377   4.503   4.874   3.409
34457SOL    HW1 5378   4.413  15.894   3.435
34457SOL    HW2 5379   4.504   4.862   3.314
34458SOL     OW 5380   3.239  10.469   3.569
34458SOL    HW1 5381   3.240  10.547   3.512
34458SOL    HW2 5382   3.283  -0.638   3.517
34459SOL     OW 5383  10.726  10.134   2.682
34459SOL    HW1 5384  10.768  10.056   2.647
34459SOL    HW2 5385  10.782  -0.833  13.693
34460SOL     OW 5386   8.203   7.733   9.678
34460SOL    HW1 5387  19.303  -3.335   9.609
34460SOL    HW2 5388  19.225   7.653   9.727
34461SOL     OW 5389  10.397   4.086   1.662
34461SOL    HW1 5390  10.413   4.172   1.700
34461SOL    HW2 5391  10.318   4.097   1.609
34462SOL     OW 5392   9.712   7.825   8.134
34462SOL    HW1 5393   9.717  18.792   8.196
34462SOL    HW2 5394   9.710   7.783  19.088
34463SOL     OW 5395   0.182   9.470   4.232
34463SOL    HW1 5396  11.164   9.396   4.251
34463SOL    HW2 5397  22.209   9.527   4.176
34464SOL     OW 5398   2.247   3.585   3.145
34464SOL    HW1 5399 -19.759   3.531   3.173
34464SOL    HW2 5400  24.249   3.547  -7.852
34465SOL     OW 5401   7.186   0.699   7.642
34465SOL    HW1 5402   7.268   0.656  18.658
34465SOL    HW2 5403   7.131   0.630  18.718
34466SOL     OW 5404   1.835  10.187   5.634
34466SOL    HW1 5405  23.988  32.323   5.653
34466SOL    HW2 5406   1.875  -0.934   5.603
34467SOL     OW 5407   1.009   3.540   7.739
34467SOL    HW1 5408  12.071   3.451   7.766
34467SOL    HW2 5409   0.928  14.599 -14.292
34468SOL     OW 5410   4.660   3.587   1.984
34468SOL    HW1 5411   4.638   3.652   1.918
34468SOL    HW2 5412   4.579  14.616   2.035
34469SOL     OW 5413   5.164   6.664   8.364
34469SOL    HW1 5414   5.247   6.711   8.366
34469SOL    HW2 5415   5.188   6.574   8.346
34470SOL     OW 5416   4.476   4.837   5.148
34470SOL    HW1 5417   4.557  -6.153   5.160
34470SOL    HW2 5418  -6.535   4.753   5.114
34471SOL     OW 5419  11.837  11.674   5.267
34471SOL    HW1 5420 -10.263  11.735   5.337
34471SOL    HW2 5421  11.819 -10.492   5.304
34472SOL     OW 5422   6.389   1.393   4.290
34472SOL    HW1 5423   6.434   1.342   4.222
34472SOL    HW2 5424   6.312   1.340  15.352
34473SOL     OW 5425   0.520   5.560   1.701
34473SOL    HW1 5426  11.619   5.602   1.639
34473SOL    HW2 5427   0.470   5.633  12.780
34474SOL     OW 5428  -0.242   2.753   2.735
34474SOL    HW1 5429  -0.329   2.733   2.769
34474SOL    HW2 5430  10.847   2.782   2.812
34475SOL     OW 5431  10.944   0.845   9.469
34475SOL    HW1 5432  10.934  33.875  20.474
34475SOL    HW2 5433  10.919  11.878   9.561
34476SOL     OW 5434  -0.252   5.366   1.949
34476SOL    HW1 5435  21.746  16.362   1.976
34476SOL    HW2 5436  -0.238   5.337  12.898
34477SOL     OW 5437   7.498   6.660   8.765
34477SOL    HW1 5438   7.403   6.651   8.770
34477SOL    HW2 5439   7.513   6.722   8.693
34478SOL     OW 5440   4.270   1.339   3.707
34478SOL    HW1 5441   4.271   1.243  -7.340
34478SOL    HW2 5442  26.394  12.396   3.789
34479SOL     OW 5443   7.811   1.654   8.527
34479SOL    HW1 5444   7.856   1.644   8.610
34479SOL    HW2 5445  -3.211   1.745   8.501
34480SOL     OW 5446   2.151   8.274   2.621
34480SOL    HW1 5447   2.087   8.322   2.673
34480SOL    HW2 5448 -19.849   8.328  -8.416
34481SOL     OW 5449   6.468   6.053   7.049
34481SOL    HW1 5450   6.412   6.128   7.026
34481SOL    HW2 5451  17.446  -5.058  18.106
34482SOL     OW 5452   4.828  10.274   6.742
34482SOL    HW1 5453   4.830  10.196  -4.241
34482SOL    HW2 5454   4.736  10.282 -26.402
34483SOL     OW 5455   9.506  -0.877   0.963
34483SOL    HW1 5456   9.542  -0.966 -10.073
34483SOL    HW2 5457  20.622  21.257   0.945
34484SOL     OW 5458   8.558   7.766   6.822
34484SOL    HW1 5459   8.505   7.813   6.757
34484SOL    HW2 5460   8.594   7.691  -4.265
34485SOL     OW 5461   9.630   2.786   6.819
34485SOL    HW1 5462   9.579   2.728   6.762
34485SOL    HW2 5463  -1.442   2.767   6.907
34486SOL     OW 5464   0.321   1.400   6.446
34486SOL    HW1 5465   0.284   1.465   6.506
34486SOL    HW2 5466   0.260   1.326  17.490
34487SOL     OW 5467   5.008   7.679   9.118
34487SOL    HW1 5468   4.914   7.695   9.118
34487SOL    HW2 5469   5.040   7.719   9.199
34488SOL     OW 5470   6.005   4.801   9.202
34488SOL    HW1 5471  17.058  15.935   9.208
34488SOL    HW2 5472 -16.038   4.767  20.324
34489SOL     OW 5473   1.882   6.354   4.849
34489SOL    HW1 5474   1.923 -15.799   4.804
34489SOL    HW2 5475 -20.138  17.467   4.833
34490SOL     OW 5476   5.665   1.383   6.497
34490SOL    HW1 5477   5.635   1.305   6.544
34490SOL    HW2 5478   5.736   1.417  17.590
34491SOL     OW 5479   6.218   7.731   9.501
34491SOL    HW1 5480  -4.734 -14.311  -1.531
34491SOL    HW2 5481   6.163   7.787   9.556
34492SOL     OW 5482   0.935   5.598   9.651
34492SOL    HW1 5483   0.888   5.570   9.729
34492SOL    HW2 5484  11.962  27.772   9.648
34493SOL     OW 5485   6.945   3.329   1.832
34493SOL    HW1 5486  18.021   3.416   1.848
34493SOL    HW2 5487   6.893  -7.700   1.752
34494SOL     OW 5488   9.715   0.635   2.973
34494SOL    HW1 5489   9.658   0.622   2.897
34494SOL    HW2 5490   9.716  11.769   2.986
34495SOL     OW 5491   4.127   4.884   2.177
34495SOL    HW1 5492  15.110  -6.125   2.248
34495SOL    HW2 5493   4.172   4.963   2.148
34496SOL     OW 5494  11.028   4.449   3.800
34496SOL    HW1 5495  11.001  15.406   3.759
34496SOL    HW2 5496  11.117   4.432 -18.249
34497SOL     OW 5497   7.644   1.167   9.526
34497SOL    HW1 5498   7.632   1.245   9.472
34497SOL    HW2 5499   7.653   1.095   9.463
34498SOL     OW 5500   4.080   4.206   0.005
34498SOL    HW1 5501   4.062  26.194   0.030
34498SOL    HW2 5502  15.035 -17.839  11.016
34499SOL     OW 5503   5.163   1.762   6.790
34499SOL    HW1 5504   5.088  -9.306   6.842
34499SOL    HW2 5505   5.205   1.681   6.762
34500SOL     OW 5506   3.824   2.628   1.461
34500SOL    HW1 5507 -40.257   2.571   1.454
34500SOL    HW2 5508  14.790  13.610   1.439
34501SOL     OW 5509  10.803   6.976  10.460
34501SOL    HW1 5510  10.866   6.932  10.516
34501SOL    HW2 5511  -0.320   6.934  10.481
34502SOL     OW 5512   7.944   5.116   9.266
34502SOL    HW1 5513   7.904   5.104   9.352
34502SOL    HW2 5514   7.990 -27.919   9.272
34503SOL     OW 5515  10.776   5.346   1.495
34503SOL    HW1 5516  10.710   5.372  -9.480
34503SOL    HW2 5517 -11.340   5.374  12.450
34504SOL     OW 5518  -0.461   8.870   8.897
34504SOL    HW1 5519 -11.457   8.949 -13.213
34504SOL    HW2 5520  21.662   8.799 -24.268
34505SOL     OW 5521   5.813   1.190   7.485
34505SOL    HW1 5522  27.935  -9.842   7.400
34505SOL    HW2 5523  16.762   1.216  51.626
34506SOL     OW 5524   2.426   2.968   1.360
34506SOL    HW1 5525  24.556   2.892  23.412
34506SOL    HW2 5526  13.480   2.973  23.534
34507SOL     OW 5527   3.617   3.179  10.488
34507SOL    HW1 5528   3.689  14.162  10.515
34507SOL    HW2 5529   3.539   3.125  10.499
34508SOL     OW 5530   9.186   2.954  -0.693
34508SOL    HW1 5531 -12.882   2.923  21.476
34508SOL    HW2 5532  -1.792   2.902  21.335
34509SOL     OW 5533   3.357   0.884   9.573
34509SOL    HW1 5534  36.384   0.856  31.656
34509SOL    HW2 5535   3.402  11.871   9.639
34510SOL     OW 5536   6.628   7.870  10.183
34510SOL    HW1 5537   6.650 -14.191  -0.948
34510SOL    HW2 5538   6.713  18.907  10.228
34511SOL     OW 5539   3.716   3.884   7.455
34511SOL    HW1 5540   3.793  -7.174   7.508
34511SOL    HW2 5541  14.772  15.010   7.417
34512SOL     OW 5542   2.968   6.733   5.161
34512SOL    HW1 5543   3.059   6.753  -5.897
34512SOL    HW2 5544   2.932   6.704   5.077
34513SOL     OW 5545   7.135   4.352   2.197
34513SOL    HW1 5546   7.178  15.309   2.174
34513SOL    HW2 5547  -3.936   4.386  -8.927
34514SOL     OW 5548   0.658   2.160   6.977
34514SOL    HW1 5549  11.692   2.187 -15.193
34514SOL    HW2 5550   0.730  -8.828   7.013
34515SOL     OW 5551   9.151   6.809   2.840
34515SOL    HW1 5552  31.271   6.866  -8.264
34515SOL    HW2 5553  20.220   6.844   2.925
34516SOL     OW 5554   0.095   4.181   3.309
34516SOL    HW1 5555  11.176  15.301   3.276
34516SOL    HW2 5556  22.230  -6.929   3.277
34517SOL     OW 5557  11.238   7.503   8.782
34517SOL    HW1 5558  11.252   7.588   8.824
34517SOL    HW2 5559   0.130   7.461   8.835
34518SOL     OW 5560   7.000   4.006   4.486
34518SOL    HW1 5561  17.991   3.964  -6.624
34518SOL    HW2 5562   7.009   4.097  26.537
34519SOL     OW 5563   2.310   6.302   6.176
34519SOL    HW1 5564   2.378   6.234   6.179
34519SOL    HW2 5565   2.243  17.312   6.237
34520SOL     OW 5566   2.236   7.988   6.975
34520SOL    HW1 5567  -8.763  -3.112  17.953
34520SOL    HW2 5568   2.273   7.965   7.060
34521SOL     OW 5569   0.033   4.094   1.701
34521SOL    HW1 5570  -0.051   4.061  12.773
34521SOL    HW2 5571   0.060 -18.050  12.675
34522SOL     OW 5572  10.954   8.718   6.527
34522SOL    HW1 5573  11.042  19.783   6.499
34522SOL    HW2 5574  10.964  19.667   6.559
34523SOL     OW 5575   4.946   1.349   9.791
34523SOL    HW1 5576  38.086   1.260   9.766
34523SOL    HW2 5577   5.023  12.419   9.839
34524SOL     OW 5578   2.420   7.581   6.432
34524SOL    HW1 5579   2.432   7.648   6.365
34524SOL    HW2 5580   2.325   7.574  28.521
34525SOL     OW 5581   6.717   4.195   1.013
34525SOL    HW1 5582   6.701   4.127   1.079
34525SOL    HW2 5583   6.657   4.266   1.037
34526SOL     OW 5584   7.468   2.952  -0.078
34526SOL    HW1 5585   7.412   2.958  11.040
34526SOL    HW2 5586   7.445   3.029  -0.130
34527SOL     OW 5587  -0.576   5.934   7.452
34527SOL    HW1 5588  -0.611   5.954   7.539
34527SOL    HW2 5589  10.480  27.919   7.454
34528SOL     OW 5590   5.820   2.111   2.990
34528SOL    HW1 5591   5.900  -8.950  14.078
34528SOL    HW2 5592   5.831  -8.974  13.946
34529SOL     OW 5593   0.884   4.383  -0.582
34529SOL    HW1 5594   0.944   4.446  10.416
34529SOL    HW2 5595   0.868   4.420  -0.495
34530SOL     OW 5596   8.475  10.284   0.882
34530SOL    HW1 5597  19.511  10.379  22.964
34530SOL    HW2 5598   8.423  10.259  22.885
34531SOL     OW 5599   9.009   3.742   5.398
34531SOL    HW1 5600   9.071  -7.371   5.393
34531SOL    HW2 5601  -2.065  -7.289  16.348
34532SOL     OW 5602   2.406   6.845   7.860
34532SOL    HW1 5603   2.477   6.852  -3.115
34532SOL    HW2 5604   2.327   6.837   7.913
34533SOL     OW 5605  10.040   4.432   4.084
34533SOL    HW1 5606  10.067   4.472  15.041
34533SOL    HW2 5607  10.003   4.347   4.058
34534SOL     OW 5608   9.645  -0.535   3.005
34534SOL    HW1 5609   9.578  -0.542   3.073
34534SOL    HW2 5610  -1.437  32.551   2.926
34535SOL     OW 5611   9.488   9.593   5.302
34535SOL    HW1 5612  -1.646  31.662   5.315
34535SOL    HW2 5613  31.578   9.601   5.207
34536SOL     OW 5614  10.557   7.943   5.113
34536SOL    HW1 5615  10.568   8.035   5.089
34536SOL    HW2 5616  10.639   7.901   5.087
34537SOL     OW 5617  10.672  10.512   0.560
34537SOL    HW1 5618  -0.284  10.473   0.586
34537SOL    HW2 5619  21.646 -11.632   0.585
34538SOL     OW 5620  10.694   3.407   7.776
34538SOL    HW1 5621  10.758   3.377   7.841
34538SOL    HW2 5622  10.635   3.463  -3.215
34539SOL     OW 5623   8.904   7.322  10.332
34539SOL    HW1 5624  -2.224   7.302  10.363
34539SOL    HW2 5625  -2.149   7.365  10.247
34540SOL     OW 5626   9.882  10.925   4.691
34540SOL    HW1 5627   9.949  10.991   4.675
34540SOL    HW2 5628   9.828  -0.113   4.612
34541SOL     OW 5629  10.058   3.914   2.204
34541SOL    HW1 5630  21.051   3.986   2.163
34541SOL    HW2 5631  10.054  14.972   2.298
34542SOL     OW 5632   2.510   9.418   3.837
34542SOL    HW1 5633 -30.701   9.420  25.888
34542SOL    HW2 5634   2.556   9.377   3.764
34543SOL     OW 5635   0.839  11.705   2.638
34543SOL    HW1 5636   0.801  11.692   2.551
34543SOL    HW2 5637  22.867 -21.471   2.696
34544SOL     OW 5638   3.150  11.150   0.840
34544SOL    HW1 5639   3.094  11.097   0.897
34544SOL    HW2 5640   3.094   0.130   0.764
34545SOL     OW 5641   4.389   9.070   1.089
34545SOL    HW1 5642   4.359   9.148  23.216
34545SOL    HW2 5643  15.481  20.145  45.176
34546SOL     OW 5644   4.966   9.676   4.899
34546SOL    HW1 5645   5.004   9.631   4.974
34546SOL    HW2 5646   4.887  -1.322   4.933
34547SOL     OW 5647   8.686  10.043   6.502
34547SOL    HW1 5648  19.643  10.079   6.533
34547SOL    HW2 5649   8.725  10.114   6.451
34548SOL     OW 5650   2.453   5.263   2.280
34548SOL    HW1 5651  -8.611   5.328  -8.825
34548SOL    HW2 5652   2.371   5.218   2.301
34549SOL     OW 5653   3.425   1.997   3.711
34549SOL    HW1 5654   3.497   2.011  -7.266
34549SOL    HW2 5655   3.377   1.922   3.746
34550SOL     OW 5656   3.794   9.894   9.714
34550SOL    HW1 5657  -7.239   9.956  31.866
34550SOL    HW2 5658 -18.214  -1.208  -1.310
34551SOL     OW 5659   5.172   4.353  -0.756
34551SOL    HW1 5660  16.128   4.323  -0.720
34551SOL    HW2 5661  16.196   4.445  32.341
34552SOL     OW 5662   4.437  10.355   1.515
34552SOL    HW1 5663   4.406  10.421  12.493
34552SOL    HW2 5664  -6.518  10.388   1.545
34553SOL     OW 5665   3.591   0.927   6.997
34553SOL    HW1 5666   3.603   0.833 -15.091
34553SOL    HW2 5667 -18.418   0.965   6.944
34554SOL     OW 5668   2.367   8.147   2.483
34554SOL    HW1 5669   2.401  -2.974   2.519
34554SOL    HW2 5670   2.292   8.170   2.538
34555SOL     OW 5671   2.098   3.901   4.159
34555SOL    HW1 5672   2.119  14.848   4.144
34555SOL    HW2 5673   2.011   3.912   4.122
34556SOL     OW 5674   5.288   1.829   1.963
34556SOL    HW1 5675   5.308   1.891   2.033
34556SOL    HW2 5676   5.337  12.790   1.985
34557SOL     OW 5677   8.293   2.449  10.930
34557SOL    HW1 5678   8.271   2.372  10.983
34557SOL    HW2 5679   8.386  -8.602  10.908
34558SOL     OW 5680   2.280  10.283   7.299
34558SOL    HW1 5681   2.204 -11.778 -25.875
34558SOL    HW2 5682   2.295  10.189   7.289
34559SOL     OW 5683   0.838   4.045   4.154
34559SOL    HW1 5684   0.797   3.962   4.130
34559SOL    HW2 5685   0.764   4.103  -6.866
34560SOL     OW 5686   5.548   3.255   5.729
34560SOL    HW1 5687   5.595   3.279  16.848
34560SOL    HW2 5688  -5.525  14.377   5.695
34561SOL     OW 5689   0.318   5.186   6.340
34561SOL    HW1 5690  11.365   5.281  39.464
34561SOL    HW2 5691   0.387 -16.920   6.279
34562SOL     OW 5692  -0.528   3.337  10.127
34562SOL    HW1 5693  10.437  -7.760  10.112
34562SOL    HW2 5694  -0.559   3.424  21.141
34563SOL     OW 5695   3.361  10.367   4.829
34563SOL    HW1 5696 -18.629  10.353   4.798
34563SOL    HW2 5697   3.325  -0.604   4.773
34564SOL     OW 5698   4.116   3.507   8.349
34564SOL    HW1 5699   4.196   3.494   8.297
34564SOL    HW2 5700   4.045  14.546  19.325
34565SOL     OW 5701   9.672   8.555   9.634
34565SOL    HW1 5702 -12.318  -2.460  20.696
34565SOL    HW2 5703   9.625  -2.402  -1.411
34566SOL     OW 5704  10.961  10.920   3.855
34566SOL    HW1 5705  10.913  10.901   3.775
34566SOL    HW2 5706  11.051  10.892   3.837
34567SOL     OW 5707   5.375   2.018   4.793
34567SOL    HW1 5708  38.571  -8.992   4.841
34567SOL    HW2 5709   5.402   1.935 -17.327
34568SOL     OW 5710   2.285   1.108  10.131
34568SOL    HW1 5711   2.196  -9.901  10.149
34568SOL    HW2 5712  -8.764   1.043  10.062
34569SOL     OW 5713   1.360   0.422   7.545
34569SOL    HW1 5714   1.451   0.426   7.518
34569SOL    HW2 5715  12.391   0.490   7.612
34570SOL     OW 5716   0.318   3.381   1.322
34570SOL    HW1 5717 -10.710   3.348   1.233
34570SOL    HW2 5718  11.362   3.476  -9.726
34571SOL     OW 5719   0.493   1.470   9.748
34571SOL    HW1 5720  11.447   1.456 -34.369
34571SOL    HW2 5721  11.595   1.439   9.813
34572SOL     OW 5722   0.745   9.322   3.395
34572SOL    HW1 5723   0.669   9.381   3.391
34572SOL    HW2 5724   0.811  20.403   3.339
34573SOL     OW 5725   9.446   7.639   5.297
34573SOL    HW1 5726   9.456  18.590   5.333
34573SOL    HW2 5727  31.593 -14.435   5.229
34574SOL     OW 5728   7.492   3.347   5.394
34574SOL    HW1 5729 -14.510  58.489   5.393
34574SOL    HW2 5730   7.496  36.511   5.478
34575SOL     OW 5731   3.420   9.741  -0.598
34575SOL    HW1 5732   3.478   9.681  10.487
34575SOL    HW2 5733   3.363   9.685  10.390
34576SOL     OW 5734   7.415   5.420   8.617
34576SOL    HW1 5735   7.494   5.457   8.655
34576SOL    HW2 5736   7.349   5.427  19.726
34577SOL     OW 5737   1.502   0.769   6.643
34577SOL    HW1 5738   1.544   0.799   6.724
34577SOL    HW2 5739   1.473   0.680  17.701
34578SOL     OW 5740   3.365   9.049   6.734
34578SOL    HW1 5741   3.392  20.179  -4.288
34578SOL    HW2 5742   3.442 -13.083   6.752
34579SOL     OW 5743   6.533   1.560   3.878
34579SOL    HW1 5744   6.556   1.559   3.785
34579SOL    HW2 5745  17.648   1.520 -18.157
34580SOL     OW 5746   7.145   9.846   0.341
34580SOL    HW1 5747   7.139   9.823   0.248
34580SOL    HW2 5748   7.150   9.761  11.426
34581SOL     OW 5749   6.350   9.742   0.492
34581SOL    HW1 5750   6.266   9.764   0.450
34581SOL    HW2 5751   6.357   9.647   0.481
34582SOL     OW 5752  10.812   4.439   8.740
34582SOL    HW1 5753  -0.309   4.392   8.724
34582SOL    HW2 5754  10.801   4.523  30.773
34583SOL     OW 5755   7.579   7.379  10.780
34583SOL    HW1 5756   7.595   7.361  10.872
34583SOL    HW2 5757   7.589 -14.605  10.771
34584SOL     OW 5758   7.211   6.975  10.533
34584SOL    HW1 5759   7.161   7.007  10.608
34584SOL    HW2 5760   7.297  -4.086  10.569
34585SOL     OW 5761   4.874   3.202   0.228
34585SOL    HW1 5762  15.848   3.249   0.279
34585SOL    HW2 5763   4.884  25.197   0.274
34586SOL     OW 5764   4.529   7.516   4.646
34586SOL    HW1 5765   4.590   7.491  15.616
34586SOL    HW2 5766   4.575   7.584   4.695
34587SOL     OW 5767   0.655   7.400   3.620
34587SOL    HW1 5768   0.611  18.355   3.606
34587SOL    HW2 5769   0.652  18.482   3.535
34588SOL     OW 5770   7.081   1.565   8.153
34588SOL    HW1 5771   7.169  -9.461  -2.853
34588SOL    HW2 5772  40.143   1.566   8.230
34589SOL     OW 5773   3.526   3.665   4.554
34589SOL    HW1 5774  14.525 -18.448   4.633
34589SOL    HW2 5775   3.586   3.733   4.584
34590SOL     OW 5776   7.577   3.001   2.969
34590SOL    HW1 5777   7.485  -8.015   2.974
34590SOL    HW2 5778   7.605   2.990  -7.980
34591SOL     OW 5779   2.970   1.118   4.941
34591SOL    HW1 5780  25.036   1.046   4.879
34591SOL    HW2 5781  14.078   1.087   5.000
34592SOL     OW 5782   3.039   1.700   6.710
34592SOL    HW1 5783  14.072   1.663   6.622
34592SOL    HW2 5784   3.125  23.753   6.741
34593SOL     OW 5785   3.964   5.561   0.841
34593SOL    HW1 5786   3.959  -5.573   0.830
34593SOL    HW2 5787   4.056  -5.462   0.865
34594SOL     OW 5788   1.608   6.062   6.279
34594SOL    HW1 5789   1.544   6.131   6.266
34594SOL    HW2 5790  12.599   5.990   6.320
34595SOL     OW 5791   4.318  10.511   0.508
34595SOL    HW1 5792   4.301  21.464   0.472
34595SOL    HW2 5793   4.327  -0.543   0.603
34596SOL     OW 5794   7.350   0.013   1.151
34596SOL    HW1 5795   7.333  10.959   1.158
34596SOL    HW2 5796   7.331   0.047   1.239
34597SOL     OW 5797   8.877   2.206   1.721
34597SOL    HW1 5798   8.840  24.374  34.836
34597SOL    HW2 5799   8.870 -19.898   1.813
34598SOL     OW 5800   7.913   4.689   0.275
34598SOL    HW1 5801   7.914   4.594   0.260
34598SOL    HW2 5802   7.854  15.762  11.246
34599SOL     OW 5803   3.377   0.527   8.494
34599SOL    HW1 5804   3.468   0.500   8.479
34599SOL    HW2 5805   3.351   0.568   8.411
34600SOL     OW 5806  10.500   7.893  10.177
34600SOL    HW1 5807  10.563  -3.078  10.154
34600SOL    HW2 5808  -0.625 -14.143  10.174
34601SOL     OW 5809   0.878   1.235   7.333
34601SOL    HW1 5810   0.866  -9.859  -3.785
34601SOL    HW2 5811  11.932   1.172  -3.636
34602SOL     OW 5812   2.845   4.565   4.971
34602SOL    HW1 5813   2.859  48.724   4.876
34602SOL    HW2 5814   2.753   4.589   4.982
34603SOL     OW 5815   2.686   7.703   5.821
34603SOL    HW1 5816   2.673   7.779   5.877
34603SOL    HW2 5817  13.638   7.666   5.810
34604SOL     OW 5818   3.728   0.888   5.289
34604SOL    HW1 5819  25.723   0.842  16.337
34604SOL    HW2 5820   3.705   0.971   5.247
34605SOL     OW 5821   1.876  13.570   5.959
34605SOL    HW1 5822   1.837  -8.583   6.006
34605SOL    HW2 5823   1.827 -19.545  -5.163
34606SOL     OW 5824   3.973   8.421   7.173
34606SOL    HW1 5825  -7.057   8.453   7.083
34606SOL    HW2 5826   3.881   8.441   7.195
34607SOL     OW 5827   8.485   4.716   5.034
34607SOL    HW1 5828   8.467   4.731   4.941
34607SOL    HW2 5829   8.411  -6.283   5.080
34608SOL     OW 5830   2.770   3.832   4.977
34608SOL    HW1 5831  13.770 -18.161   4.960
34608SOL    HW2 5832  13.885 -29.267   5.033
34609SOL     OW 5833   5.707   5.274   2.441
34609SOL    HW1 5834   5.797   5.279   2.473
34609SOL    HW2 5835   5.713  -5.812   2.358
34610SOL     OW 5836   2.891   6.926   9.217
34610SOL    HW1 5837 -30.293   6.966   9.159
34610SOL    HW2 5838   2.856   6.840  20.278
34611SOL     OW 5839   2.347   6.418   1.852
34611SOL    HW1 5840  24.397   6.327  12.891
34611SOL    HW2 5841   2.340  17.485   1.943
34612SOL     OW 5842   4.103   4.120   9.077
34612SOL    HW1 5843   4.195   4.141  20.099
34612SOL    HW2 5844   4.077  -6.975   9.003
34613SOL     OW 5845  10.356   4.310  11.246
34613SOL    HW1 5846  10.451  15.350  11.252
34613SOL    HW2 5847  10.325  15.342   0.296
34614SOL     OW 5848   0.951   9.108   4.180
34614SOL    HW1 5849   1.008  -1.980   4.239
34614SOL    HW2 5850   0.919   9.181   4.232
34615SOL     OW 5851   7.718   9.896   7.499
34615SOL    HW1 5852  18.742   9.973  -3.485
34615SOL    HW2 5853  18.679  -1.198 -14.567
34616SOL     OW 5854   2.107   9.916   2.984
34616SOL    HW1 5855  13.229   9.956   3.012
34616SOL    HW2 5856   2.044   9.988   2.984
34617SOL     OW 5857   3.165   9.045   7.916
34617SOL    HW1 5858   3.129  20.150   7.976
34617SOL    HW2 5859  25.282   9.096   7.845
34618SOL     OW 5860   6.998   0.498   7.462
34618SOL    HW1 5861   7.013  22.566   7.556
34618SOL    HW2 5862   7.084   0.517  -3.614
34619SOL     OW 5863   7.785   6.921  -0.539
34619SOL    HW1 5864   7.708   6.909  21.597
34619SOL    HW2 5865  40.873   6.895  -0.626
34620SOL     OW 5866  -1.509   1.841   3.476
34620SOL    HW1 5867  75.839   1.854   3.539
34620SOL    HW2 5868   9.574  12.854  -7.644
34621SOL     OW 5869   7.341   2.826   4.402
34621SOL    HW1 5870  29.429  -8.120  -6.622
34621SOL    HW2 5871 -14.830 -19.265 -17.704
34622SOL     OW 5872   0.705   7.200  -0.987
34622SOL    HW1 5873   0.628  18.207  21.045
34622SOL    HW2 5874   0.760  18.278  21.024
34623SOL     OW 5875   2.038   9.785  10.248
34623SOL    HW1 5876  -9.093  -1.275  -0.769
34623SOL    HW2 5877   2.050   9.747  10.161
34624SOL     OW 5878   1.504   2.156   8.904
34624SOL    HW1 5879   1.455  13.238   8.833
34624SOL    HW2 5880   1.537   2.228   8.957
34625SOL     OW 5881  -3.097   4.234   3.014
34625SOL    HW1 5882   8.006   4.209   3.082
34625SOL    HW2 5883  52.050   4.154   3.000
34626SOL     OW 5884   3.992  -0.642   9.933
34626SOL    HW1 5885 -29.182  21.466  10.005
34626SOL    HW2 5886   3.934  -0.693   9.877
34627SOL     OW 5887   9.335   5.530   8.169
34627SOL    HW1 5888   9.353  -5.599   8.199
34627SOL    HW2 5889   9.269 -16.560   8.101
34628SOL     OW 5890  10.444   4.544   0.815
34628SOL    HW1 5891  10.508  -6.441   0.770
34628SOL    HW2 5892  10.496 -50.724   0.855
34629SOL     OW 5893   8.086  -0.253   7.724
34629SOL    HW1 5894   8.071  21.733   7.711
34629SOL    HW2 5895 -14.069  -0.222   7.773
34630SOL     OW 5896   9.444   3.217   5.485
34630SOL    HW1 5897   9.449   3.240  27.471
34630SOL    HW2 5898 -12.614  14.338   5.531
34631SOL     OW 5899   4.998   3.298   2.420
34631SOL    HW1 5900   4.977   3.388   2.446
34631SOL    HW2 5901   4.918   3.267   2.377
34632SOL     OW 5902   4.850   4.214   2.493
34632SOL    HW1 5903  -6.185   4.118  24.575
34632SOL    HW2 5904   4.859   4.240   2.585
34633SOL     OW 5905   8.791   3.657   0.068
34633SOL    HW1 5906   8.825   3.674   0.156
34633SOL    HW2 5907   8.864  14.658   0.021
34634SOL     OW 5908   8.581   5.589   1.201
34634SOL    HW1 5909  -2.464 -16.502  -9.933
34634SOL    HW2 5910   8.495   5.624   1.226
34635SOL     OW 5911  -0.213   8.215   9.462
34635SOL    HW1 5912  -0.278   8.228   9.394
34635SOL    HW2 5913  10.777  41.339   9.544
34636SOL     OW 5914   4.886   5.151   1.007
34636SOL    HW1 5915   4.809   5.205   1.025
34636SOL    HW2 5916  15.914   5.074   1.062
34637SOL     OW 5917   4.979   0.841   0.494
34637SOL    HW1 5918  -6.154   0.853   0.515
34637SOL    HW2 5919   5.024   0.864   0.575
34638SOL     OW 5920   4.699   0.190  10.857
34638SOL    HW1 5921  -6.315   0.235  10.776
34638SOL    HW2 5922 -17.363   0.097  10.839
34639SOL     OW 5923   1.244   7.449   3.656
34639SOL    HW1 5924  12.252   7.379   3.714
34639SOL    HW2 5925  -9.826   7.530   3.697
34640SOL     OW 5926   3.229   3.153   5.653
34640SOL    HW1 5927   3.284   3.076  16.683
34640SOL    HW2 5928   3.143   3.127   5.618
34641SOL     OW 5929   4.382   5.305   5.398
34641SOL    HW1 5930   4.422   5.226  -5.605
34641SOL    HW2 5931   4.423   5.377  16.486
34642SOL     OW 5932   0.346   1.434   6.172
34642SOL    HW1 5933   0.321  12.475   6.265
34642SOL    HW2 5934  11.329   1.499  28.210
34643SOL     OW 5935   2.514   7.830   0.805
34643SOL    HW1 5936   2.589   7.819  22.826
34643SOL    HW2 5937   2.441   7.792   0.757
34644SOL     OW 5938   5.028   7.801   5.100
34644SOL    HW1 5939  27.022  18.810   5.133
34644SOL    HW2 5940  -6.003   7.760  -6.026
34645SOL     OW 5941   8.089   1.310   7.514
34645SOL    HW1 5942  19.154  -9.820   7.494
34645SOL    HW2 5943   8.158   1.342   7.572
34646SOL     OW 5944   4.415   0.651  10.101
34646SOL    HW1 5945 -17.648  11.727  10.187
34646SOL    HW2 5946   4.457   0.712  10.040
34647SOL     OW 5947   1.575   5.313  10.953
34647SOL    HW1 5948   1.506   5.247  10.939
34647SOL    HW2 5949   1.538   5.373  11.017
34648SOL     OW 5950   3.156   0.366   8.472
34648SOL    HW1 5951   3.202   0.282   8.462
34648SOL    HW2 5952   3.225  11.466   8.498
34649SOL     OW 5953   2.390   3.856   8.258
34649SOL    HW1 5954   2.434   3.805   8.326
34649SOL    HW2 5955   2.309   3.886  19.339
34650SOL     OW 5956  -0.120   2.583   4.635
34650SOL    HW1 5957  10.860   2.652   4.607
34650SOL    HW2 5958  -0.056   2.576  15.603
34651SOL     OW 5959   1.931   1.082   2.939
34651SOL    HW1 5960   1.958   1.169   2.911
34651SOL    HW2 5961 -31.106   1.035   2.952
34652SOL     OW 5962   7.146   4.137   7.348
34652SOL    HW1 5963   7.149   4.182  18.303
34652SOL    HW2 5964   7.126   4.206   7.411
34653SOL     OW 5965   0.734   2.038   8.217
34653SOL    HW1 5966   0.783   2.070   8.142
34653SOL    HW2 5967   0.799   2.029  19.326
34654SOL     OW 5968   6.311   2.507   1.818
34654SOL    HW1 5969   6.350  35.578  -9.148
34654SOL    HW2 5970   6.293  13.479   1.753
34655SOL     OW 5971   5.501   0.216   6.287
34655SOL    HW1 5972   5.533   0.306   6.297
34655SOL    HW2 5973   5.580   0.162   6.296
34656SOL     OW 5974   2.959   9.063   9.459
34656SOL    HW1 5975  36.122   8.979  20.515
34656SOL    HW2 5976   2.879 -24.080   9.413
34657SOL     OW 5977   6.280   3.614   4.924
34657SOL    HW1 5978  17.403 -29.498   4.877
34657SOL    HW2 5979   6.235 -18.383   4.903
34658SOL     OW 5980   9.709   9.650   2.139
34658SOL    HW1 5981   9.760  -1.329  -8.846
34658SOL    HW2 5982   9.657  31.786   2.083
34659SOL     OW 5983   3.022   4.813   6.831
34659SOL    HW1 5984   2.962   4.739   6.823
34659SOL    HW2 5985  -8.011   4.849   6.743
34660SOL     OW 5986   5.300   6.006   9.391
34660SOL    HW1 5987   5.356  17.013 -12.758
34660SOL    HW2 5988   5.211   5.980   9.365
34661SOL     OW 5989   7.254   3.800   7.149
34661SOL    HW1 5990   7.243   3.863  -3.961
34661SOL    HW2 5991   7.187   3.822   7.213
34662SOL     OW 5992   4.370  -0.620   8.422
34662SOL    HW1 5993   4.424  21.422  -2.547
34662SOL    HW2 5994   4.306  -0.564   8.467
34663SOL     OW 5995   8.748   2.352   3.566
34663SOL    HW1 5996   8.664  -8.713   3.604
34663SOL    HW2 5997   8.761   2.291  14.533
34664SOL     OW 5998   9.875   3.207   3.774
34664SOL    HW1 5999 -12.210  14.306   3.699
34664SOL    HW2 6000   9.920   3.130   3.740
34665SOL     OW 6001  -0.591   5.730   0.358
34665SOL    HW1 6002  10.362  16.734  11.416
34665SOL    HW2 6003  10.464   5.708  11.306
34666SOL     OW 6004   6.821   1.591   7.072
34666SOL    HW1 6005   6.880   1.625  18.179
34666SOL    HW2 6006   6.777   1.669   7.038
34667SOL     OW 6007   0.536   5.626  -1.787
34667SOL    HW1 6008   0.611  -5.408  31.389
34667SOL    HW2 6009   0.565  27.744  -1.869
34668SOL     OW 6010   5.547   9.300   3.839
34668SOL    HW1 6011  27.662   9.362   3.776
34668SOL    HW2 6012   5.613   9.230 -18.235
34669SOL     OW 6013   4.378   9.595   5.653
34669SOL    HW1 6014  15.419   9.624  27.642
34669SOL    HW2 6015   4.469   9.597 -16.398
34670SOL     OW 6016   1.152   2.633   3.160
34670SOL    HW1 6017   1.058  -8.390   3.167
34670SOL    HW2 6018   1.162  -8.465   3.085
34671SOL     OW 6019   6.811   6.644   2.649
34671SOL    HW1 6020   6.761 -15.438   2.568
34671SOL    HW2 6021 -15.206   6.716  -8.402
34672SOL     OW 6022   7.053   7.311  10.017
34672SOL    HW1 6023   7.094   7.286  -0.939
34672SOL    HW2 6024   6.972  -3.778  21.053
34673SOL     OW 6025   0.294   2.945  10.854
34673SOL    HW1 6026   0.216   2.997  10.874
34673SOL    HW2 6027   0.277 -19.219  10.893
34674SOL     OW 6028   6.949   5.481   7.255
34674SOL    HW1 6029   6.987  -5.471   7.256
34674SOL    HW2 6030  18.036  16.474   7.186
34675SOL     OW 6031   7.512   5.681   4.598
34675SOL    HW1 6032  18.611  16.651   4.569
34675SOL    HW2 6033   7.531   5.692   4.691
34676SOL     OW 6034   3.131   2.985   6.269
34676SOL    HW1 6035   3.048   2.947  17.279
34676SOL    HW2 6036   3.193  -8.128   6.264
34677SOL     OW 6037   5.668   0.272   2.602
34677SOL    HW1 6038   5.596   0.330   2.628
34677SOL    HW2 6039   5.719   0.260   2.682
34678SOL     OW 6040   6.393   3.067   0.821
34678SOL    HW1 6041   6.432  14.185 -10.180
34678SOL    HW2 6042  17.457   2.996   0.881
34679SOL     OW 6043  11.016   3.335   7.336
34679SOL    HW1 6044  10.962   3.348   7.415
34679SOL    HW2 6045  10.964   3.278 -14.799
34680SOL     OW 6046   6.236   5.103   0.848
34680SOL    HW1 6047  -4.810   5.008   0.857
34680SOL    HW2 6048  17.255  16.177  34.053
34681SOL     OW 6049   8.698   7.771   4.675
34681SOL    HW1 6050  19.749   7.678  -6.385
34681SOL    HW2 6051   8.604 -14.292   4.662
34682SOL     OW 6052   5.514   3.039   5.221
34682SOL    HW1 6053   5.565  -7.936   5.271
34682SOL    HW2 6054  16.555   3.073   5.131
34683SOL     OW 6055   7.598   8.309   3.726
34683SOL    HW1 6056   7.692   8.300  -7.330
34683SOL    HW2 6057 -14.489 -24.729   3.777
34684SOL     OW 6058   9.459   5.201   2.727
34684SOL    HW1 6059   9.553   5.219   2.720
34684SOL    HW2 6060   9.418   5.271  -8.364
34685SOL     OW 6061   1.821   4.608   1.606
34685SOL    HW1 6062   1.795   4.656  -9.355
34685SOL    HW2 6063   1.779   4.523   1.615
34686SOL     OW 6064  10.483   4.255   3.921
34686SOL    HW1 6065  10.561   4.273   3.869
34686SOL    HW2 6066  10.432   4.195  14.907
34687SOL     OW 6067   7.627   4.407   3.085
34687SOL    HW1 6068   7.672   4.491   3.090
34687SOL    HW2 6069  29.648   4.405   3.161
34688SOL     OW 6070  10.366   3.615   3.203
34688SOL    HW1 6071  10.391   3.699   3.165
34688SOL    HW2 6072  10.312  -7.467   3.136
34689SOL     OW 6073  10.283  10.299   4.938
34689SOL    HW1 6074  21.328 -11.750   5.029
34689SOL    HW2 6075  10.315 -22.745   4.887
34690SOL     OW 6076   6.837   2.013   3.291
34690SOL    HW1 6077  -4.265   2.086  36.408
34690SOL    HW2 6078  17.951  35.163   3.240
34691SOL     OW 6079   7.035   7.870   6.704
34691SOL    HW1 6080 -15.042  40.943  -4.252
34691SOL    HW2 6081   7.079   7.811   6.643
34692SOL     OW 6082   2.937  11.349   1.194
34692SOL    HW1 6083   2.933   0.249   1.268
34692SOL    HW2 6084   3.025  11.337   1.158
34693SOL     OW 6085   5.622   9.418   3.040
34693SOL    HW1 6086   5.556   9.484   3.015
34693SOL    HW2 6087   5.606   9.345   2.981
34694SOL     OW 6088   3.438   9.505   6.533
34694SOL    HW1 6089  14.565 -12.598  -4.538
34694SOL    HW2 6090   3.443   9.598   6.552
34695SOL     OW 6091   0.986   5.397   1.799
34695SOL    HW1 6092   0.971  16.398   1.713
34695SOL    HW2 6093   1.068  -5.682   1.828
34696SOL     OW 6094   6.974   9.441   7.109
34696SOL    HW1 6095 -15.066 -23.663   7.195
34696SOL    HW2 6096   6.966   9.529  18.111
34697SOL     OW 6097   2.789   5.688   3.694
34697SOL    HW1 6098   2.855   5.677  14.802
34697SOL    HW2 6099   2.821   5.635   3.621
34698SOL     OW 6100  10.257   6.929   8.864
34698SOL    HW1 6101  -0.785   6.834   8.861
34698SOL    HW2 6102  10.311  17.995   8.789
34699SOL     OW 6103  -0.412  -0.914   8.521
34699SOL    HW1 6104  21.630  10.214  19.552
34699SOL    HW2 6105  -0.392  10.117   8.614
34700SOL     OW 6106   3.890   5.179   3.539
34700SOL    HW1 6107   3.969   5.132  14.605
34700SOL    HW2 6108   3.861   5.134   3.459
34701SOL     OW 6109   3.599   2.246   3.648
34701SOL    HW1 6110  -7.419   2.334   3.679
34701SOL    HW2 6111   3.682   2.210   3.617
34702SOL     OW 6112  -0.104   7.708   2.807
34702SOL    HW1 6113  -0.050  18.682   2.764
34702SOL    HW2 6114  21.988  29.772   2.900
34703SOL     OW 6115  10.295   8.269   4.867
34703SOL    HW1 6116  10.278 -13.880   4.930
34703SOL    HW2 6117  10.378   8.244  15.865
34704SOL     OW 6118   6.318  11.622   8.095
34704SOL    HW1 6119  28.373  11.610  30.266
34704SOL    HW2 6120  17.435   0.639   8.098
34705SOL     OW 6121   1.797   3.655   5.293
34705SOL    HW1 6122   1.776   3.568   5.258
34705SOL    HW2 6123   1.734   3.669   5.363
34706SOL     OW 6124   1.657   9.851  10.051
34706SOL    HW1 6125   1.701   9.857  -0.903
34706SOL    HW2 6126  12.749   9.906   9.993
34707SOL     OW 6127   4.461   7.303   8.619
34707SOL    HW1 6128   4.525  18.367   8.686
34707SOL    HW2 6129   4.483   7.357   8.543
34708SOL     OW 6130   7.332   8.260   7.065
34708SOL    HW1 6131   7.408   8.202  29.142
34708SOL    HW2 6132   7.370   8.348  18.107
34709SOL     OW 6133   0.608   6.774   8.293
34709SOL    HW1 6134   0.699   6.790  30.397
34709SOL    HW2 6135  11.597   6.838   8.343
34710SOL     OW 6136   4.685   2.357   1.646
34710SOL    HW1 6137  15.809 -30.768  34.810
34710SOL    HW2 6138  26.787   2.356   1.553
34711SOL     OW 6139   3.656   1.446  10.133
34711SOL    HW1 6140   3.629   1.388  10.063
34711SOL    HW2 6141   3.677   1.529  10.090
34712SOL     OW 6142   5.542   2.850   6.591
34712SOL    HW1 6143   5.628   2.844   6.632
34712SOL    HW2 6144   5.553   2.916   6.523
34713SOL     OW 6145   1.887   8.447   6.203
34713SOL    HW1 6146  24.055   8.424 -15.847
34713SOL    HW2 6147  -9.200   8.364   6.204
34714SOL     OW 6148   9.770   2.987   7.331
34714SOL    HW1 6149   9.702  14.090   7.308
34714SOL    HW2 6150   9.739   2.946   7.411
34715SOL     OW 6151   3.205   0.235   6.678
34715SOL    HW1 6152  25.258  22.406  -4.352
34715SOL    HW2 6153   3.146  44.358   6.612
34716SOL     OW 6154   7.333   1.915   6.984
34716SOL    HW1 6155  40.489 -20.106   6.918
34716SOL    HW2 6156   7.288  -9.193   6.933
34717SOL     OW 6157   6.590   5.246   9.707
34717SOL    HW1 6158   6.643   5.244   9.627
34717SOL    HW2 6159 -26.599  16.348   9.686
34718SOL     OW 6160   1.741   7.076  11.036
34718SOL    HW1 6161 -20.344   7.031  10.952
34718SOL    HW2 6162  12.874   7.093  11.049
34719SOL     OW 6163  -0.686   9.317   7.183
34719SOL    HW1 6164  10.335   9.234   7.228
34719SOL    HW2 6165  10.281  -1.666  -3.833
34720SOL     OW 6166  10.141  10.074   8.553
34720SOL    HW1 6167  10.142   9.990 -13.481
34720SOL    HW2 6168  10.211  10.067   8.488
34721SOL     OW 6169   9.043   4.566   6.000
34721SOL    HW1 6170   8.970  37.709   5.944
34721SOL    HW2 6171   9.010   4.578  28.168
34722SOL     OW 6172   2.853   8.061   3.976
34722SOL    HW1 6173   2.877  19.187  -7.095
34722SOL    HW2 6174 -19.160  -3.000  -6.998
34723SOL     OW 6175   3.601   3.159   8.121
34723SOL    HW1 6176   3.507   3.170   8.108
34723SOL    HW2 6177  14.673  14.168   8.036
34724SOL     OW 6178   2.966  10.797   6.113
34724SOL    HW1 6179   3.014  10.736  17.097
34724SOL    HW2 6180  47.146  10.771   6.202
34725SOL     OW 6181   2.097   0.358   6.526
34725SOL    HW1 6182  35.244   0.448  -4.502
34725SOL    HW2 6183   2.175   0.305   6.546
34726SOL     OW 6184   1.245   1.404   7.454
34726SOL    HW1 6185 -20.864   1.326   7.502
34726SOL    HW2 6186   1.184   1.412  -3.658
34727SOL     OW 6187   2.815   6.341   8.298
34727SOL    HW1 6188   2.793   6.434   8.292
34727SOL    HW2 6189   2.781   6.303  -2.823
34728SOL     OW 6190  11.049   3.415   0.751
34728SOL    HW1 6191  11.027   3.323   0.739
34728SOL    HW2 6192   0.031  -7.594   0.662
34729SOL     OW 6193   6.476  10.023   7.851
34729SOL    HW1 6194   6.560  -1.056  18.916
34729SOL    HW2 6195   6.483  10.033   7.756
34730SOL     OW 6196  11.212   7.114   5.414
34730SOL    HW1 6197  11.183   7.174  27.562
34730SOL    HW2 6198 -10.920   7.138   5.338
34731SOL     OW 6199   4.963   2.537   5.455
34731SOL    HW1 6200   5.056   2.522   5.434
34731SOL    HW2 6201   4.927  -8.590   5.467
34732SOL     OW 6202   2.274   2.204   1.929
34732SOL    HW1 6203   2.325   2.284   1.943
34732SOL    HW2 6204   2.236   2.214  -9.198
34733SOL     OW 6205   1.514   5.306   1.591
34733SOL    HW1 6206   1.490   5.332   1.680
34733SOL    HW2 6207  12.648   5.289   1.596
34734SOL     OW 6208   4.420  11.315   5.884
34734SOL    HW1 6209 -17.747   0.247   5.909
34734SOL    HW2 6210 -28.640  11.262 -16.141
34735SOL     OW 6211   4.601  -0.439   9.046
34735SOL    HW1 6212   4.623  10.693   9.062
34735SOL    HW2 6213  26.585  10.597   9.056
34736SOL     OW 6214   6.732   4.441   0.696
34736SOL    HW1 6215   6.772  15.544   0.755
34736SOL    HW2 6216   6.656   4.408   0.745
34737SOL     OW 6217   6.304   0.728   1.242
34737SOL    HW1 6218   6.270   0.816   1.227
34737SOL    HW2 6219  17.344   0.717  -9.703
34738SOL     OW 6220   1.967   3.774   3.384
34738SOL    HW1 6221   1.884  25.890 -18.664
34738SOL    HW2 6222   2.017   3.850 -18.725
34739SOL     OW 6223   2.764   7.017  10.145
34739SOL    HW1 6224   2.816   6.937  10.141
34739SOL    HW2 6225  -8.299  18.075  10.055
34740SOL     OW 6226   2.703   2.908   6.365
34740SOL    HW1 6227   2.681  25.071  -4.636
34740SOL    HW2 6228   2.682  -8.196  17.472
34741SOL     OW 6229  10.900   7.321   6.919
34741SOL    HW1 6230  -0.090  -3.758   6.990
34741SOL    HW2 6231  10.839  18.292  17.931
34742SOL     OW 6232   3.837   6.761   5.772
34742SOL    HW1 6233  14.914   6.818  16.879
34742SOL    HW2 6234   3.797  -4.218  16.749
34743SOL     OW 6235   4.329   0.966   7.206
34743SOL    HW1 6236   4.269   1.001  -3.768
34743SOL    HW2 6237   4.416   0.978 -14.834
34744SOL     OW 6238   8.146   0.679  -0.333
34744SOL    HW1 6239  -2.856   0.732  10.778
34744SOL    HW2 6240   8.184 -10.323  -0.412
34745SOL     OW 6241   6.006   8.153   6.322
34745SOL    HW1 6242  -4.997   8.086 -15.700
34745SOL    HW2 6243 -16.035   8.235   6.353
34746SOL     OW 6244   3.312   1.791   6.260
34746SOL    HW1 6245   3.366   1.719   6.225
34746SOL    HW2 6246  25.455   1.855 -26.827
34747SOL     OW 6247   8.325   4.740   2.900
34747SOL    HW1 6248  30.390   4.799 -19.105
34747SOL    HW2 6249  -2.803  -6.321 -19.210
34748SOL     OW 6250   2.232   1.899   9.874
34748SOL    HW1 6251   2.188  -9.225   9.879
34748SOL    HW2 6252   2.184   1.955   9.935
34749SOL     OW 6253   7.070   8.512   9.399
34749SOL    HW1 6254   7.073  19.592   9.486
34749SOL    HW2 6255   7.120   8.431   9.410
34750SOL     OW 6256   4.821   0.969   8.875
34750SOL    HW1 6257  15.921   0.895   8.880
34750SOL    HW2 6258   4.814   1.000   8.965
34751SOL     OW 6259   3.941   8.438   9.917
34751SOL    HW1 6260   3.920   8.521   9.959
34751SOL    HW2 6261  14.932  -2.667   9.967
34752SOL     OW 6262   9.667   8.693   4.658
34752SOL    HW1 6263   9.711   8.683   4.742
34752SOL    HW2 6264  -1.457   8.734   4.679
34753SOL     OW 6265  10.061   3.654   6.977
34753SOL    HW1 6266  10.057  36.867   6.962
34753SOL    HW2 6267  10.140  -7.399   7.028
34754SOL     OW 6268   3.440   3.874   7.351
34754SOL    HW1 6269   3.516   3.923   7.319
34754SOL    HW2 6270   3.380   3.942   7.383
34755SOL     OW 6271   0.225   9.501   4.901
34755SOL    HW1 6272   0.260   9.553   4.974
34755SOL    HW2 6273   0.267   9.415   4.910
34756SOL     OW 6274   0.455   1.205  10.499
34756SOL    HW1 6275   0.423  -9.844  10.410
34756SOL    HW2 6276   0.458  12.155  10.534
34757SOL     OW 6277   2.098  12.375   7.406
34757SOL    HW1 6278 -19.915   1.315   7.340
34757SOL    HW2 6279   2.128  -9.749  -3.555
34758SOL     OW 6280   5.756   9.021   1.380
34758SOL    HW1 6281   5.731   8.950   1.438
34758SOL    HW2 6282   5.677   9.041  -9.709
34759SOL     OW 6283   7.160   4.463  10.165
34759SOL    HW1 6284  40.243   4.525  10.101
34759SOL    HW2 6285   7.194   4.519  10.235
34760SOL     OW 6286   4.636   3.008   1.462
34760SOL    HW1 6287  26.645   2.944   1.457
34760SOL    HW2 6288  15.696   3.014 -20.523
34761SOL     OW 6289   6.878   3.727  -0.435
34761SOL    HW1 6290   6.841   3.760  -0.353
34761SOL    HW2 6291   6.891   3.634  32.699
34762SOL     OW 6292  10.631   9.783   6.502
34762SOL    HW1 6293  -0.379  20.775   6.424
34762SOL    HW2 6294  10.551   9.739   6.528
34763SOL     OW 6295   8.271   2.933   9.491
34763SOL    HW1 6296  -2.769   3.025   9.519
34763SOL    HW2 6297  -2.716   2.888  20.597
34764SOL     OW 6298  10.393   0.577   2.674
34764SOL    HW1 6299  10.454   0.508   2.699
34764SOL    HW2 6300  10.436  11.661   2.600
34765SOL     OW 6301   2.681   3.643   2.698
34765SOL    HW1 6302   2.748   3.709   2.683
34765SOL    HW2 6303  -8.315   3.576   2.750
34766SOL     OW 6304   8.470  10.755   5.822
34766SOL    HW1 6305  19.475  10.715   5.902
34766SOL    HW2 6306   8.523  10.686   5.782
34767SOL     OW 6307   4.449   3.029   0.975
34767SOL    HW1 6308   4.438 -30.054   1.062
34767SOL    HW2 6309   4.391   3.081   0.919
34768SOL     OW 6310   2.322  13.973   3.634
34768SOL    HW1 6311  -8.700 -41.133   3.659
34768SOL    HW2 6312   2.245  13.978   3.578
34769SOL     OW 6313   0.038  10.828   5.298
34769SOL    HW1 6314  -0.000  10.809   5.383
34769SOL    HW2 6315   0.128  10.797   5.304
34770SOL     OW 6316   4.308   1.739   2.453
34770SOL    HW1 6317   4.270   1.715   2.369
34770SOL    HW2 6318   4.390   1.783   2.431
34771SOL     OW 6319   2.599   2.216   1.880
34771SOL    HW1 6320  -8.467   2.300  -9.122
34771SOL    HW2 6321  -8.464   2.223   1.787
34772SOL     OW 6322  -0.180   6.142   3.654
34772SOL    HW1 6323  32.992   6.183   3.722
34772SOL    HW2 6324  10.809 -26.905  -7.424
34773SOL     OW 6325   7.312   4.853   2.956
34773SOL    HW1 6326   7.300  15.866  -8.174
34773SOL    HW2 6327   7.319   4.771   3.005
34774SOL     OW 6328   5.225   7.418   4.887
34774SOL    HW1 6329  16.282  -3.628  -6.059
34774SOL    HW2 6330   5.163  -3.692 -17.210
34775SOL     OW 6331   2.955   3.384   0.778
34775SOL    HW1 6332   3.049   3.370   0.788
34775SOL    HW2 6333   2.914  14.348   0.820
34776SOL     OW 6334   9.879   5.872   9.983
34776SOL    HW1 6335   9.797   5.899  -1.016
34776SOL    HW2 6336   9.880   5.777   9.990
34777SOL     OW 6337   7.013  10.910   2.129
34777SOL    HW1 6338   6.997  10.865  13.085
34777SOL    HW2 6339   7.005  11.003  -8.932
34778SOL     OW 6340   2.538   4.416  11.495
34778SOL    HW1 6341  -8.534 -17.618  11.417
34778SOL    HW2 6342  24.712   4.413   0.442
34779SOL     OW 6343   7.430  10.933   3.953
34779SOL    HW1 6344   7.460  10.864   4.013
34779SOL    HW2 6345  -3.570  10.910   3.869
34780SOL     OW 6346  11.435   9.213  -2.617
34780SOL    HW1 6347 -10.716   9.237  30.560
34780SOL    HW2 6348  11.400  20.266  30.414
34781SOL     OW 6349  -0.204   4.169   5.518
34781SOL    HW1 6350  10.891   4.220   5.577
34781SOL    HW2 6351  -0.146   4.141   5.448
34782SOL     OW 6352   6.550   6.948   7.780
34782SOL    HW1 6353   6.612   6.910   7.842
34782SOL    HW2 6354   6.528   6.876   7.721
34783SOL     OW 6355   4.763   1.839   6.781
34783SOL    HW1 6356   4.823   1.853  -4.332
34783SOL    HW2 6357  15.856  12.839  28.928
34784SOL     OW 6358   9.506   4.236   1.594
34784SOL    HW1 6359   9.432   4.193   1.638
34784SOL    HW2 6360 -23.568   4.165   1.548
34785SOL     OW 6361   9.661   9.178   1.951
34785SOL    HW1 6362   9.755   9.184  -9.073
34785SOL    HW2 6363  20.663   9.158   2.037
34786SOL     OW 6364   0.715   9.830   5.836
34786SOL    HW1 6365  11.714  20.846   5.920
34786SOL    HW2 6366   0.694   9.756   5.779
34787SOL     OW 6367   9.376   8.033   1.198
34787SOL    HW1 6368  20.465  30.095  12.157
34787SOL    HW2 6369   9.358   7.947   1.234
34788SOL     OW 6370  -0.241   2.518  10.756
34788SOL    HW1 6371  -0.310   2.581  10.779
34788SOL    HW2 6372  10.836   2.552  10.675
34789SOL     OW 6373   0.013   5.113   7.451
34789SOL    HW1 6374   0.102   5.095 -36.676
34789SOL    HW2 6375  -0.029  16.199   7.524
34790SOL     OW 6376   4.282   5.558  10.043
34790SOL    HW1 6377  15.378   5.596   9.976
34790SOL    HW2 6378 -17.737   5.515  10.104
34791SOL     OW 6379   0.515   8.797   3.337
34791SOL    HW1 6380   0.599   8.833  -7.674
34791SOL    HW2 6381   0.520   8.704   3.360
34792SOL     OW 6382  10.520   7.766   2.351
34792SOL    HW1 6383  10.427 -25.333   2.362
34792SOL    HW2 6384  10.564   7.849   2.369
34793SOL     OW 6385   7.499   2.902   2.425
34793SOL    HW1 6386   7.415   2.867 -30.724
34793SOL    HW2 6387   7.506 -19.207   2.516
34794SOL     OW 6388  11.201  10.302   7.800
34794SOL    HW1 6389  11.156  10.222   7.774
34794SOL    HW2 6390 -10.909  10.319  18.929
34795SOL     OW 6391   2.246   1.378   2.783
34795SOL    HW1 6392  35.342   1.376   2.690
34795SOL    HW2 6393  46.467  -9.590   2.790
34796SOL     OW 6394   8.592   9.439   6.439
34796SOL    HW1 6395   8.681  -1.627   6.461
34796SOL    HW2 6396   8.536   9.391   6.500
34797SOL     OW 6397  11.638   2.940   7.656
34797SOL    HW1 6398 -10.363   2.988   7.683
34797SOL    HW2 6399   0.546 -19.147   7.736
34798SOL     OW 6400   4.304   8.236  10.510
34798SOL    HW1 6401  26.393  19.341  10.440
34798SOL    HW2 6402  15.411   8.259  10.574
34799SOL     OW 6403   5.419   5.895   9.645
34799SOL    HW1 6404   5.367  16.957   9.568
34799SOL    HW2 6405  -5.612   5.977   9.694
34800SOL     OW 6406   7.217   1.430   6.317
34800SOL    HW1 6407   7.301  12.463   6.271
34800SOL    HW2 6408   7.155  -9.582   6.249
34801SOL     OW 6409   5.481   8.566   7.165
34801SOL    HW1 6410   5.554  19.618   7.104
34801SOL    HW2 6411   5.436   8.487   7.134
34802SOL     OW 6412   9.118   1.329   9.906
34802SOL    HW1 6413   9.064   1.389   9.957
34802SOL    HW2 6414   9.056   1.281   9.851
34803SOL     OW 6415   5.672   8.127   5.777
34803SOL    HW1 6416   5.641  30.117   5.789
34803SOL    HW2 6417  27.828  30.197 -27.399
34804SOL     OW 6418   8.644   1.056   7.615
34804SOL    HW1 6419   8.658 -10.071  18.690
34804SOL    HW2 6420   8.732   1.093  18.645
34805SOL     OW 6421   3.052   7.820   4.313
34805SOL    HW1 6422   3.116   7.892   4.312
34805SOL    HW2 6423 -30.083  29.884  26.485
34806SOL     OW 6424   2.765   4.189   1.758
34806SOL    HW1 6425   2.734  15.186   1.678
34806SOL    HW2 6426  -8.323   4.146   1.828
34807SOL     OW 6427  10.583   2.149   7.083
34807SOL    HW1 6428  10.613  13.251   7.149
34807SOL    HW2 6429 -11.442   2.072   7.098
34808SOL     OW 6430   9.991   1.488   9.760
34808SOL    HW1 6431   9.956   1.539  20.726
34808SOL    HW2 6432  10.086   1.493   9.748
34809SOL     OW 6433   6.907  -0.866  10.146
34809SOL    HW1 6434  17.859  21.242  10.172
34809SOL    HW2 6435   6.966  43.358  10.183
34810SOL     OW 6436   7.103   8.618   3.618
34810SOL    HW1 6437  18.232  30.728   3.602
34810SOL    HW2 6438  -3.932   8.523  -7.433
34811SOL     OW 6439   7.536   7.963   5.378
34811SOL    HW1 6440   7.464   7.903   5.394
34811SOL    HW2 6441  18.651   7.907  -5.679
34812SOL     OW 6442   3.621   4.284   4.649
34812SOL    HW1 6443  25.667  15.403   4.608
34812SOL    HW2 6444   3.675   4.314   4.722
34813SOL     OW 6445   1.350   6.524   4.831
34813SOL    HW1 6446   1.359   6.433   4.858
34813SOL    HW2 6447   1.382   6.526   4.741
34814SOL     OW 6448   2.868   2.413   0.388
34814SOL    HW1 6449   2.859   2.319   0.404
34814SOL    HW2 6450  13.818   2.447   0.390
34815SOL     OW 6451   2.354   2.717   3.975
34815SOL    HW1 6452   2.414   2.643   3.987
34815SOL    HW2 6453  24.465   2.760   3.895
34816SOL     OW 6454  -1.087   8.520   0.761
34816SOL    HW1 6455  20.989  -2.475   0.676
34816SOL    HW2 6456  -0.994   8.512   0.781
34817SOL     OW 6457   4.903   8.962   0.493
34817SOL    HW1 6458  15.956 -57.370   0.497
34817SOL    HW2 6459   4.827   8.978   0.548
34818SOL     OW 6460   7.485   3.264   6.950
34818SOL    HW1 6461   7.533   3.340  -4.055
34818SOL    HW2 6462   7.551  -7.826   6.902
34819SOL     OW 6463   1.676   3.466   4.027
34819SOL    HW1 6464 -20.309   3.447  -7.016
34819SOL    HW2 6465   1.635   3.383   4.051
34820SOL     OW 6466  -0.607   3.382   0.672
34820SOL    HW1 6467  10.490   3.433   0.729
34820SOL    HW2 6468  -0.584   3.291   0.690
34821SOL     OW 6469   8.263   7.254   2.440
34821SOL    HW1 6470   8.308   7.217  13.556
34821SOL    HW2 6471   8.327 -14.833   2.369
34822SOL     OW 6472   7.353   7.275  10.315
34822SOL    HW1 6473   7.267  -3.806  10.311
34822SOL    HW2 6474   7.376 -25.844  10.408
34823SOL     OW 6475   6.244   8.548   0.211
34823SOL    HW1 6476   6.180   8.619   0.218
34823SOL    HW2 6477   6.320   8.579   0.260
34824SOL     OW 6478  10.364  10.791   0.165
34824SOL    HW1 6479  10.336 -11.371   0.203
34824SOL    HW2 6480  10.409  10.836   0.235
34825SOL     OW 6481   7.610   1.684   5.651
34825SOL    HW1 6482   7.572   1.733  16.764
34825SOL    HW2 6483   7.635 -20.479   5.689
34826SOL     OW 6484   3.523   6.804   4.599
34826SOL    HW1 6485   3.552  17.932  15.615
34826SOL    HW2 6486   3.515   6.807   4.694
34827SOL     OW 6487   2.876   6.654   3.306
34827SOL    HW1 6488   2.953  17.699 -40.909
34827SOL    HW2 6489   2.912   6.658  -7.645
34828SOL     OW 6490   0.688   0.186  10.530
34828SOL    HW1 6491   0.773   0.144  10.516
34828SOL    HW2 6492   0.632   0.150 -11.618
34829SOL     OW 6493   7.521  10.920   6.873
34829SOL    HW1 6494   7.599  -0.074   6.840
34829SOL    HW2 6495   7.490  -0.064   6.944
34830SOL     OW 6496   6.292   2.142   2.366
34830SOL    HW1 6497   6.240   2.222   2.373
34830SOL    HW2 6498   6.368   2.158   2.422
34831SOL     OW 6499   9.539   8.660   0.458
34831SOL    HW1 6500   9.593   8.585   0.432
34831SOL    HW2 6501  20.640  19.758   0.502
34832SOL     OW 6502  -0.333   2.662   1.738
34832SOL    HW1 6503  -0.341   2.757   1.739
34832SOL    HW2 6504  10.622 -19.448   1.707
34833SOL     OW 6505   5.831   8.411   7.800
34833SOL    HW1 6506  16.898 -24.785   7.751
34833SOL    HW2 6507  16.825  -2.663   7.877
34834SOL     OW 6508   1.455  10.501   4.032
34834SOL    HW1 6509   1.520 -22.593   4.099
34834SOL    HW2 6510   1.375  -0.495   4.060
34835SOL     OW 6511   9.807  10.350  -0.075
34835SOL    HW1 6512   9.855  10.433  -0.065
34835SOL    HW2 6513   9.810 -11.746  21.910
34836SOL     OW 6514   1.953   1.314   5.267
34836SOL    HW1 6515  46.129  -9.820  -5.766
34836SOL    HW2 6516  12.946   1.324   5.184
34837SOL     OW 6517   6.526   8.115  10.574
34837SOL    HW1 6518  17.637   8.159 -11.550
34837SOL    HW2 6519   6.506   8.039  -0.520
34838SOL     OW 6520   1.456   9.962   7.355
34838SOL    HW1 6521  -9.488   9.953   7.354
34838SOL    HW2 6522   1.424  20.918   7.389
34839SOL     OW 6523   0.733   4.903   2.399
34839SOL    HW1 6524  11.860   4.940   2.400
34839SOL    HW2 6525   0.746  15.850  13.419
34840SOL     OW 6526   4.062  10.048  -1.144
34840SOL    HW1 6527  15.050   9.993   9.956
34840SOL    HW2 6528   3.996 -23.016  20.892
34841SOL     OW 6529   7.480   3.617   6.746
34841SOL    HW1 6530   7.462   3.537   6.697
34841SOL    HW2 6531   7.521 -18.493   6.827
34842SOL     OW 6532   6.908   1.623   3.596
34842SOL    HW1 6533  -4.048  23.727   3.556
34842SOL    HW2 6534   6.892   1.690  25.742
34843SOL     OW 6535   7.445  -0.407   0.758
34843SOL    HW1 6536  29.601  -0.353  22.857
34843SOL    HW2 6537  40.497  10.664  11.859
34844SOL     OW 6538   5.730   8.783   4.162
34844SOL    HW1 6539  27.880   8.788   4.098
34844SOL    HW2 6540   5.658   8.831   4.121
34845SOL     OW 6541   6.394   8.662   5.639
34845SOL    HW1 6542   6.462   8.649   5.705
34845SOL    HW2 6543 -26.698   8.607  -5.474
34846SOL     OW 6544   8.102   8.760   8.932
34846SOL    HW1 6545   8.019   8.719   8.910
34846SOL    HW2 6546  -2.887   8.691   8.975
34847SOL     OW 6547   3.364   8.811   2.753
34847SOL    HW1 6548   3.363   8.748  13.864
34847SOL    HW2 6549   3.328   8.763   2.678
34848SOL     OW 6550   2.351   6.803   4.992
34848SOL    HW1 6551  -8.625  39.993   4.982
34848SOL    HW2 6552   2.297   6.830   5.066
34849SOL     OW 6553   7.416  -0.141   6.579
34849SOL    HW1 6554   7.469  10.978  17.616
34849SOL    HW2 6555   7.406  -0.161   6.672
34850SOL     OW 6556   1.776   1.641  10.523
34850SOL    HW1 6557  -9.339  12.739  10.536
34850SOL    HW2 6558  12.836   1.608  10.611
34851SOL     OW 6559   4.069   3.691  10.905
34851SOL    HW1 6560   4.037   3.613  10.861
34851SOL    HW2 6561  15.204   3.684  10.900
34852SOL     OW 6562   3.678   7.044   3.439
34852SOL    HW1 6563   3.645   7.117   3.492
34852SOL    HW2 6564   3.762   7.023  -7.561
34853SOL     OW 6565   5.250  10.084   3.993
34853SOL    HW1 6566  16.223  -0.915   3.938
34853SOL    HW2 6567  38.393  10.151   4.057
34854SOL     OW 6568   6.894   4.689   1.616
34854SOL    HW1 6569  17.844   4.723   1.628
34854SOL    HW2 6570  -4.141   4.666  12.563
34855SOL     OW 6571   5.938   2.485  10.512
34855SOL    HW1 6572  -5.056   2.422  -0.584
34855SOL    HW2 6573  -5.031  -8.508  10.558
34856SOL     OW 6574   8.445  10.036   7.651
34856SOL    HW1 6575   8.353  -0.982 -25.457
34856SOL    HW2 6576   8.483  -0.988   7.738
34857SOL     OW 6577   0.958   1.236   0.734
34857SOL    HW1 6578   0.989  12.187  11.755
34857SOL    HW2 6579   1.025  23.373  11.737
34858SOL     OW 6580   0.472   8.863   6.764
34858SOL    HW1 6581   0.419  -2.099  28.863
34858SOL    HW2 6582   0.456 -24.315  17.877
34859SOL     OW 6583  10.691   4.754  10.096
34859SOL    HW1 6584  10.730   4.676  10.059
34859SOL    HW2 6585  10.750   4.779  10.167
34860SOL     OW 6586   4.133   5.313  -1.001
34860SOL    HW1 6587  15.167   5.337  32.210
34860SOL    HW2 6588   4.198   5.374 -12.076
34861SOL     OW 6589   0.603   5.310   1.597
34861SOL    HW1 6590   0.577   5.300  12.545
34861SOL    HW2 6591   0.576   5.398 -31.498
34862SOL     OW 6592  -0.799   9.982   2.566
34862SOL    HW1 6593  -0.766  10.000   2.478
34862SOL    HW2 6594  21.353  10.003   2.624
34863SOL     OW 6595   8.517   6.115   8.184
34863SOL    HW1 6596   8.562   6.056  -2.795
34863SOL    HW2 6597   8.523   6.201   8.226
34864SOL     OW 6598   7.183   6.497   3.480
34864SOL    HW1 6599  40.357  -4.599   3.533
34864SOL    HW2 6600   7.116   6.439   3.444
34865SOL     OW 6601   5.153   1.100   2.957
34865SOL    HW1 6602   5.148   1.169   2.891
34865SOL    HW2 6603 -17.010   1.056  25.031
34866SOL     OW 6604  -0.410   0.674   4.001
34866SOL    HW1 6605  10.639   0.587   4.039
34866SOL    HW2 6606  -0.502   0.680   3.975
34867SOL     OW 6607   7.980   3.393   9.817
34867SOL    HW1 6608  30.126   3.325 -12.273
34867SOL    HW2 6609   7.949   3.383   9.907
34868SOL     OW 6610   3.699   1.127   5.188
34868SOL    HW1 6611   3.761   1.200  16.224
34868SOL    HW2 6612   3.630   1.151  -5.913
34869SOL     OW 6613   1.044   8.898   2.323
34869SOL    HW1 6614   1.064 -24.308  13.396
34869SOL    HW2 6615   1.069   8.894   2.230
34870SOL     OW 6616   8.153   0.622   8.882
34870SOL    HW1 6617   8.095  11.737   8.892
34870SOL    HW2 6618   8.095   0.546   8.890
34871SOL     OW 6619   5.598   5.239   1.102
34871SOL    HW1 6620  16.627   5.286   1.184
34871SOL    HW2 6621   5.601  16.347   1.035
34872SOL     OW 6622  -0.322   5.320   8.100
34872SOL    HW1 6623  21.762   5.224 -13.985
34872SOL    HW2 6624  -0.416  16.378   8.101
34873SOL     OW 6625   6.897   1.344   3.526
34873SOL    HW1 6626   6.907   1.439 -18.546
34873SOL    HW2 6627   6.980   1.309  14.598
34874SOL     OW 6628   1.964   7.851   9.547
34874SOL    HW1 6629   2.021  18.901   9.623
34874SOL    HW2 6630   1.876  18.901   9.582
34875SOL     OW 6631   2.538   7.058   7.686
34875SOL    HW1 6632   2.470  18.048  18.772
34875SOL    HW2 6633   2.499  29.154  29.679
34876SOL     OW 6634   2.258   4.823   6.712
34876SOL    HW1 6635 -19.829  15.772   6.743
34876SOL    HW2 6636   2.188  -6.169  39.877
34877SOL     OW 6637  12.239   4.213   2.145
34877SOL    HW1 6638  -9.764   4.269  13.200
34877SOL    HW2 6639  12.165  15.313   2.140
34878SOL     OW 6640   4.117   5.172  12.401
34878SOL    HW1 6641  26.233  16.150   1.298
34878SOL    HW2 6642   4.056   5.118  -9.626
34879SOL     OW 6643   2.120   6.339   5.919
34879SOL    HW1 6644  -8.954   6.420  28.035
34879SOL    HW2 6645  13.227   6.311   5.981
34880SOL     OW 6646   4.108   5.134   3.267
34880SOL    HW1 6647  37.234   5.105   3.357
34880SOL    HW2 6648   4.136   5.059   3.215
34881SOL     OW 6649   6.986   4.252   3.137
34881SOL    HW1 6650   7.028   4.168   3.120
34881SOL    HW2 6651   6.893   4.236   3.121
34882SOL     OW 6652  11.037   2.439   4.392
34882SOL    HW1 6653  10.946   2.428   4.366
34882SOL    HW2 6654  11.080  13.513 -17.766
34883SOL     OW 6655   2.712   0.174   4.384
34883SOL    HW1 6656   2.642  11.235  37.565
34883SOL    HW2 6657   2.789   0.159  15.477
34884SOL     OW 6658  10.493   4.988   5.543
34884SOL    HW1 6659  10.575   4.963   5.587
34884SOL    HW2 6660  10.432  -6.122   5.564
34885SOL     OW 6661   3.275   4.937   4.076
34885SOL    HW1 6662 -18.826   4.917   3.984
34885SOL    HW2 6663  -7.780   4.854  15.161
34886SOL     OW 6664   7.785   0.593   3.063
34886SOL    HW1 6665  -3.347   0.612   3.078
34886SOL    HW2 6666   7.786   0.504   3.028
34887SOL     OW 6667   9.372   1.781   4.683
34887SOL    HW1 6668  20.488   1.725   4.671
34887SOL    HW2 6669   9.310  12.767  26.812
34888SOL     OW 6670   2.033   3.482   3.235
34888SOL    HW1 6671   1.973  25.635   3.236
34888SOL    HW2 6672   1.977   3.405   3.244
34889SOL     OW 6673   7.572   7.662   0.784
34889SOL    HW1 6674  18.666   7.737  11.849
34889SOL    HW2 6675   7.632   7.588  33.904
34890SOL     OW 6676   7.394   6.209   2.863
34890SOL    HW1 6677  -3.610   6.246  -8.257
34890SOL    HW2 6678   7.450   6.134 -30.237
34891SOL     OW 6679   7.804   3.953  10.314
34891SOL    HW1 6680  -3.321  26.011 -11.802
34891SOL    HW2 6681 -14.280   3.922  -0.635
34892SOL     OW 6682   0.918  10.451   5.073
34892SOL    HW1 6683   0.903  10.378   5.134
34892SOL    HW2 6684   0.918 -44.669   5.128
34893SOL     OW 6685   2.468  10.078   4.836
34893SOL    HW1 6686   2.553  10.037   4.851
34893SOL    HW2 6687   2.437  10.102   4.923
34894SOL     OW 6688   0.758   2.708   8.891
34894SOL    HW1 6689   0.686   2.759   8.854
34894SOL    HW2 6690   0.714   2.645   8.950
34895SOL     OW 6691   9.102   9.130   8.003
34895SOL    HW1 6692  -1.857   9.082   7.987
34895SOL    HW2 6693  -1.913   9.222   8.000
34896SOL     OW 6694   4.954   7.409   9.006
34896SOL    HW1 6695  38.096  -3.558   9.065
34896SOL    HW2 6696   4.859   7.416   8.997
34897SOL     OW 6697   2.193   9.848   9.474
34897SOL    HW1 6698  -8.930   9.802   9.466
34897SOL    HW2 6699   2.243 -12.284   9.537
34898SOL     OW 6700   2.248   0.363  -0.221
34898SOL    HW1 6701   2.198   0.370  10.738
34898SOL    HW2 6702   2.257   0.453  -0.190
34899SOL     OW 6703   4.602   1.732   3.123
34899SOL    HW1 6704   4.554   1.709  -7.997
34899SOL    HW2 6705   4.654   1.654   3.142
34900SOL     OW 6706   4.779   8.324   1.027
34900SOL    HW1 6707   4.817   8.282   1.104
34900SOL    HW2 6708  -6.208   8.403   1.014
34901SOL     OW 6709   3.357   6.321   8.126
34901SOL    HW1 6710   3.338   6.278  19.249
34901SOL    HW2 6711   3.416 -26.858  19.120
34902SOL     OW 6712   6.787   6.637   0.035
34902SOL    HW1 6713   6.739   6.658   0.115
34902SOL    HW2 6714  17.899 -48.499   0.033
34903SOL     OW 6715   0.083   8.644   7.247
34903SOL    HW1 6716  22.108   8.716  18.319
34903SOL    HW2 6717   0.047   8.567  18.330
34904SOL     OW 6718   0.986  11.393   6.151
34904SOL    HW1 6719   0.913   0.410  -4.865
34904SOL    HW2 6720  11.993  11.305   6.167
34905SOL     OW 6721  10.260   3.965   8.846
34905SOL    HW1 6722  10.267  14.914   8.816
34905SOL    HW2 6723  10.242  -7.082   8.940
34906SOL     OW 6724   2.413   6.873   6.891
34906SOL    HW1 6725  13.426   6.953   6.936
34906SOL    HW2 6726   2.352   6.807   6.921
34907SOL     OW 6727  10.749   0.665   6.184
34907SOL    HW1 6728  -0.326   0.612   6.113
34907SOL    HW2 6729  10.802   0.732   6.141
34908SOL     OW 6730   1.883   0.779   4.768
34908SOL    HW1 6731   1.936   0.727   4.707
34908SOL    HW2 6732  12.875   0.840   4.712
34909SOL     OW 6733   7.039   9.617   2.824
34909SOL    HW1 6734   7.055   9.706   2.855
34909SOL    HW2 6735 -15.101   9.581  24.968
34910SOL     OW 6736   7.064  11.489   7.721
34910SOL    HW1 6737   7.120   0.428   7.796
34910SOL    HW2 6738  18.039  11.420   7.719
34911SOL     OW 6739   8.813   1.604   1.927
34911SOL    HW1 6740  19.852  12.571   1.989
34911SOL    HW2 6741   8.859  12.714  35.091
34912SOL     OW 6742   5.949   9.291   0.173
34912SOL    HW1 6743 -16.054   9.262   0.223
34912SOL    HW2 6744 -27.245   9.267   0.226
34913SOL     OW 6745   2.612   6.624   2.029
34913SOL    HW1 6746 -30.593   6.589 -31.065
34913SOL    HW2 6747  13.709   6.547   2.028
34914SOL     OW 6748   7.823   2.803   2.006
34914SOL    HW1 6749   7.909   2.774   2.036
34914SOL    HW2 6750   7.776  -8.214   2.087
34915SOL     OW 6751   3.945   7.986   0.921
34915SOL    HW1 6752   3.873  -3.022  34.095
34915SOL    HW2 6753   3.930   8.026   0.836
34916SOL     OW 6754   2.343   9.106   1.813
34916SOL    HW1 6755   2.335  31.209   1.905
34916SOL    HW2 6756  -8.626   9.163   1.780
34917SOL     OW 6757   6.288   3.273  11.200
34917SOL    HW1 6758   6.370   3.227   0.149
34917SOL    HW2 6759  -4.797   3.265  11.116
34918SOL     OW 6760   8.938   3.561   7.623
34918SOL    HW1 6761  20.036   3.552   7.699
34918SOL    HW2 6762   8.864   3.611   7.657
34919SOL     OW 6763  10.147   7.038   2.916
34919SOL    HW1 6764  10.186   7.125   2.904
34919SOL    HW2 6765  -0.972   7.040   2.862
34920SOL     OW 6766   9.322   7.053   4.885
34920SOL    HW1 6767  20.329   7.024   4.971
34920SOL    HW2 6768   9.253   7.112  15.893
34921SOL     OW 6769   7.311   0.078   2.027
34921SOL    HW1 6770   7.341   0.135  -9.083
34921SOL    HW2 6771   7.292  -0.006   1.985
34922SOL     OW 6772   0.483   0.165   8.230
34922SOL    HW1 6773   0.457  22.215   8.317
34922SOL    HW2 6774   0.410   0.220   8.200
34923SOL     OW 6775   6.997   6.507   6.647
34923SOL    HW1 6776   6.984   6.413   6.649
34923SOL    HW2 6777   6.940   6.539   6.577
34924SOL     OW 6778   4.413   7.199  11.392
34924SOL    HW1 6779   4.418  18.230  11.487
34924SOL    HW2 6780   4.428  18.150 -10.720
34925SOL     OW 6781   6.834  10.976   8.789
34925SOL    HW1 6782 -15.194 -11.137  -2.324
34925SOL    HW2 6783  -4.195  10.910  30.937
34926SOL     OW 6784   4.008   6.711   6.830
34926SOL    HW1 6785  15.057   6.629  17.918
34926SOL    HW2 6786 -18.031   6.694   6.745
34927SOL     OW 6787   7.642   5.981   1.703
34927SOL    HW1 6788   7.566   5.924   1.711
34927SOL    HW2 6789   7.662   6.010   1.792
34928SOL     OW 6790   6.336   3.589   8.850
34928SOL    HW1 6791  17.432   3.571   8.925
34928SOL    HW2 6792   6.318   3.683   8.856
34929SOL     OW 6793   2.872   4.112   0.289
34929SOL    HW1 6794   2.921  -6.865  11.381
34929SOL    HW2 6795   2.877   4.030   0.338
34930SOL     OW 6796  10.625   7.341   5.672
34930SOL    HW1 6797  10.645   7.387   5.591
34930SOL    HW2 6798  10.533   7.314  -5.378
34931SOL     OW 6799   2.415   5.014  10.488
34931SOL    HW1 6800   2.463   5.050  10.563
34931SOL    HW2 6801  24.450  -6.103  10.523
34932SOL     OW 6802   3.354   7.449   5.889
34932SOL    HW1 6803  14.424   7.412   5.806
34932SOL    HW2 6804   3.374  -3.498   5.883
34933SOL     OW 6805  10.865   2.797  -1.821
34933SOL    HW1 6806  10.867   2.703  31.319
34933SOL    HW2 6807 -11.123   2.819  -1.840
34934SOL     OW 6808   1.999   3.835   8.761
34934SOL    HW1 6809   1.929   3.772   8.746
34934SOL    HW2 6810   2.074   3.799   8.713
34935SOL     OW 6811   0.532  11.000   5.731
34935SOL    HW1 6812   0.512  11.060   5.659
34935SOL    HW2 6813   0.450  10.992   5.779
34936SOL     OW 6814   0.025   7.772  11.725
34936SOL    HW1 6815  -0.057   7.797  11.683
34936SOL    HW2 6816   0.040   7.682 -10.383
34937SOL     OW 6817  11.916   8.892  10.932
34937SOL    HW1 6818  11.850   8.939  -0.057
34937SOL    HW2 6819 -10.093  -2.084  10.918
34938SOL     OW 6820   3.746   9.013   9.233
34938SOL    HW1 6821   3.719  42.184   9.308
34938SOL    HW2 6822  14.705   9.000   9.183
34939SOL     OW 6823   9.021   5.942   9.781
34939SOL    HW1 6824   9.080  17.057  -1.249
34939SOL    HW2 6825  -2.037   5.915  20.911
34940SOL     OW 6826   8.652   3.717   5.718
34940SOL    HW1 6827  -2.334   3.686 -16.287
34940SOL    HW2 6828   8.582   3.652  -5.328
34941SOL     OW 6829   1.955   3.791   0.815
34941SOL    HW1 6830   1.954 -18.299   0.720
34941SOL    HW2 6831   2.001   3.873   0.830
34942SOL     OW 6832   9.837   9.568   8.335
34942SOL    HW1 6833  -1.289  -1.491  19.338
34942SOL    HW2 6834   9.825   9.564   8.430
34943SOL     OW 6835  -0.237   4.382   6.538
34943SOL    HW1 6836  21.763  15.405   6.588
34943SOL    HW2 6837  -0.268   4.400   6.449
34944SOL     OW 6838   1.583   2.594  11.461
34944SOL    HW1 6839   1.559  -8.529  11.501
34944SOL    HW2 6840   1.677  13.627   0.408
34945SOL     OW 6841   6.469   6.399   8.619
34945SOL    HW1 6842   6.440   6.332   8.680
34945SOL    HW2 6843  17.599   6.417   8.644
34946SOL     OW 6844   9.929   9.236   9.420
34946SOL    HW1 6845   9.943   9.222   9.513
34946SOL    HW2 6846 -12.097  -1.728 -12.681
34947SOL     OW 6847   1.526   2.281   3.363
34947SOL    HW1 6848   1.441   2.252 -18.683
34947SOL    HW2 6849   1.525   2.258   3.270
34948SOL     OW 6850   4.221   1.650   4.391
34948SOL    HW1 6851   4.199   1.659   4.484
34948SOL    HW2 6852   4.317   1.655   4.389
34949SOL     OW 6853   4.232   7.646   4.760
34949SOL    HW1 6854   4.320   7.645  15.762
34949SOL    HW2 6855   4.174  29.726   4.683
34950SOL     OW 6856   6.892   8.307   6.889
34950SOL    HW1 6857   6.957   8.256   6.841
34950SOL    HW2 6858   6.868   8.378   6.829
34951SOL     OW 6859   7.300   7.881   7.030
34951SOL    HW1 6860  18.280 -25.300   6.989
34951SOL    HW2 6861   7.375  -3.213   7.056
34952SOL     OW 6862   3.048   3.213   1.784
34952SOL    HW1 6863   2.964  14.248   1.739
34952SOL    HW2 6864 -19.015  -7.733  12.836
34953SOL     OW 6865   0.499   1.211   8.248
34953SOL    HW1 6866  11.588   1.183   8.171
34953SOL    HW2 6867   0.551  12.322   8.285
34954SOL     OW 6868  12.110   7.098  10.568
34954SOL    HW1 6869  12.168   7.155  10.619
34954SOL    HW2 6870  -9.924  18.053  10.566
34955SOL     OW 6871   3.345   1.801  10.888
34955SOL    HW1 6872   3.290  12.903  10.936
34955SOL    HW2 6873  -7.650   1.751  10.957
34956SOL     OW 6874   2.026   5.848  10.845
34956SOL    HW1 6875  -8.952   5.779 -11.209
34956SOL    HW2 6876  -9.099  -5.226 -11.206
34957SOL     OW 6877   4.831   9.384   5.693
34957SOL    HW1 6878   4.873  -1.650   5.607
34957SOL    HW2 6879   4.895  -1.702   5.748
34958SOL     OW 6880   1.395   2.992   4.725
34958SOL    HW1 6881   1.388   3.026  26.893
34958SOL    HW2 6882   1.468   2.931  -6.311
34959SOL     OW 6883   7.283   6.230   9.306
34959SOL    HW1 6884   7.342 -26.923   9.239
34959SOL    HW2 6885   7.341   6.267   9.372
34960SOL     OW 6886   3.673   9.856   4.752
34960SOL    HW1 6887   3.626   9.904   4.820
34960SOL    HW2 6888   3.683   9.768   4.786
34961SOL     OW 6889   1.040   5.461   7.850
34961SOL    HW1 6890   1.038 -27.568   7.885
34961SOL    HW2 6891  23.031  -5.613   7.867
34962SOL     OW 6892   9.708   8.670  10.112
34962SOL    HW1 6893   9.788   8.662  -0.875
34962SOL    HW2 6894   9.714  19.797  32.151
34963SOL     OW 6895   9.258   9.398   6.593
34963SOL    HW1 6896   9.350   9.394  -4.474
34963SOL    HW2 6897  20.294  20.512   6.654
34964SOL     OW 6898   6.349  10.094   1.791
34964SOL    HW1 6899   6.300  10.105  34.829
34964SOL    HW2 6900   6.284  10.068   1.856
34965SOL     OW 6901   6.969   4.952   9.569
34965SOL    HW1 6902   7.033   5.021  20.589
34965SOL    HW2 6903   6.925   4.937  20.525
34966SOL     OW 6904   5.122   6.171   8.859
34966SOL    HW1 6905   5.029  -4.877  -2.163
34966SOL    HW2 6906   5.127   6.200   8.768
34967SOL     OW 6907   0.074  11.122   7.240
34967SOL    HW1 6908  22.061 -10.975 -14.823
34967SOL    HW2 6909  33.206  22.252   7.267
34968SOL     OW 6910   6.423   0.820   2.410
34968SOL    HW1 6911   6.360 -10.183   2.473
34968SOL    HW2 6912   6.504  11.849   2.461
34969SOL     OW 6913   5.905   6.426   5.753
34969SOL    HW1 6914  -5.170   6.510   5.725
34969SOL    HW2 6915   5.943   6.388  38.793
34970SOL     OW 6916  11.416   5.536   5.835
34970SOL    HW1 6917 -21.766   5.592  16.830
34970SOL    HW2 6918  11.479  -5.442   5.874
34971SOL     OW 6919   7.926   2.977   8.397
34971SOL    HW1 6920   8.021   2.981   8.381
34971SOL    HW2 6921   7.918   2.966   8.492
34972SOL     OW 6922   5.511   1.011   4.475
34972SOL    HW1 6923  38.707   0.965   4.443
34972SOL    HW2 6924   5.443   0.991   4.410
34973SOL     OW 6925   4.313   7.160   3.321
34973SOL    HW1 6926   4.332   7.253   3.312
34973SOL    HW2 6927 -17.704   7.116   3.264
34974SOL     OW 6928   3.744   8.081   6.974
34974SOL    HW1 6929   3.675   8.037 -15.055
34974SOL    HW2 6930   3.699   8.154   6.931
34975SOL     OW 6931   0.603   7.851   5.880
34975SOL    HW1 6932   0.644   7.909   5.816
34975SOL    HW2 6933   0.669 -14.294   5.900
34976SOL     OW 6934   0.921   6.337   1.597
34976SOL    HW1 6935   0.848   6.339  34.778
34976SOL    HW2 6936   0.896   6.401  12.569
34977SOL     OW 6937   1.238   7.983   0.500
34977SOL    HW1 6938   1.322  19.048   0.539
34977SOL    HW2 6939   1.262   7.945   0.415
34978SOL     OW 6940   9.056   8.058   3.852
34978SOL    HW1 6941   9.011  19.027   3.805
34978SOL    HW2 6942  20.179   8.069  14.845
34979SOL     OW 6943  -0.354   8.594   2.270
34979SOL    HW1 6944 -11.403  30.618 -19.887
34979SOL    HW2 6945  21.737   8.532   2.342
34980SOL     OW 6946   2.683   7.273   4.985
34980SOL    HW1 6947  13.814   7.285   4.963
34980SOL    HW2 6948   2.648   7.361   4.998
34981SOL     OW 6949   7.414   2.795   6.441
34981SOL    HW1 6950   7.356  -8.321  17.474
34981SOL    HW2 6951   7.468   2.777   6.518
34982SOL     OW 6952   5.643   7.866   9.134
34982SOL    HW1 6953   5.614  18.917 -12.855
34982SOL    HW2 6954   5.738  18.890   9.141
34983SOL     OW 6955   2.338   4.147   4.490
34983SOL    HW1 6956   2.310   4.201   4.564
34983SOL    HW2 6957  24.361   4.070   4.493
34984SOL     OW 6958   2.133   5.688   6.928
34984SOL    HW1 6959   2.085   5.770   6.917
34984SOL    HW2 6960   2.212   5.698   6.875
34985SOL     OW 6961   4.838  10.085   6.532
34985SOL    HW1 6962   4.891  -0.891 -15.500
34985SOL    HW2 6963   4.778  21.177   6.479
34986SOL     OW 6964   6.942  10.269   8.700
34986SOL    HW1 6965   6.947  21.348  -2.252
34986SOL    HW2 6966  28.928  10.254   8.686
34987SOL     OW 6967   7.435   6.187  11.351
34987SOL    HW1 6968  -3.671   6.136 -10.682
34987SOL    HW2 6969  18.456  17.317  11.374
34988SOL     OW 6970   0.761   6.619  10.987
34988SOL    HW1 6971   0.715   6.589 -11.014
34988SOL    HW2 6972   0.831  -4.485  10.974
34989SOL     OW 6973   2.412  -0.666   1.906
34989SOL    HW1 6974   2.321  10.372  12.915
34989SOL    HW2 6975   2.430  10.283  12.972
34990SOL     OW 6976   3.401   3.319   5.938
34990SOL    HW1 6977   3.466   3.276   5.994
34990SOL    HW2 6978  14.368   3.258  -5.107
34991SOL     OW 6979   7.387   4.359   5.286
34991SOL    HW1 6980   7.461   4.307  -5.787
34991SOL    HW2 6981   7.407  37.490   5.379
34992SOL     OW 6982   2.279   7.822   7.714
34992SOL    HW1 6983  -8.691   7.758  -3.340
34992SOL    HW2 6984   2.251   7.808 -14.275
34993SOL     OW 6985   1.197   1.236   2.204
34993SOL    HW1 6986   1.278   1.241   2.153
34993SOL    HW2 6987  12.209   1.145   2.195
34994SOL     OW 6988   2.094   8.221   1.316
34994SOL    HW1 6989   2.037   8.207   1.392
34994SOL    HW2 6990 -19.897  -2.839   1.348
34995SOL     OW 6991   4.592   4.616   3.913
34995SOL    HW1 6992  37.712  15.742   3.873
34995SOL    HW2 6993   4.684  15.636   3.932
34996SOL     OW 6994   9.436   5.874   6.597
34996SOL    HW1 6995   9.377   5.801   6.578
34996SOL    HW2 6996   9.384   5.952   6.580
34997SOL     OW 6997   1.619  -0.453   9.856
34997SOL    HW1 6998   1.684  21.694   9.840
34997SOL    HW2 6999   1.556  21.636   9.784
34998SOL     OW 7000  11.088   0.932  -1.794
34998SOL    HW1 7001 -11.028  11.945  -1.709
34998SOL    HW2 7002  -0.020   0.987  31.286
34999SOL     OW 7003   1.585  10.531   5.593
34999SOL    HW1 7004   1.679  10.538  -5.431
34999SOL    HW2 7005   1.554  10.470  -5.380
35000SOL     OW 7006   0.904   2.979   5.703
35000SOL    HW1 7007   0.828 -19.052 -16.410
35000SOL    HW2 7008   0.914   3.011   5.793
35001SOL     OW 7009   7.068   8.315  -0.590
35001SOL    HW1 7010   7.108  19.281  -0.545
35001SOL    HW2 7011  -3.952   8.300  10.357
35002SOL     OW 7012   2.698   0.102   1.194
35002SOL    HW1 7013   2.722   0.136   1.108
35002SOL    HW2 7014  -8.412   0.159  23.303
35003SOL     OW 7015   0.743   8.141   6.754
35003SOL    HW1 7016   0.835   8.140  17.767
35003SOL    HW2 7017  11.734   8.121   6.674
35004SOL     OW 7018   4.727   5.233   7.755
35004SOL    HW1 7019   4.714  38.276   7.698
35004SOL    HW2 7020   4.662  16.263   7.824
35005SOL     OW 7021   9.230  11.017   9.855
35005SOL    HW1 7022  -1.762  11.066   9.922
35005SOL    HW2 7023 -12.878  10.937   9.900
35006SOL     OW 7024   9.068   0.833   3.265
35006SOL    HW1 7025 -13.010   0.767   3.334
35006SOL    HW2 7026  -1.889   0.820  14.258
35007SOL     OW 7027   6.502   7.765   4.274
35007SOL    HW1 7028   6.576   7.798   4.223
35007SOL    HW2 7029  -4.527   7.670   4.272
35008SOL     OW 7030  10.054   3.736   1.560
35008SOL    HW1 7031  10.067   3.669   1.627
35008SOL    HW2 7032  10.002   3.693   1.492
35009SOL     OW 7033   4.057   1.289   4.276
35009SOL    HW1 7034  15.060   1.351 -17.739
35009SOL    HW2 7035   4.119 -20.842   4.326
35010SOL     OW 7036   5.177   9.869   3.835
35010SOL    HW1 7037   5.199  -1.089  25.958
35010SOL    HW2 7038 -16.851   9.802  25.960
35011SOL     OW 7039   2.750   6.367   4.263
35011SOL    HW1 7040   2.745  -4.577   4.254
35011SOL    HW2 7041   2.807 -15.726   4.339
35012SOL     OW 7042   3.668   6.641   8.226
35012SOL    HW1 7043   3.692   6.565   8.173
35012SOL    HW2 7044  -7.301   6.650   8.290
35013SOL     OW 7045   2.613   0.661   4.000
35013SOL    HW1 7046   2.659   0.722   3.943
35013SOL    HW2 7047  24.645  22.682   3.940
35014SOL     OW 7048   6.236   1.957   1.802
35014SOL    HW1 7049   6.265   2.046   1.781
35014SOL    HW2 7050   6.192  -9.113   1.723
35015SOL     OW 7051   6.229   6.568  11.770
35015SOL    HW1 7052   6.317   6.603   0.739
35015SOL    HW2 7053  17.280  39.600   0.693
35016SOL     OW 7054   5.617   5.057   1.519
35016SOL    HW1 7055   5.576  -6.036  12.627
35016SOL    HW2 7056   5.689 -16.978  12.603
35017SOL     OW 7057   5.165   7.341   7.100
35017SOL    HW1 7058   5.091   7.358   7.160
35017SOL    HW2 7059   5.243   7.359  -3.887
35018SOL     OW 7060   8.394   6.466   6.624
35018SOL    HW1 7061   8.351   6.386  17.694
35018SOL    HW2 7062   8.363   6.477   6.534
35019SOL     OW 7063   8.554   0.166  10.649
35019SOL    HW1 7064   8.580   0.076  10.667
35019SOL    HW2 7065   8.584   0.182  10.560
35020SOL     OW 7066   2.566   0.439   6.113
35020SOL    HW1 7067   2.487   0.459 -26.956
35020SOL    HW2 7068   2.555   0.487 -38.128
35021SOL     OW 7069   8.534   4.543   3.094
35021SOL    HW1 7070   8.543  -6.565   3.027
35021SOL    HW2 7071 -13.551   4.624  -7.996
35022SOL     OW 7072   7.410  10.110   5.336
35022SOL    HW1 7073   7.377  10.051  16.443
35022SOL    HW2 7074  -3.608  10.053  38.381
35023SOL     OW 7075   7.936  -0.769   5.583
35023SOL    HW1 7076   8.016  21.259   5.573
35023SOL    HW2 7077   7.889  10.228   5.654
35024SOL     OW 7078   0.386   6.668  10.899
35024SOL    HW1 7079   0.460   6.711  10.856
35024SOL    HW2 7080   0.425   6.600  10.953
35025SOL     OW 7081   1.627   3.044   5.908
35025SOL    HW1 7082  34.755  -7.916   5.961
35025SOL    HW2 7083  12.631   3.075   5.825
35026SOL     OW 7084   7.318   5.956   8.291
35026SOL    HW1 7085  29.365  -5.005   8.248
35026SOL    HW2 7086  18.282   5.922 -24.779
35027SOL     OW 7087   4.099   7.690   4.518
35027SOL    HW1 7088 -18.056 -14.368   4.463
35027SOL    HW2 7089   4.152  -3.409  15.505
35028SOL     OW 7090   3.604  12.371  10.609
35028SOL    HW1 7091   3.529  -9.681  10.555
35028SOL    HW2 7092   3.653   1.412  10.624
35029SOL     OW 7093  11.805   3.857  10.611
35029SOL    HW1 7094 -10.270  14.918  10.518
35029SOL    HW2 7095   0.681  -7.226  10.622
35030SOL     OW 7096   3.254   3.288   9.276
35030SOL    HW1 7097   3.278   3.368   9.323
35030SOL    HW2 7098   3.241  14.262   9.344
35031SOL     OW 7099   1.877   4.173   0.264
35031SOL    HW1 7100   1.940  15.248   0.327
35031SOL    HW2 7101   1.832 -17.976   0.311
35032SOL     OW 7102   2.588   6.073   4.520
35032SOL    HW1 7103  13.586  17.150   4.597
35032SOL    HW2 7104   2.680   6.100 -17.553
35033SOL     OW 7105   4.786   5.534   2.643
35033SOL    HW1 7106   4.840   5.582  -8.459
35033SOL    HW2 7107   4.760   5.599   2.708
35034SOL     OW 7108   5.376   4.140   8.050
35034SOL    HW1 7109  16.362   4.077  19.137
35034SOL    HW2 7110   5.360  -6.816   8.094
35035SOL     OW 7111   3.959   5.416   9.835
35035SOL    HW1 7112  14.910   5.380   9.843
35035SOL    HW2 7113   3.995   5.410   9.924
35036SOL     OW 7114   8.216   4.720   1.763
35036SOL    HW1 7115   8.132   4.755  -9.307
35036SOL    HW2 7116   8.192  -6.393  45.977
35037SOL     OW 7117   4.838   8.458   5.335
35037SOL    HW1 7118   4.927   8.430  38.433
35037SOL    HW2 7119   4.849   8.512   5.414
35038SOL     OW 7120   8.356   9.546   6.997
35038SOL    HW1 7121 -13.806   9.517  18.075
35038SOL    HW2 7122   8.347   9.641   6.988
35039SOL     OW 7123   3.585   5.848   9.972
35039SOL    HW1 7124  14.620   5.753   9.966
35039SOL    HW2 7125  -7.371   5.871   9.931
35040SOL     OW 7126   2.693   9.729   9.143
35040SOL    HW1 7127   2.722   9.820   9.149
35040SOL    HW2 7128   2.626   9.720   9.211
35041SOL     OW 7129   5.207   7.421   9.905
35041SOL    HW1 7130   5.141   7.370 -12.128
35041SOL    HW2 7131 -16.861  -3.540 -12.120
35042SOL     OW 7132  10.078   8.206   1.475
35042SOL    HW1 7133  10.015  -2.871   1.414
35042SOL    HW2 7134  10.083   8.299   1.451
35043SOL     OW 7135   7.092   1.202   2.629
35043SOL    HW1 7136   7.169  -9.791 -19.418
35043SOL    HW2 7137   7.071   1.245   2.546
35044SOL     OW 7138   5.249   8.765   6.789
35044SOL    HW1 7139  16.249   8.680   6.803
35044SOL    HW2 7140   5.176  19.863   6.769
35045SOL     OW 7141   6.461   7.669   2.357
35045SOL    HW1 7142   6.520 -47.455   2.341
35045SOL    HW2 7143 -15.560  -3.444   2.376
35046SOL     OW 7144   4.412   9.065   6.023
35046SOL    HW1 7145   4.433   8.996  -5.079
35046SOL    HW2 7146   4.490   9.074  17.116
35047SOL     OW 7147   8.796   9.325   8.130
35047SOL    HW1 7148   8.831   9.360   8.048
35047SOL    HW2 7149  19.894  31.437  -2.842
35048SOL     OW 7150   6.206  10.750   9.297
35048SOL    HW1 7151   6.266  -0.296   9.371
35048SOL    HW2 7152  28.342  10.767  20.261
35049SOL     OW 7153   3.604  10.245   5.333
35049SOL    HW1 7154  14.687 -11.798   5.410
35049SOL    HW2 7155   3.652  -0.875  -5.726
35050SOL     OW 7156  10.852   2.994   7.969
35050SOL    HW1 7157  10.931   3.043  -3.095
35050SOL    HW2 7158  10.870   2.962   8.057
35051SOL     OW 7159   5.305   6.222   6.756
35051SOL    HW1 7160   5.313  28.325   6.663
35051SOL    HW2 7161  16.251  17.261  28.852
35052SOL     OW 7162   0.282  10.690   6.402
35052SOL    HW1 7163   0.218 -11.407  -4.568
35052SOL    HW2 7164   0.291 -11.294   6.402
35053SOL     OW 7165   5.807   3.089   1.946
35053SOL    HW1 7166   5.740   3.131  -9.148
35053SOL    HW2 7167   5.848   3.024  12.928
35054SOL     OW 7168   7.991   0.890   2.555
35054SOL    HW1 7169   8.005   0.979   2.587
35054SOL    HW2 7170  19.112  11.884   2.575
35055SOL     OW 7171   5.820   3.260   4.770
35055SOL    HW1 7172   5.874   3.268 -28.427
35055SOL    HW2 7173   5.730  25.334 -28.382
35056SOL     OW 7174   0.905   5.458   8.855
35056SOL    HW1 7175  11.877   5.402   8.818
35056SOL    HW2 7176 -10.172  -5.493   8.850
35057SOL     OW 7177   5.018  11.318   7.328
35057SOL    HW1 7178   5.011 -10.752   7.423
35057SOL    HW2 7179   5.074   0.202  -3.725
35058SOL     OW 7180   8.106   3.818  10.998
35058SOL    HW1 7181 -13.906   3.850  11.058
35058SOL    HW2 7182   8.104 -18.355  11.012
35059SOL     OW 7183   0.828   9.883   3.490
35059SOL    HW1 7184   0.848   9.865  -7.642
35059SOL    HW2 7185  11.834   9.800 -18.556
35060SOL     OW 7186  11.493   9.421   0.944
35060SOL    HW1 7187 -10.544   9.335   0.950
35060SOL    HW2 7188  11.439   9.426 -10.017
35061SOL     OW 7189   8.618   6.494   6.371
35061SOL    HW1 7190  -2.505  17.491   6.356
35061SOL    HW2 7191 -13.444   6.542   6.289
35062SOL     OW 7192   5.192   9.797   5.142
35062SOL    HW1 7193  16.314   9.787  16.134
35062SOL    HW2 7194  -5.831  31.836   5.228
35063SOL     OW 7195   0.172   9.270   5.160
35063SOL    HW1 7196   0.121   9.350  16.212
35063SOL    HW2 7197  11.161  20.242  27.284
35064SOL     OW 7198   8.409   7.919   7.285
35064SOL    HW1 7199   8.498   7.916   7.319
35064SOL    HW2 7200   8.381   8.009   7.299
35065SOL     OW 7201   6.770  10.547  10.421
35065SOL    HW1 7202   6.696  10.608  10.419
35065SOL    HW2 7203   6.814  10.560  10.337
35066SOL     OW 7204   8.605   4.549   5.233
35066SOL    HW1 7205  -2.499   4.583  16.210
35066SOL    HW2 7206  30.749  -6.535   5.180
35067SOL     OW 7207   1.816  10.759   9.763
35067SOL    HW1 7208   1.904 -11.282   9.764
35067SOL    HW2 7209  -9.281  10.831   9.789
35068SOL     OW 7210   1.244   2.761   4.875
35068SOL    HW1 7211   1.278   2.839   4.832
35068SOL    HW2 7212   1.218   2.703  -6.236
35069SOL     OW 7213   5.553  10.284   6.878
35069SOL    HW1 7214  16.579  10.303   6.971
35069SOL    HW2 7215   5.465  10.284   6.841
35070SOL     OW 7216   7.414  -0.211  -0.791
35070SOL    HW1 7217  18.444  10.901  32.266
35070SOL    HW2 7218   7.327  -0.220  10.288
35071SOL     OW 7219   5.450   5.981   7.876
35071SOL    HW1 7220 -16.617   6.040   7.802
35071SOL    HW2 7221   5.415   5.900   7.838
35072SOL     OW 7222   3.859   7.839   6.120
35072SOL    HW1 7223   3.880   7.768   6.060
35072SOL    HW2 7224  -7.276   7.841  17.161
35073SOL     OW 7225   5.559   3.290  10.212
35073SOL    HW1 7226   5.559   3.195  10.199
35073SOL    HW2 7227   5.501   3.304  10.287
35074SOL     OW 7228  10.492   5.218   1.648
35074SOL    HW1 7229  10.510   5.307   1.679
35074SOL    HW2 7230  10.457  16.270  12.599
35075SOL     OW 7231   6.850  11.024   5.529
35075SOL    HW1 7232   6.854  11.101  -5.566
35075SOL    HW2 7233   6.757  11.005   5.538
35076SOL     OW 7234   4.707   7.621   7.564
35076SOL    HW1 7235   4.637  -3.443   7.624
35076SOL    HW2 7236 -17.389   7.713   7.543
35077SOL     OW 7237   8.799   3.354   2.967
35077SOL    HW1 7238   8.781  36.456   3.059
35077SOL    HW2 7239   8.757   3.281   2.921
35078SOL     OW 7240   3.026  10.633   5.251
35078SOL    HW1 7241  -8.006  10.543   5.283
35078SOL    HW2 7242   2.944  10.634   5.201
35079SOL     OW 7243   0.863   3.465   8.378
35079SOL    HW1 7244   0.905   3.487  -2.745
35079SOL    HW2 7245   0.909  14.557   8.443
35080SOL     OW 7246   1.792   9.610   6.021
35080SOL    HW1 7247   1.849   9.565   5.959
35080SOL    HW2 7248   1.850   9.669   6.068
35081SOL     OW 7249   6.303   2.769   7.594
35081SOL    HW1 7250   6.397 -19.326  18.635
35081SOL    HW2 7251  17.306   2.695   7.546
35082SOL     OW 7252   0.034   4.673  10.469
35082SOL    HW1 7253   0.056   4.624  10.548
35082SOL    HW2 7254   0.003   4.606  10.407
35083SOL     OW 7255   8.473   4.539   0.093
35083SOL    HW1 7256   8.569  15.574   0.091
35083SOL    HW2 7257   8.444  26.538   0.050
35084SOL     OW 7258  10.076   6.786   0.033
35084SOL    HW1 7259  10.086   6.880  11.059
35084SOL    HW2 7260  -1.054 -15.303  11.102
35085SOL     OW 7261   6.225  -0.703   3.527
35085SOL    HW1 7262   6.179  32.490   3.565
35085SOL    HW2 7263  -4.810  10.272   3.598
35086SOL     OW 7264   4.022   7.337   1.295
35086SOL    HW1 7265   4.032   7.410   1.234
35086SOL    HW2 7266 -17.974   7.291   1.291
35087SOL     OW 7267   5.515   4.090   5.094
35087SOL    HW1 7268   5.426   4.088   5.059
35087SOL    HW2 7269   5.554  -6.872   5.053
35088SOL     OW 7270  10.617   9.227   5.616
35088SOL    HW1 7271  -0.426   9.238   5.521
35088SOL    HW2 7272  10.663   9.143  -5.412
35089SOL     OW 7273   4.987   4.279   8.141
35089SOL    HW1 7274   5.053   4.287   8.209
35089SOL    HW2 7275  -6.085  -6.850   8.150
35090SOL     OW 7276   2.864   2.644   1.390
35090SOL    HW1 7277   2.909   2.722   1.421
35090SOL    HW2 7278   2.824   2.606   1.468
35091SOL     OW 7279   2.910   8.505   0.952
35091SOL    HW1 7280   2.948  19.480  11.931
35091SOL    HW2 7281   2.909  30.539   1.036
35092SOL     OW 7282   3.033   1.289   8.378
35092SOL    HW1 7283  -8.094   1.253   8.366
35092SOL    HW2 7284  25.098   1.374   8.420
35093SOL     OW 7285   8.720   6.211   5.864
35093SOL    HW1 7286  19.853   6.226   5.873
35093SOL    HW2 7287   8.698   6.243   5.777
35094SOL     OW 7288   2.642   5.109   2.121
35094SOL    HW1 7289   2.591   5.159  -8.855
35094SOL    HW2 7290  35.706   5.107   2.042
35095SOL     OW 7291   2.450   9.780   3.811
35095SOL    HW1 7292  -8.525  31.790   3.794
35095SOL    HW2 7293  24.528   9.832   3.731
35096SOL     OW 7294   4.666   4.514   4.207
35096SOL    HW1 7295  15.729   4.439  -6.888
35096SOL    HW2 7296  15.778  -6.464 -17.886
35097SOL     OW 7297   3.928   5.549   1.517
35097SOL    HW1 7298   3.973   5.583  23.518
35097SOL    HW2 7299  26.077  16.544   1.566
35098SOL     OW 7300  10.363  10.024   7.786
35098SOL    HW1 7301  10.363  -1.052   7.698
35098SOL    HW2 7302  10.340  -1.090   7.842
35099SOL     OW 7303   9.570   9.757   4.877
35099SOL    HW1 7304   9.635   9.713   4.822
35099SOL    HW2 7305   9.615 -12.245  26.989
35100SOL     OW 7306  10.876   8.052   5.586
35100SOL    HW1 7307  10.842   8.033   5.673
35100SOL    HW2 7308  10.813   8.113   5.549
35101SOL     OW 7309   1.492   5.493   3.569
35101SOL    HW1 7310   1.437  16.605   3.541
35101SOL    HW2 7311   1.581  16.569  14.610
35102SOL     OW 7312   5.638   8.739   0.233
35102SOL    HW1 7313  -5.467 -13.318   0.166
35102SOL    HW2 7314 -16.466   8.792   0.308
35103SOL     OW 7315   4.275   7.958   3.726
35103SOL    HW1 7316   4.243 -25.135   3.813
35103SOL    HW2 7317   4.288   7.863   3.733
35104SOL     OW 7318  10.834   8.602   3.742
35104SOL    HW1 7319  10.816   8.518   3.698
35104SOL    HW2 7320  10.753  -2.388   3.730
35105SOL     OW 7321   9.201   3.530   9.151
35105SOL    HW1 7322  -1.837   3.435   9.162
35105SOL    HW2 7323   9.284   3.560   9.189
35106SOL     OW 7324  10.153   5.867   5.069
35106SOL    HW1 7325  10.129  -5.136   5.154
35106SOL    HW2 7326  10.072   5.827   5.037
35107SOL     OW 7327   7.890   8.542   8.871
35107SOL    HW1 7328   7.944   8.464   8.883
35107SOL    HW2 7329   7.800   8.511 -13.201
35108SOL     OW 7330   9.763   7.687  11.436
35108SOL    HW1 7331  20.879 -14.435 -10.682
35108SOL    HW2 7332   9.795  -3.318  11.519
35109SOL     OW 7333   2.396   5.174   0.409
35109SOL    HW1 7334  24.456   5.252   0.358
35109SOL    HW2 7335   2.330   5.173  11.518
35110SOL     OW 7336   9.564   9.230   0.208
35110SOL    HW1 7337   9.635 -23.825  11.259
35110SOL    HW2 7338   9.525   9.223   0.295
35111SOL     OW 7339   1.629   2.805   7.102
35111SOL    HW1 7340   1.605  -8.293   7.030
35111SOL    HW2 7341   1.707   2.851   7.072
35112SOL     OW 7342   6.281  10.021  10.300
35112SOL    HW1 7343  -4.712  -1.100  -0.759
35112SOL    HW2 7344   6.345  10.074 -33.810
35113SOL     OW 7345   6.877   6.518   7.789
35113SOL    HW1 7346   6.877   6.592   7.729
35113SOL    HW2 7347   6.908   6.554   7.872
35114SOL     OW 7348   9.367   5.493   5.195
35114SOL    HW1 7349   9.382   5.557   5.126
35114SOL    HW2 7350   9.448   5.442   5.200
35115SOL     OW 7351   6.806   7.222   9.925
35115SOL    HW1 7352   6.793   7.227   9.830
35115SOL    HW2 7353   6.743   7.285  -1.078
35116SOL     OW 7354   6.701   9.970   2.084
35116SOL    HW1 7355   6.774  -1.014   2.112
35116SOL    HW2 7356  -4.386  -1.088   2.164
35117SOL     OW 7357   8.084   0.564   9.974
35117SOL    HW1 7358  -3.046   0.583 -12.083
35117SOL    HW2 7359  -2.956   0.546   9.880
35118SOL     OW 7360   9.352  10.842   9.162
35118SOL    HW1 7361   9.401  10.902   9.219
35118SOL    HW2 7362   9.275  10.818  -1.826
35119SOL     OW 7363   7.757   5.431  -0.211
35119SOL    HW1 7364   7.684   5.394  10.778
35119SOL    HW2 7365 -14.339  16.564  -0.209
35120SOL     OW 7366   6.891   6.252   6.637
35120SOL    HW1 7367   6.945   6.195   6.582
35120SOL    HW2 7368  -4.134   6.221  -4.314
35121SOL     OW 7369   7.427   0.561  -0.989
35121SOL    HW1 7370   7.518   0.577  21.066
35121SOL    HW2 7371   7.395   0.646  10.081
35122SOL     OW 7372   0.065   8.591   2.415
35122SOL    HW1 7373  -0.010  -2.400   2.447
35122SOL    HW2 7374   0.122 -24.462  -8.664
35123SOL     OW 7375   2.135   4.492   8.408
35123SOL    HW1 7376   2.046  -6.535   8.376
35123SOL    HW2 7377   2.136   4.534   8.494
35124SOL     OW 7378   5.924   0.207  10.874
35124SOL    HW1 7379  16.929   0.293  10.849
35124SOL    HW2 7380   5.979   0.182  10.800
35125SOL     OW 7381   2.567   2.579   4.929
35125SOL    HW1 7382   2.578  -8.541   4.980
35125SOL    HW2 7383   2.610   2.561   4.846
35126SOL     OW 7384   5.084   4.983   9.238
35126SOL    HW1 7385   5.012   5.039   9.267
35126SOL    HW2 7386  -5.891   5.044   9.204
35127SOL     OW 7387   4.743   3.108   5.287
35127SOL    HW1 7388   4.795   3.101   5.207
35127SOL    HW2 7389  -6.282  25.276   5.318
35128SOL     OW 7390   3.363   8.647  12.188
35128SOL    HW1 7391  14.477   8.688  12.233
35128SOL    HW2 7392   3.400   8.568  -9.930
35129SOL     OW 7393   7.929   2.191   5.805
35129SOL    HW1 7394   7.952   2.099   5.818
35129SOL    HW2 7395 -25.276  -8.851  -5.276
35130SOL     OW 7396   4.439   3.293   4.373
35130SOL    HW1 7397  37.522   3.359   4.314
35130SOL    HW2 7398   4.526   3.325   4.396
35131SOL     OW 7399   9.569   4.090   4.698
35131SOL    HW1 7400   9.489  -6.913   4.738
35131SOL    HW2 7401  -1.429   4.041   4.769
35132SOL     OW 7402  -0.313   2.956   7.098
35132SOL    HW1 7403  -0.330   2.868   7.065
35132SOL    HW2 7404  21.694   3.009   7.063
35133SOL     OW 7405   3.889   7.751   2.209
35133SOL    HW1 7406  37.069   7.692   2.255
35133SOL    HW2 7407   3.897  18.765   2.117
35134SOL     OW 7408   9.744   0.548   3.572
35134SOL    HW1 7409   9.725   0.474   3.629
35134SOL    HW2 7410   9.725   0.516   3.483
35135SOL     OW 7411   5.453  11.579  11.272
35135SOL    HW1 7412   5.535   0.574 -10.772
35135SOL    HW2 7413  16.518  11.531  11.193
35136SOL     OW 7414   1.856   6.867   1.404
35136SOL    HW1 7415 -31.215 -15.200   1.322
35136SOL    HW2 7416   1.899  28.871   1.446
35137SOL     OW 7417  10.084   8.189   0.313
35137SOL    HW1 7418  10.042   8.275   0.310
35137SOL    HW2 7419  10.076   8.162   0.404
35138SOL     OW 7420   5.465  12.162   7.996
35138SOL    HW1 7421   5.511   1.205   7.977
35138SOL    HW2 7422   5.421  -9.939  -3.126
35139SOL     OW 7423   1.471   5.654   0.224
35139SOL    HW1 7424   1.430   5.580   0.181
35139SOL    HW2 7425   1.551  27.697  33.381
35140SOL     OW 7426   9.652   0.640   0.648
35140SOL    HW1 7427  20.714   0.733   0.637
35140SOL    HW2 7428   9.562   0.634   0.617
35141SOL     OW 7429   2.580  -1.175  10.319
35141SOL    HW1 7430   2.507  20.899  10.257
35141SOL    HW2 7431  13.660  -1.261  10.315
35142SOL     OW 7432   1.924   9.729  10.650
35142SOL    HW1 7433   1.939  -1.329  10.557
35142SOL    HW2 7434   1.831 -45.484  10.663
35143SOL     OW 7435  10.259  10.290   0.812
35143SOL    HW1 7436  10.219  10.366   0.854
35143SOL    HW2 7437  10.195  10.262   0.747
35144SOL     OW 7438   1.878  -0.351   4.369
35144SOL    HW1 7439   1.839  10.775   4.382
35144SOL    HW2 7440  23.941  -0.396   4.452
35145SOL     OW 7441   1.852   5.565  10.559
35145SOL    HW1 7442   1.911   5.526  10.624
35145SOL    HW2 7443   1.895  -5.393  10.533
35146SOL     OW 7444   0.151   1.639   5.964
35146SOL    HW1 7445  11.158   1.549  -5.078
35146SOL    HW2 7446   0.099 -20.394  -5.141
35147SOL     OW 7447   2.343   2.400  -0.533
35147SOL    HW1 7448   2.313   2.312  -0.513
35147SOL    HW2 7449   2.263   2.450  21.530
35148SOL     OW 7450  11.789   3.482   7.229
35148SOL    HW1 7451  11.854  14.563   7.286
35148SOL    HW2 7452 -10.252   3.397   7.208
35149SOL     OW 7453   7.948   7.186   9.015
35149SOL    HW1 7454 -14.066   7.131   9.058
35149SOL    HW2 7455   7.967   7.177   8.922
35150SOL     OW 7456   0.136   4.561   4.088
35150SOL    HW1 7457   0.051   4.602  37.187
35150SOL    HW2 7458   0.126 -28.595   4.175
35151SOL     OW 7459   8.512  10.337   2.062
35151SOL    HW1 7460   8.504  10.411   2.122
35151SOL    HW2 7461   8.459  10.268   2.102
35152SOL     OW 7462   3.431   2.590  13.084
35152SOL    HW1 7463  14.386   2.622   2.075
35152SOL    HW2 7464   3.431   2.497 -20.011
35153SOL     OW 7465   0.418   8.417   4.029
35153SOL    HW1 7466   0.488  -2.568  -6.975
35153SOL    HW2 7467   0.448  -2.713  -6.998
35154SOL     OW 7468   7.122   2.382   0.232
35154SOL    HW1 7469   7.181   2.435   0.285
35154SOL    HW2 7470 -48.104   2.440   0.162
35155SOL     OW 7471   6.885   4.983   9.975
35155SOL    HW1 7472   6.978   4.993   9.996
35155SOL    HW2 7473  17.880   4.993  21.099
35156SOL     OW 7474   2.523   6.995   5.943
35156SOL    HW1 7475   2.436   6.991   5.903
35156SOL    HW2 7476   2.527  17.956   5.998
35157SOL     OW 7477   2.208   9.801   3.491
35157SOL    HW1 7478   2.136   9.863   3.503
35157SOL    HW2 7479   2.165   9.715  -7.550
35158SOL     OW 7480   4.192   6.575   2.011
35158SOL    HW1 7481  -6.839  17.522   1.990
35158SOL    HW2 7482   4.281  17.649   2.008
35159SOL     OW 7483   4.884   4.677   5.324
35159SOL    HW1 7484  15.948   4.763   5.360
35159SOL    HW2 7485  37.982   4.624   5.401
35160SOL     OW 7486   5.867  10.332   2.273
35160SOL    HW1 7487   5.911  10.247   2.276
35160SOL    HW2 7488   5.779  10.315   2.306
35161SOL     OW 7489   9.378   6.680  11.029
35161SOL    HW1 7490   9.372  -4.266  11.012
35161SOL    HW2 7491   9.470   6.666  11.054
35162SOL     OW 7492   3.129   5.675   1.344
35162SOL    HW1 7493   3.222   5.664 -20.712
35162SOL    HW2 7494  -7.947   5.725  12.456
35163SOL     OW 7495   8.933   6.633   4.460
35163SOL    HW1 7496  31.034   6.632   4.367
35163SOL    HW2 7497   8.842   6.663  37.582
35164SOL     OW 7498   8.265   1.595   1.128
35164SOL    HW1 7499   8.260   1.582   1.223
35164SOL    HW2 7500  19.372   1.662   1.117
35165SOL     OW 7501   8.191   2.700   2.661
35165SOL    HW1 7502  19.208  13.744 -19.511
35165SOL    HW2 7503   8.175   2.609  -8.353
35166SOL     OW 7504   8.048   5.637  10.347
35166SOL    HW1 7505  -3.005   5.619  10.254
35166SOL    HW2 7506   8.136   5.673 -22.766
35167SOL     OW 7507   9.477   8.005   3.041
35167SOL    HW1 7508   9.396   7.986   3.088
35167SOL    HW2 7509   9.530   8.054  -7.936
35168SOL     OW 7510   6.872  12.112   2.328
35168SOL    HW1 7511 -15.194  12.201  -8.743
35168SOL    HW2 7512   6.826 -10.011   2.256
35169SOL     OW 7513  10.301   8.784   8.093
35169SOL    HW1 7514  21.340   8.690  -2.966
35169SOL    HW2 7515  10.236   8.794  -2.876
35170SOL     OW 7516   2.674   9.549   1.627
35170SOL    HW1 7517  13.709  31.543   1.585
35170SOL    HW2 7518  46.748   9.591   1.606
35171SOL     OW 7519   2.553   2.345   9.533
35171SOL    HW1 7520   2.531   2.320   9.443
35171SOL    HW2 7521   2.620   2.414  -1.517
35172SOL     OW 7522   3.770   5.475  10.533
35172SOL    HW1 7523   3.771   5.495  10.627
35172SOL    HW2 7524  14.818   5.379  -0.511
35173SOL     OW 7525  10.377   0.728   3.922
35173SOL    HW1 7526  10.310  22.743   3.900
35173SOL    HW2 7527  10.352  22.886 -40.285
35174SOL     OW 7528   6.300  11.159   1.776
35174SOL    HW1 7529  17.255   0.163   1.782
35174SOL    HW2 7530  28.399  11.133   1.866
35175SOL     OW 7531   2.654   9.866  11.065
35175SOL    HW1 7532  -8.384  20.885   0.119
35175SOL    HW2 7533  -8.300   9.837  11.033
35176SOL     OW 7534   8.789   0.782   3.358
35176SOL    HW1 7535   8.743   0.787   3.275
35176SOL    HW2 7536 -13.255   0.693   3.361
35177SOL     OW 7537   8.843  11.032   5.643
35177SOL    HW1 7538   8.779  11.101   5.661
35177SOL    HW2 7539   8.846  11.027   5.547
35178SOL     OW 7540   7.657   1.504  13.462
35178SOL    HW1 7541  18.724   1.420 -19.692
35178SOL    HW2 7542   7.564   1.492  -8.597
35179SOL     OW 7543   8.750  10.916  10.484
35179SOL    HW1 7544   8.844  10.910  10.498
35179SOL    HW2 7545   8.724  10.827  -0.579
35180SOL     OW 7546   7.748  10.369   8.390
35180SOL    HW1 7547   7.734 -11.699   8.484
35180SOL    HW2 7548   7.782 -22.838  19.421
35181SOL     OW 7549   4.454   2.273   0.305
35181SOL    HW1 7550  15.433  -8.840  11.346
35181SOL    HW2 7551  15.551  -8.782   0.380
35182SOL     OW 7552   3.135   9.818  10.227
35182SOL    HW1 7553   3.181  20.780  -0.846
35182SOL    HW2 7554   3.060   9.782  21.315
35183SOL     OW 7555   3.024   8.398   4.650
35183SOL    HW1 7556   3.060   8.486  15.682
35183SOL    HW2 7557   2.933   8.407   4.620
35184SOL     OW 7558   6.836   8.009   0.506
35184SOL    HW1 7559   6.891   7.967   0.573
35184SOL    HW2 7560  28.945   7.970  11.464
35185SOL     OW 7561   6.989   9.414   3.112
35185SOL    HW1 7562   6.900   9.441 -18.989
35185SOL    HW2 7563  18.018  20.379   3.171
35186SOL     OW 7564   9.388   2.020  10.718
35186SOL    HW1 7565   9.320   2.085  10.734
35186SOL    HW2 7566  31.467   2.008  10.623
35187SOL     OW 7567   3.228   1.079   0.414
35187SOL    HW1 7568  25.377   1.124   0.366
35187SOL    HW2 7569   3.192   1.146   0.473
35188SOL     OW 7570   7.157   8.574  10.108
35188SOL    HW1 7571   7.165  30.738  -0.888
35188SOL    HW2 7572   7.235   8.526  10.136
35189SOL     OW 7573   1.344   6.131   3.305
35189SOL    HW1 7574  12.355   6.160   3.392
35189SOL    HW2 7575  -9.706   6.036  14.346
35190SOL     OW 7576   7.654   6.538   3.180
35190SOL    HW1 7577   7.625   6.515   3.268
35190SOL    HW2 7578   7.712  -4.426   3.192
35191SOL     OW 7579   1.478   2.531   3.607
35191SOL    HW1 7580   1.468   2.501  14.556
35191SOL    HW2 7581   1.497  13.491  14.696
35192SOL     OW 7582   7.805   9.475   6.141
35192SOL    HW1 7583   7.782  20.441  17.238
35192SOL    HW2 7584   7.865   9.437   6.077
35193SOL     OW 7585   9.878   1.135   5.616
35193SOL    HW1 7586   9.858  12.176   5.522
35193SOL    HW2 7587  20.833   1.115   5.657
35194SOL     OW 7588   2.100   3.712   2.948
35194SOL    HW1 7589  13.106 -29.489 -19.166
35194SOL    HW2 7590  57.368   3.686  14.047
35195SOL     OW 7591   2.954   2.607   5.241
35195SOL    HW1 7592   2.865   2.626   5.212
35195SOL    HW2 7593   2.964  24.736   5.323
35196SOL     OW 7594   3.376   9.534   8.339
35196SOL    HW1 7595   3.313   9.583  -2.752
35196SOL    HW2 7596   3.432   9.490   8.275
35197SOL     OW 7597   7.596   6.865   9.954
35197SOL    HW1 7598   7.585  -4.088   9.914
35197SOL    HW2 7599  -3.527   6.820   9.939
35198SOL     OW 7600   2.869   9.916   1.922
35198SOL    HW1 7601   2.947  -1.170   1.955
35198SOL    HW2 7602  13.845   9.846   1.906
35199SOL     OW 7603   4.508   0.879   0.907
35199SOL    HW1 7604  37.614   0.936   0.830
35199SOL    HW2 7605   4.602   0.861   0.908
35200SOL     OW 7606   1.053   2.243   0.089
35200SOL    HW1 7607   1.028  -8.867   0.149
35200SOL    HW2 7608   0.986   2.310   0.101
35201SOL     OW 7609   7.595   3.408   1.651
35201SOL    HW1 7610   7.630 -29.790 -20.468
35201SOL    HW2 7611   7.619   3.478   1.589
35202SOL     OW 7612   3.903   3.039   6.895
35202SOL    HW1 7613   3.981   3.068   6.847
35202SOL    HW2 7614   3.879  14.153   6.950
35203SOL     OW 7615   9.274   0.038   3.759
35203SOL    HW1 7616   9.354 -11.053   3.746
35203SOL    HW2 7617   9.227  22.110   3.676
35204SOL     OW 7618   2.808   9.199   6.502
35204SOL    HW1 7619 -19.309   9.269  17.488
35204SOL    HW2 7620   2.895   9.186   6.465
35205SOL     OW 7621   6.914   4.176   7.548
35205SOL    HW1 7622  51.107 -17.863   7.628
35205SOL    HW2 7623   6.888   4.250 -14.586
35206SOL     OW 7624   7.656   3.837   2.951
35206SOL    HW1 7625  18.678   3.869   3.040
35206SOL    HW2 7626   7.698   3.752   2.964
35207SOL     OW 7627   9.613   3.379   9.205
35207SOL    HW1 7628   9.672   3.309  20.272
35207SOL    HW2 7629   9.604   3.367  -1.929
35208SOL     OW 7630   1.312  10.232   8.266
35208SOL    HW1 7631   1.369  21.346  19.289
35208SOL    HW2 7632  -9.815  10.264  -2.796
35209SOL     OW 7633   0.879   4.820   5.608
35209SOL    HW1 7634   0.899   4.902   5.654
35209SOL    HW2 7635   0.938  48.914  -5.392
35210SOL     OW 7636   4.885   4.585   3.880
35210SOL    HW1 7637  26.960   4.577  14.825
35210SOL    HW2 7638   4.904   4.677   3.896
35211SOL     OW 7639   2.503   8.824   1.758
35211SOL    HW1 7640  -8.461  -2.235 -20.264
35211SOL    HW2 7641  13.547   8.919   1.745
35212SOL     OW 7642  10.027   4.387   1.460
35212SOL    HW1 7643  10.078   4.317   1.420
35212SOL    HW2 7644  10.038   4.462  -9.639
35213SOL     OW 7645   7.086   8.810  10.245
35213SOL    HW1 7646  18.207   8.856 -11.813
35213SOL    HW2 7647  29.112   8.818  -0.715
35214SOL     OW 7648   3.911   9.309   4.039
35214SOL    HW1 7649   3.962   9.309   4.121
35214SOL    HW2 7650 -18.116   9.363   3.980
35215SOL     OW 7651   5.809   1.510   9.759
35215SOL    HW1 7652   5.719   1.481   9.774
35215SOL    HW2 7653   5.856   1.485   9.838
35216SOL     OW 7654   9.491   3.546   8.172
35216SOL    HW1 7655   9.406  14.545   8.154
35216SOL    HW2 7656   9.526   3.498   8.247
35217SOL     OW 7657   6.518   7.738   9.537
35217SOL    HW1 7658   6.589   7.771   9.481
35217SOL    HW2 7659   6.511   7.645   9.514
35218SOL     OW 7660   6.108   6.640   6.347
35218SOL    HW1 7661   6.053   6.671   6.275
35218SOL    HW2 7662  17.236  28.717  -4.729
35219SOL     OW 7663   6.258   0.089   7.887
35219SOL    HW1 7664   6.211   0.006   7.878
35219SOL    HW2 7665   6.191   0.156  -3.162
35220SOL     OW 7666  -0.819   6.952   1.293
35220SOL    HW1 7667  43.266   6.895  -9.725
35220SOL    HW2 7668  10.214  18.006   1.198
35221SOL     OW 7669   4.108   5.053   8.270
35221SOL    HW1 7670 -17.950   5.041   8.178
35221SOL    HW2 7671   4.124   5.146  19.326
35222SOL     OW 7672   7.906   9.743  -0.365
35222SOL    HW1 7673   7.827   9.797  -0.366
35222SOL    HW2 7674   7.898  -1.352  10.597
35223SOL     OW 7675   2.006   7.643   5.843
35223SOL    HW1 7676   2.055   7.637   5.925
35223SOL    HW2 7677  24.152  18.696   5.776
35224SOL     OW 7678   4.552   4.932   4.788
35224SOL    HW1 7679   4.535   5.026   4.796
35224SOL    HW2 7680  15.623   4.905  -6.165
35225SOL     OW 7681   8.313   6.851   3.464
35225SOL    HW1 7682  -2.779   6.870  -7.498
35225SOL    HW2 7683   8.250   6.853   3.391
35226SOL     OW 7684   8.254   3.061   0.486
35226SOL    HW1 7685  -2.812   3.065   0.394
35226SOL    HW2 7686   8.233   2.971   0.512
35227SOL     OW 7687   6.586   5.880  10.120
35227SOL    HW1 7688  -4.360   5.885  10.140
35227SOL    HW2 7689   6.575  16.971  10.040
35228SOL     OW 7690   5.384   2.645   1.687
35228SOL    HW1 7691   5.433   2.722   1.718
35228SOL    HW2 7692   5.408   2.575   1.749
35229SOL     OW 7693   0.959   6.762   0.184
35229SOL    HW1 7694   0.930   6.847   0.214
35229SOL    HW2 7695   0.881   6.707  11.227
35230SOL     OW 7696   5.446  11.920   9.633
35230SOL    HW1 7697   5.424   0.826  20.597
35230SOL    HW2 7698   5.541   0.867   9.645
35231SOL     OW 7699  10.144   3.494   1.689
35231SOL    HW1 7700  10.182   3.483 -20.478
35231SOL    HW2 7701  -0.924   3.406   1.713
35232SOL     OW 7702   9.592   3.830   2.653
35232SOL    HW1 7703  20.683   3.903  24.697
35232SOL    HW2 7704   9.615   3.827   2.746
35233SOL     OW 7705   9.226   6.478   8.886
35233SOL    HW1 7706   9.202   6.531   8.962
35233SOL    HW2 7707   9.160   6.501   8.820
35234SOL     OW 7708   0.085   3.643   5.831
35234SOL    HW1 7709   0.106  -7.347 -49.446
35234SOL    HW2 7710   0.157   3.662 -16.188
35235SOL     OW 7711   7.558   1.008   1.662
35235SOL    HW1 7712 -14.600   1.054   1.631
35235SOL    HW2 7713   7.593   0.965   1.584
35236SOL     OW 7714   1.101   5.476   8.213
35236SOL    HW1 7715   1.062  -5.642   8.174
35236SOL    HW2 7716  12.214   5.442   8.265
35237SOL     OW 7717   4.426   5.405  10.214
35237SOL    HW1 7718   4.521  -5.624  21.244
35237SOL    HW2 7719   4.412 -16.768  10.214
35238SOL     OW 7720   4.925   7.694   5.995
35238SOL    HW1 7721   4.917   7.752 -16.161
35238SOL    HW2 7722  -6.185  40.749   5.985
35239SOL     OW 7723   4.973   8.726   4.417
35239SOL    HW1 7724  -5.984   8.772   4.428
35239SOL    HW2 7725   4.912  19.812   4.474
35240SOL     OW 7726   8.306   6.679   6.776
35240SOL    HW1 7727  -2.726   6.594  -4.307
35240SOL    HW2 7728   8.309  -4.382   6.870
35241SOL     OW 7729   7.841   9.883   0.236
35241SOL    HW1 7730   7.757 -12.241   0.223
35241SOL    HW2 7731   7.902  -1.202  11.216
35242SOL     OW 7732   4.323  11.347   7.853
35242SOL    HW1 7733   4.403  11.335   7.906
35242SOL    HW2 7734   4.251   0.297   7.916
35243SOL     OW 7735  -1.134   7.502   7.489
35243SOL    HW1 7736  -1.097   7.414 -14.594
35243SOL    HW2 7737  31.971   7.519  -3.457
35244SOL     OW 7738   9.185  -0.511   3.437
35244SOL    HW1 7739  -1.928  10.479   3.402
35244SOL    HW2 7740   9.147  -0.458 -18.572
35245SOL     OW 7741   4.436   5.061   3.186
35245SOL    HW1 7742   4.406  16.148  25.187
35245SOL    HW2 7743  15.534   4.993   3.152
35246SOL     OW 7744  10.987   7.622   3.119
35246SOL    HW1 7745  11.039  -3.443  -7.844
35246SOL    HW2 7746  10.926   7.687   3.152
35247SOL     OW 7747   8.281   2.721  10.211
35247SOL    HW1 7748  -2.691   2.748  -0.766
35247SOL    HW2 7749   8.199   2.752  10.250
35248SOL     OW 7750   9.906   8.730  10.946
35248SOL    HW1 7751   9.885   8.807  11.000
35248SOL    HW2 7752   9.939   8.767 -11.215
35249SOL     OW 7753   6.452   7.470   4.248
35249SOL    HW1 7754   6.389  18.446   4.282
35249SOL    HW2 7755  17.466   7.483  -6.883
35250SOL     OW 7756   2.493   0.429   2.121
35250SOL    HW1 7757   2.492   0.350   2.066
35250SOL    HW2 7758  -8.574   0.499   2.062
35251SOL     OW 7759   1.314  12.675   7.816
35251SOL    HW1 7760   1.246 -20.500   7.778
35251SOL    HW2 7761   1.382 -42.584   7.844
35252SOL     OW 7762   6.601   2.041  -0.055
35252SOL    HW1 7763  17.666  24.046  -0.001
35252SOL    HW2 7764   6.555   2.100  11.044
35253SOL     OW 7765   3.673   3.505   2.434
35253SOL    HW1 7766   3.642   3.457   2.357
35253SOL    HW2 7767   3.743   3.561   2.400
35254SOL     OW 7768   5.203   9.141   1.298
35254SOL    HW1 7769   5.157   9.170   1.377
35254SOL    HW2 7770  27.307   9.222  23.333
35255SOL     OW 7771   9.748   4.369  11.006
35255SOL    HW1 7772   9.797   4.303  11.056
35255SOL    HW2 7773   9.662   4.371  11.048
35256SOL     OW 7774   6.080   3.403  10.183
35256SOL    HW1 7775   6.163   3.395  10.137
35256SOL    HW2 7776  -5.025   3.411  10.114
35257SOL     OW 7777   3.307   0.699   3.478
35257SOL    HW1 7778   3.241  33.779  14.460
35257SOL    HW2 7779   3.331  11.668   3.538
35258SOL     OW 7780   8.627   7.603   3.083
35258SOL    HW1 7781   8.573   7.527  14.146
35258SOL    HW2 7782  30.791 -14.513   3.062
35259SOL     OW 7783   8.149   4.978   1.273
35259SOL    HW1 7784   8.157   5.049   1.337
35259SOL    HW2 7785  -2.947   4.913   1.316
35260SOL     OW 7786   2.932   9.126   6.102
35260SOL    HW1 7787   2.889   9.123  17.056
35260SOL    HW2 7788   3.007  -1.856  17.129
35261SOL     OW 7789   3.665   7.968   4.917
35261SOL    HW1 7790  14.667   8.055   4.936
35261SOL    HW2 7791   3.731   7.984   4.850
35262SOL     OW 7792   7.927   1.329   1.956
35262SOL    HW1 7793   7.994   1.356   1.893
35262SOL    HW2 7794  -3.111 -20.682   2.023
35263SOL     OW 7795   5.187   7.843   7.983
35263SOL    HW1 7796   5.198  41.057   7.984
35263SOL    HW2 7797   5.246   7.813   7.913
35264SOL     OW 7798  13.296   9.072   9.772
35264SOL    HW1 7799   2.294   9.100   9.855
35264SOL    HW2 7800 -19.913   9.103   9.774
35265SOL     OW 7801   9.499   0.662  10.179
35265SOL    HW1 7802 -12.524   0.626  -0.792
35265SOL    HW2 7803   9.417   0.684  10.225
35266SOL     OW 7804   9.385  -0.936   0.261
35266SOL    HW1 7805   9.361  21.226   0.303
35266SOL    HW2 7806   9.470  10.122   0.220
35267SOL     OW 7807   4.573   6.153  -0.407
35267SOL    HW1 7808   4.654  -4.924  -0.442
35267SOL    HW2 7809   4.576 -15.949  21.766
35268SOL     OW 7810   3.904   0.304   5.914
35268SOL    HW1 7811   3.866   0.363  -5.061
35268SOL    HW2 7812  25.957   0.340   5.830
35269SOL     OW 7813   7.531   5.883   0.949
35269SOL    HW1 7814  29.688   5.837  23.059
35269SOL    HW2 7815   7.564   5.966  11.955
35270SOL     OW 7816   5.655   2.849   3.917
35270SOL    HW1 7817   5.726   2.879   3.860
35270SOL    HW2 7818   5.575 -19.215  36.985
35271SOL     OW 7819  10.718   6.942   5.315
35271SOL    HW1 7820 -11.366   6.888   5.236
35271SOL    HW2 7821  -0.265  28.972  -5.665
35272SOL     OW 7822   4.766   9.906   1.932
35272SOL    HW1 7823   4.855   9.900  -9.072
35272SOL    HW2 7824   4.709   9.893   2.008
35273SOL     OW 7825   2.812   3.831  10.726
35273SOL    HW1 7826   2.835  36.858 -22.384
35273SOL    HW2 7827   2.883   3.878  -0.269
35274SOL     OW 7828   8.433   7.142   5.644
35274SOL    HW1 7829  19.533 -14.864   5.643
35274SOL    HW2 7830   8.466   7.084   5.713
35275SOL     OW 7831   7.110   2.047   8.745
35275SOL    HW1 7832  -3.926   2.143   8.744
35275SOL    HW2 7833   7.079   2.025   8.833
35276SOL     OW 7834   5.744   1.175   0.467
35276SOL    HW1 7835  16.805   1.212   0.552
35276SOL    HW2 7836   5.748  -9.790   0.407
35277SOL     OW 7837   4.768   4.073   6.807
35277SOL    HW1 7838   4.763   4.096 -15.179
35277SOL    HW2 7839 -17.228  -7.012   6.798
35278SOL     OW 7840   2.652   5.112   2.573
35278SOL    HW1 7841  13.649   5.036   2.533
35278SOL    HW2 7842  24.822   5.085 -41.575
35279SOL     OW 7843   6.288   1.363   6.369
35279SOL    HW1 7844  17.279   1.424   6.313
35279SOL    HW2 7845  17.373   1.419   6.432
35280SOL     OW 7846   3.627   5.970   0.632
35280SOL    HW1 7847   3.629   6.054 -10.454
35280SOL    HW2 7848   3.711  16.968   0.610
35281SOL     OW 7849   6.597   5.566   0.309
35281SOL    HW1 7850   6.555   5.492   0.264
35281SOL    HW2 7851   6.645  16.565   0.381
35282SOL     OW 7852   6.168   3.626   2.923
35282SOL    HW1 7853   6.119   3.628   3.005
35282SOL    HW2 7854   6.135   3.548  24.956
35283SOL     OW 7855  10.420   3.045   8.419
35283SOL    HW1 7856  10.405  25.145  19.551
35283SOL    HW2 7857  -0.622   2.949   8.415
35284SOL     OW 7858   4.928  10.994   1.692
35284SOL    HW1 7859   5.023  -0.047   1.687
35284SOL    HW2 7860 -17.181  10.964   1.607
35285SOL     OW 7861   0.409  -1.673   2.161
35285SOL    HW1 7862   0.356  42.529  -8.813
35285SOL    HW2 7863  11.537  -1.641   2.176
35286SOL     OW 7864   2.486   3.998   5.573
35286SOL    HW1 7865   2.548   4.070 -27.555
35286SOL    HW2 7866   2.508   3.957  -5.383
35287SOL     OW 7867   6.758   2.851   4.874
35287SOL    HW1 7868  17.794   2.830  -6.072
35287SOL    HW2 7869  17.791  13.986 -17.208
35288SOL     OW 7870   7.664   7.792   4.332
35288SOL    HW1 7871   7.601   7.734  15.329
35288SOL    HW2 7872  -3.381   7.874   4.284
35289SOL     OW 7873   0.272   3.971   6.955
35289SOL    HW1 7874   0.302  14.924  17.966
35289SOL    HW2 7875  11.282  -7.082   7.045
35290SOL     OW 7876   0.418   7.596   6.567
35290SOL    HW1 7877  22.441   7.630   6.637
35290SOL    HW2 7878   0.365   7.603   6.487
35291SOL     OW 7879   7.622   0.516   6.749
35291SOL    HW1 7880   7.529   0.499 -15.319
35291SOL    HW2 7881  -3.388   0.448   6.688
35292SOL     OW 7882   4.274   6.554   3.017
35292SOL    HW1 7883  15.402   6.552   2.979
35292SOL    HW2 7884   4.276   6.629   3.077
35293SOL     OW 7885   9.918   2.936   6.364
35293SOL    HW1 7886   9.845   2.874   6.362
35293SOL    HW2 7887   9.996   2.881   6.356
35294SOL     OW 7888   0.287  11.217   0.743
35294SOL    HW1 7889  11.303  11.147   0.682
35294SOL    HW2 7890   0.371   0.150   0.780
35295SOL     OW 7891   1.681  10.937   1.027
35295SOL    HW1 7892  12.708  10.864  12.128
35295SOL    HW2 7893   1.640  11.012   1.070
35296SOL     OW 7894   6.924  -1.511   9.382
35296SOL    HW1 7895   6.979   9.493  -1.727
35296SOL    HW2 7896   6.844  31.637   9.338
35297SOL     OW 7897   2.468   6.447   6.794
35297SOL    HW1 7898  13.501   6.365   6.745
35297SOL    HW2 7899 -19.517   6.461  17.844
35298SOL     OW 7900  10.241   3.438   2.568
35298SOL    HW1 7901  10.203  14.565   2.580
35298SOL    HW2 7902  10.238   3.425   2.473
35299SOL     OW 7903   3.997   1.258   1.113
35299SOL    HW1 7904   3.915   1.208   1.117
35299SOL    HW2 7905  -6.974 -20.888  12.157
35300SOL     OW 7906   3.071   4.824   8.345
35300SOL    HW1 7907 -41.025   4.799 -24.842
35300SOL    HW2 7908   3.070   4.749   8.405
35301SOL     OW 7909  10.636   1.692   9.278
35301SOL    HW1 7910  10.715 -20.371   9.330
35301SOL    HW2 7911  10.666   1.689  20.227
35302SOL     OW 7912   3.713   3.891   5.763
35302SOL    HW1 7913  36.870   3.830   5.826
35302SOL    HW2 7914  -7.253  14.984   5.734
35303SOL     OW 7915   9.423   2.142   5.980
35303SOL    HW1 7916  20.401   2.194   6.032
35303SOL    HW2 7917   9.371   2.113   5.905
35304SOL     OW 7918   9.614   1.049   9.086
35304SOL    HW1 7919  -1.405   1.004   9.169
35304SOL    HW2 7920   9.565 -10.056  31.114
35305SOL     OW 7921   0.799   9.137   7.110
35305SOL    HW1 7922   0.892  31.235   7.118
35305SOL    HW2 7923 -10.250  20.130   7.027
35306SOL     OW 7924   2.835   3.851   6.666
35306SOL    HW1 7925 -30.205   3.895   6.698
35306SOL    HW2 7926   2.774   3.856 -26.379
35307SOL     OW 7927  -0.506   6.375   3.131
35307SOL    HW1 7928  -0.422  17.383   3.166
35307SOL    HW2 7929  10.483  17.335   3.115
35308SOL     OW 7930   6.507  10.295   3.679
35308SOL    HW1 7931   6.544  21.259  14.674
35308SOL    HW2 7932   6.458  10.342   3.611
35309SOL     OW 7933   9.798   6.336   2.887
35309SOL    HW1 7934   9.720 -26.790   2.942
35309SOL    HW2 7935  31.875  17.466   2.855
35310SOL     OW 7936   5.290   9.603   3.375
35310SOL    HW1 7937   5.326  -1.425   3.464
35310SOL    HW2 7938   5.361   9.560  -7.713
35311SOL     OW 7939   5.641   9.140   3.536
35311SOL    HW1 7940   5.732   9.128   3.563
35311SOL    HW2 7941   5.621  20.270   3.558
35312SOL     OW 7942   0.721   9.618   0.050
35312SOL    HW1 7943  11.681  -1.371   0.034
35312SOL    HW2 7944   0.698   9.557   0.119
35313SOL     OW 7945   8.272   8.217   2.431
35313SOL    HW1 7946   8.363   8.193   2.449
35313SOL    HW2 7947 -24.861   8.188   2.341
35314SOL     OW 7948   9.510   2.978   1.853
35314SOL    HW1 7949   9.502   3.044   1.784
35314SOL    HW2 7950   9.591   2.931  12.872
35315SOL     OW 7951   8.782   1.041   8.519
35315SOL    HW1 7952   8.777   1.119 -24.544
35315SOL    HW2 7953  19.762   0.979   8.559
35316SOL     OW 7954   3.923   8.718   9.980
35316SOL    HW1 7955  -7.168   8.761 -12.031
35316SOL    HW2 7956   4.013   8.747   9.996
35317SOL     OW 7957  10.811   0.167   6.756
35317SOL    HW1 7958  10.834   0.161  28.742
35317SOL    HW2 7959  10.735   0.110  17.805
35318SOL     OW 7960  11.197  10.351   3.387
35318SOL    HW1 7961  11.279 -11.775   3.377
35318SOL    HW2 7962 -10.874  -0.643  14.510
35319SOL     OW 7963   0.550   1.590   8.307
35319SOL    HW1 7964   0.595   1.644   8.242
35319SOL    HW2 7965   0.611   1.518   8.325
35320SOL     OW 7966   2.738   6.742   1.174
35320SOL    HW1 7967  -8.234  17.842   1.206
35320SOL    HW2 7968   2.674 -26.379   1.245
35321SOL     OW 7969   4.271   2.903   9.361
35321SOL    HW1 7970   4.301   2.981   9.313
35321SOL    HW2 7971   4.223   2.939   9.436
35322SOL     OW 7972  10.277   2.995   9.947
35322SOL    HW1 7973  10.188   3.029 -12.124
35322SOL    HW2 7974  10.266   2.901 -12.141
35323SOL     OW 7975  10.078   1.099   9.002
35323SOL    HW1 7976  10.022   1.090  -2.114
35323SOL    HW2 7977  10.019   1.086 -24.042
35324SOL     OW 7978   1.700   0.725   7.903
35324SOL    HW1 7979   1.618   0.740  -3.091
35324SOL    HW2 7980  12.715   0.692   7.817
35325SOL     OW 7981   8.024   3.293   3.450
35325SOL    HW1 7982   7.962   3.313   3.380
35325SOL    HW2 7983   8.014   3.200   3.466
35326SOL     OW 7984   9.253  10.853   1.177
35326SOL    HW1 7985  -1.828  10.916   1.237
35326SOL    HW2 7986   9.314  10.805   1.232
35327SOL     OW 7987   6.972   1.459  10.432
35327SOL    HW1 7988   6.933   1.426  10.513
35327SOL    HW2 7989   7.063   1.479  10.456
35328SOL     OW 7990   0.572   6.154   5.576
35328SOL    HW1 7991   0.602  -4.953   5.637
35328SOL    HW2 7992   0.586   6.116   5.489
35329SOL     OW 7993   5.922   2.748   6.458
35329SOL    HW1 7994   5.987   2.732  -4.513
35329SOL    HW2 7995   5.910   2.663   6.416
35330SOL     OW 7996  -1.038   2.840   7.161
35330SOL    HW1 7997  32.001   2.879 -14.881
35330SOL    HW2 7998  32.048   2.766  -3.931
35331SOL     OW 7999   3.431   9.679   2.362
35331SOL    HW1 8000   3.404   9.694  -8.587
35331SOL    HW2 8001 -18.729  20.730  -8.728
35332SOL     OW 8002   6.587   8.738   5.331
35332SOL    HW1 8003 -15.438 -13.408   5.374
35332SOL    HW2 8004  -4.482   8.793   5.403
35333SOL     OW 8005   2.995   8.383  11.059
35333SOL    HW1 8006  -8.112  -2.693   0.076
35333SOL    HW2 8007   3.060 -24.698  11.119
35334SOL     OW 8008   6.391  10.153  10.840
35334SOL    HW1 8009  28.564  10.133  10.836
35334SOL    HW2 8010  17.422  -0.824  10.911
35335SOL     OW 8011   6.607   1.949   8.510
35335SOL    HW1 8012 -15.505   2.039   8.514
35335SOL    HW2 8013   6.528   1.894  19.552
35336SOL     OW 8014   8.014  10.535   9.786
35336SOL    HW1 8015  18.996  10.508  -1.182
35336SOL    HW2 8016  19.038  -0.570   9.717
35337SOL     OW 8017   4.326  10.763   3.888
35337SOL    HW1 8018   4.357  10.692   3.833
35337SOL    HW2 8019   4.276  -0.320   3.958
35338SOL     OW 8020   1.415   0.782   9.514
35338SOL    HW1 8021   1.388   0.691  -1.537
35338SOL    HW2 8022   1.458   0.806   9.432
35339SOL     OW 8023   4.324   6.605  11.486
35339SOL    HW1 8024   4.320   6.514  11.516
35339SOL    HW2 8025   4.234   6.626 -10.618
35340SOL     OW 8026   2.854   8.279  10.740
35340SOL    HW1 8027   2.897  19.267  10.672
35340SOL    HW2 8028   2.866 -13.709  -0.328
35341SOL     OW 8029   8.781   4.728   3.197
35341SOL    HW1 8030   8.830   4.810   3.199
35341SOL    HW2 8031  -2.199   4.666   3.153
35342SOL     OW 8032   2.956   3.154   2.163
35342SOL    HW1 8033  -8.016   3.090   2.139
35342SOL    HW2 8034   2.908   3.169   2.081
35343SOL     OW 8035   7.291  12.051   5.377
35343SOL    HW1 8036   7.307   1.033   5.469
35343SOL    HW2 8037   7.377 -10.023   5.335
35344SOL     OW 8038   1.689  10.939   1.868
35344SOL    HW1 8039   1.664  11.028  -9.197
35344SOL    HW2 8040  -9.258  10.932   1.845
35345SOL     OW 8041   0.186   6.000   7.992
35345SOL    HW1 8042   0.157 -16.025   8.066
35345SOL    HW2 8043   0.118  -5.107   7.984
35346SOL     OW 8044   2.797  -0.912   3.846
35346SOL    HW1 8045   2.781  21.221   3.923
35346SOL    HW2 8046   2.844  -0.988   3.879
35347SOL     OW 8047   1.394   1.933   2.885
35347SOL    HW1 8048   1.490  24.010   2.882
35347SOL    HW2 8049  12.410   2.002   2.823
35348SOL     OW 8050   4.065   7.778   7.848
35348SOL    HW1 8051   4.090 -14.333   7.934
35348SOL    HW2 8052   3.982   7.824   7.861
35349SOL     OW 8053   8.423   0.361   9.535
35349SOL    HW1 8054   8.469  22.357  -1.496
35349SOL    HW2 8055   8.462  11.442   9.458
35350SOL     OW 8056   0.432   9.112   2.810
35350SOL    HW1 8057   0.432   9.152  13.936
35350SOL    HW2 8058   0.522   9.082   2.797
35351SOL     OW 8059   4.177   6.457   6.738
35351SOL    HW1 8060  48.382 -15.571  -4.236
35351SOL    HW2 8061   4.246  17.457   6.685
35352SOL     OW 8062   7.323   8.818  11.313
35352SOL    HW1 8063   7.336   8.900 -10.815
35352SOL    HW2 8064  18.397 -13.242  22.440
35353SOL     OW 8065   4.240   4.143   2.637
35353SOL    HW1 8066   4.243   4.050   2.613
35353SOL    HW2 8067   4.296   4.150  24.793
35354SOL     OW 8068   6.025   9.203   9.486
35354SOL    HW1 8069   6.026   9.110   9.505
35354SOL    HW2 8070   6.090   9.214   9.416
35355SOL     OW 8071   2.725   6.195   7.172
35355SOL    HW1 8072   2.786  -4.795   7.227
35355SOL    HW2 8073   2.713 -15.967  -3.822
35356SOL     OW 8074   7.989   7.875   1.759
35356SOL    HW1 8075   7.955   7.830   1.837
35356SOL    HW2 8076 -25.061   7.932   1.793
35357SOL     OW 8077   7.542   5.098   2.313
35357SOL    HW1 8078   7.588   5.038  -8.669
35357SOL    HW2 8079   7.611   5.135 -19.821
35358SOL     OW 8080   6.129   3.740   0.751
35358SOL    HW1 8081   6.177   3.776   0.677
35358SOL    HW2 8082   6.076   3.813   0.783
35359SOL     OW 8083  10.119   5.729   2.721
35359SOL    HW1 8084  -0.987  -5.242   2.716
35359SOL    HW2 8085 -11.933 -27.404   2.631
35360SOL     OW 8086   8.959   7.528   2.659
35360SOL    HW1 8087   8.913 -14.501   2.592
35360SOL    HW2 8088   8.971   7.589   2.731
35361SOL     OW 8089   2.695   8.182   9.837
35361SOL    HW1 8090  13.782  -2.879  -1.283
35361SOL    HW2 8091  24.682 -13.891   9.810
35362SOL     OW 8092   1.850   8.869   6.362
35362SOL    HW1 8093   1.860  -2.158  17.496
35362SOL    HW2 8094   1.830  -2.083  -4.711
35363SOL     OW 8095   7.348   6.063   3.626
35363SOL    HW1 8096  -3.644   6.016   3.557
35363SOL    HW2 8097   7.386   6.030   3.708
35364SOL     OW 8098   1.169  10.992   9.657
35364SOL    HW1 8099  34.206 -33.209  20.724
35364SOL    HW2 8100   1.233  10.921  20.694
35365SOL     OW 8101   4.486   2.829   5.748
35365SOL    HW1 8102   4.518   2.789 -27.452
35365SOL    HW2 8103  26.639  13.922 -27.340
35366SOL     OW 8104   1.790   5.570   9.527
35366SOL    HW1 8105   1.875   5.538   9.557
35366SOL    HW2 8106   1.795   5.665   9.540
35367SOL     OW 8107   6.639   6.777   2.905
35367SOL    HW1 8108   6.605   6.687  24.991
35367SOL    HW2 8109   6.648   6.792  13.851
35368SOL     OW 8110   9.704  -0.175   8.987
35368SOL    HW1 8111  20.752  10.795  -1.987
35368SOL    HW2 8112   9.703  -0.094   9.039
35369SOL     OW 8113   5.465   1.038   4.099
35369SOL    HW1 8114   5.459   1.071 -18.070
35369SOL    HW2 8115 -49.702  23.027  15.130
35370SOL     OW 8116   7.526   0.163   2.522
35370SOL    HW1 8117  29.664 -10.863   2.596
35370SOL    HW2 8118   7.442  22.278  13.590
35371SOL     OW 8119   1.551   9.248  -0.122
35371SOL    HW1 8120   1.493   9.174  -0.104
35371SOL    HW2 8121   1.568   9.243  10.823
35372SOL     OW 8122   2.124   8.571   3.392
35372SOL    HW1 8123   2.062   8.543 -18.619
35372SOL    HW2 8124   2.208   8.577   3.437
35373SOL     OW 8125   5.973   9.053   5.802
35373SOL    HW1 8126   5.974   9.013   5.889
35373SOL    HW2 8127   6.058   9.031  -5.275
35374SOL     OW 8128   3.744   9.666   5.962
35374SOL    HW1 8129  -7.225 -23.409   5.914
35374SOL    HW2 8130   3.783   9.584  28.071
35375SOL     OW 8131   0.607   4.457   9.706
35375SOL    HW1 8132   0.671   4.515   9.745
35375SOL    HW2 8133   0.548   4.514   9.657
35376SOL     OW 8134   3.117   1.802   7.713
35376SOL    HW1 8135   3.103  -9.306   7.648
35376SOL    HW2 8136   3.196   1.775  -3.280
35377SOL     OW 8137   0.614   8.431   0.932
35377SOL    HW1 8138   0.646   8.388   0.852
35377SOL    HW2 8139   0.626   8.524  11.955
35378SOL     OW 8140  11.786   6.076   8.098
35378SOL    HW1 8141 -10.255  -4.965   8.010
35378SOL    HW2 8142   0.668   6.021   8.091
35379SOL     OW 8143   0.354   3.186   1.087
35379SOL    HW1 8144   0.443  14.196   1.101
35379SOL    HW2 8145   0.353   3.221  12.037
35380SOL     OW 8146  10.983   5.512   1.558
35380SOL    HW1 8147  -0.140  27.559   1.525
35380SOL    HW2 8148  11.039   5.435   1.564
35381SOL     OW 8149   3.223   9.371  -0.367
35381SOL    HW1 8150   3.135   9.334  -0.361
35381SOL    HW2 8151   3.211   9.454  10.627
35382SOL     OW 8152   9.244   6.526   5.550
35382SOL    HW1 8153   9.198   6.607   5.570
35382SOL    HW2 8154   9.211   6.500   5.464
35383SOL     OW 8155   3.693   1.685   3.806
35383SOL    HW1 8156   3.610   1.697   3.852
35383SOL    HW2 8157   3.760   1.715  25.947
35384SOL     OW 8158   2.159   1.073   6.858
35384SOL    HW1 8159  13.287   1.094   6.887
35384SOL    HW2 8160   2.135   1.146   6.801
35385SOL     OW 8161   6.672   5.403   3.011
35385SOL    HW1 8162 -26.393   5.371  25.162
35385SOL    HW2 8163  17.751  -5.553   2.985
35386SOL     OW 8164   9.760   4.024   3.682
35386SOL    HW1 8165   9.795   4.085  36.736
35386SOL    HW2 8166   9.729   4.080   3.753
35387SOL     OW 8167   0.299  10.775   6.091
35387SOL    HW1 8168   0.270  10.808   6.176
35387SOL    HW2 8169   0.330  -0.354   6.110
35388SOL     OW 8170   5.819  -0.115   5.309
35388SOL    HW1 8171   5.855  21.934   5.226
35388SOL    HW2 8172   5.871  22.041   5.332
35389SOL     OW 8173  10.014   4.462  -0.520
35389SOL    HW1 8174  10.004   4.436  10.428
35389SOL    HW2 8175   9.943  15.458  -0.474
35390SOL     OW 8176   5.927  -0.707   7.366
35390SOL    HW1 8177 -16.184  32.321  -3.669
35390SOL    HW2 8178   5.932  32.431  -3.767
35391SOL     OW 8179   5.609   5.633   1.410
35391SOL    HW1 8180   5.552   5.627  -9.553
35391SOL    HW2 8181   5.599   5.723  -9.660
35392SOL     OW 8182   9.368   7.976  -2.176
35392SOL    HW1 8183  31.390   7.993  30.868
35392SOL    HW2 8184  -1.675  29.960  19.915
35393SOL     OW 8185   8.047   5.517   7.816
35393SOL    HW1 8186   8.054   5.603   7.858
35393SOL    HW2 8187   8.138  38.604   7.812
35394SOL     OW 8188   1.161  -1.049   9.369
35394SOL    HW1 8189   1.228  -1.114   9.389
35394SOL    HW2 8190   1.207  21.114  -1.670
35395SOL     OW 8191  10.973  -1.322   3.340
35395SOL    HW1 8192  10.928  31.716  14.403
35395SOL    HW2 8193  11.032  -1.305   3.413
35396SOL     OW 8194   5.230   3.166  -1.700
35396SOL    HW1 8195   5.256 -18.961  -1.779
35396SOL    HW2 8196   5.269  -7.787  31.408
35397SOL     OW 8197  11.412  10.038   2.300
35397SOL    HW1 8198 -10.681  10.069   2.211
35397SOL    HW2 8199  11.461 -11.971 -19.736
35398SOL     OW 8200   0.604   1.386   2.628
35398SOL    HW1 8201 -10.496   1.344  24.646
35398SOL    HW2 8202  33.711   1.337  13.749
35399SOL     OW 8203   6.459   2.500   4.815
35399SOL    HW1 8204   6.518   2.573   4.797
35399SOL    HW2 8205   6.406  24.571  15.775
35400SOL     OW 8206   9.392   4.088   7.645
35400SOL    HW1 8207   9.420   4.039   7.568
35400SOL    HW2 8208   9.331  26.233   7.612
35401SOL     OW 8209  10.825   6.726   0.668
35401SOL    HW1 8210  10.752  28.861   0.695
35401SOL    HW2 8211  10.838   6.666  11.781
35402SOL     OW 8212   8.834   7.260   8.943
35402SOL    HW1 8213   8.835  18.241   9.019
35402SOL    HW2 8214 -13.332  -3.740  19.985
35403SOL     OW 8215   8.252   4.058  10.352
35403SOL    HW1 8216 -35.948   4.091  32.352
35403SOL    HW2 8217  -2.718   4.121  -0.668
35404SOL     OW 8218   4.337  10.264  10.939
35404SOL    HW1 8219   4.250  10.252  -0.064
35404SOL    HW2 8220   4.396  10.265  11.014
35405SOL     OW 8221   8.185   3.950   8.764
35405SOL    HW1 8222   8.234   4.007   8.824
35405SOL    HW2 8223   8.176 -40.155   8.684
35406SOL     OW 8224   3.526   2.289   1.654
35406SOL    HW1 8225   3.611  24.409   1.669
35406SOL    HW2 8226   3.509   2.239  12.773
35407SOL     OW 8227   1.587   3.867   6.191
35407SOL    HW1 8228   1.513  14.939  -4.797
35407SOL    HW2 8229  12.586  14.855   6.121
35408SOL     OW 8230   0.956   8.435   4.187
35408SOL    HW1 8231   0.962  -2.670 -17.962
35408SOL    HW2 8232   1.046   8.454   4.211
35409SOL     OW 8233  11.697   1.615   5.677
35409SOL    HW1 8234  11.611   1.655   5.663
35409SOL    HW2 8235 -10.335   1.679   5.730
35410SOL     OW 8236   0.750   5.004   6.275
35410SOL    HW1 8237 -10.216  15.989   6.304
35410SOL    HW2 8238  22.775   4.944   6.223
35411SOL     OW 8239   2.571   1.799   6.278
35411SOL    HW1 8240   2.611  23.960  17.343
35411SOL    HW2 8241  35.758   1.752  17.269
35412SOL     OW 8242   5.081   8.181   2.929
35412SOL    HW1 8243   5.094   8.100 -41.278
35412SOL    HW2 8244 -16.981   8.157   3.020
35413SOL     OW 8245   7.195   2.565   2.415
35413SOL    HW1 8246   7.120  -8.466 -30.645
35413SOL    HW2 8247  18.229   2.475   2.383
35414SOL     OW 8248   1.803   3.066   9.645
35414SOL    HW1 8249   1.796  14.109   9.550
35414SOL    HW2 8250 -20.227   3.144   9.669
35415SOL     OW 8251   4.696   6.669   1.185
35415SOL    HW1 8252  15.804  17.729   1.249
35415SOL    HW2 8253  37.806   6.749   1.133
35416SOL     OW 8254   4.880   0.769   6.624
35416SOL    HW1 8255  16.001   0.810  -4.444
35416SOL    HW2 8256   4.848   0.827   6.694
35417SOL     OW 8257   9.126   6.024   2.726
35417SOL    HW1 8258   9.200   6.005   2.784
35417SOL    HW2 8259   9.121   6.120   2.726
35418SOL     OW 8260   3.190   4.647  13.452
35418SOL    HW1 8261  -7.930   4.699  -8.627
35418SOL    HW2 8262   3.230 -17.414  -8.542
35419SOL     OW 8263   6.090   5.520   0.985
35419SOL    HW1 8264  28.126   5.468   1.053
35419SOL    HW2 8265   6.094   5.609   1.020
35420SOL     OW 8266   7.025   5.135   3.301
35420SOL    HW1 8267   7.061   5.090   3.225
35420SOL    HW2 8268   7.020   5.068   3.369
35421SOL     OW 8269   3.094   6.636   9.934
35421SOL    HW1 8270  14.115   6.555   9.982
35421SOL    HW2 8271   3.084  -4.335  21.039
35422SOL     OW 8272   4.670   0.813  10.990
35422SOL    HW1 8273 -28.377   0.819  11.053
35422SOL    HW2 8274   4.708   0.769  10.914
35423SOL     OW 8275   3.464   5.731  10.636
35423SOL    HW1 8276  14.442  16.836 -11.409
35423SOL    HW2 8277   3.451   5.733  10.542
35424SOL     OW 8278   4.471   8.049   8.873
35424SOL    HW1 8279  15.488 -13.943  19.880
35424SOL    HW2 8280  15.426   8.010   8.896
35425SOL     OW 8281  10.580   1.815   9.540
35425SOL    HW1 8282  10.521  -9.208  -1.572
35425SOL    HW2 8283  10.668  -9.208   9.504
35426SOL     OW 8284   6.637   3.612   8.511
35426SOL    HW1 8285  17.707   3.580   8.596
35426SOL    HW2 8286   6.544   3.588   8.509
35427SOL     OW 8287   6.775   7.204   1.456
35427SOL    HW1 8288  -4.244   7.118  12.532
35427SOL    HW2 8289   6.753   7.187   1.364
35428SOL     OW 8290   8.985   4.899  -1.680
35428SOL    HW1 8291   8.907  -6.130   9.413
35428SOL    HW2 8292   8.952   4.897  31.349
35429SOL     OW 8293  10.656   9.673   8.903
35429SOL    HW1 8294  -0.468   9.655   8.861
35429SOL    HW2 8295  10.718  20.657   8.856
35430SOL     OW 8296   5.762   8.881   6.759
35430SOL    HW1 8297   5.794  19.915   6.849
35430SOL    HW2 8298 -38.486   8.847  28.843
35431SOL     OW 8299   8.366   4.532   5.727
35431SOL    HW1 8300   8.461   4.517   5.729
35431SOL    HW2 8301   8.346  15.586 -49.563
35432SOL     OW 8302   1.981   6.597   1.152
35432SOL    HW1 8303   1.932   6.575   1.231
35432SOL    HW2 8304   2.066  17.667   1.185
35433SOL     OW 8305  -0.525   7.706   7.751
35433SOL    HW1 8306  10.530   7.780   7.693
35433SOL    HW2 8307  -0.438   7.683   7.784
35434SOL     OW 8308   0.907   6.316   5.185
35434SOL    HW1 8309   0.867 -15.832   5.132
35434SOL    HW2 8310   0.917  17.429   5.125
35435SOL     OW 8311   1.199   0.350   1.150
35435SOL    HW1 8312   1.209   0.289   1.223
35435SOL    HW2 8313  -9.825  22.516   1.188
35436SOL     OW 8314   4.144   6.320   0.789
35436SOL    HW1 8315  15.090   6.323   0.809
35436SOL    HW2 8316 -28.932   6.335   0.873
35437SOL     OW 8317   5.955   2.402   8.147
35437SOL    HW1 8318   5.887   2.358  19.136
35437SOL    HW2 8319  17.075 -19.697   8.100
35438SOL     OW 8320   7.673   8.537   5.040
35438SOL    HW1 8321  29.678  30.673   5.017
35438SOL    HW2 8322   7.653   8.506   5.128
35439SOL     OW 8323   7.821   8.852   2.358
35439SOL    HW1 8324   7.868  -2.271  13.406
35439SOL    HW2 8325   7.770   8.858   2.439
35440SOL     OW 8326  -0.234   6.786  -1.569
35440SOL    HW1 8327 -11.245   6.876  31.536
35440SOL    HW2 8328  32.901  17.808   9.563
35441SOL     OW 8329   8.749   7.919   4.052
35441SOL    HW1 8330   8.804   7.980   4.101
35441SOL    HW2 8331   8.675   7.973   4.022
35442SOL     OW 8332   1.526   4.193   7.812
35442SOL    HW1 8333   1.591   4.128   7.785
35442SOL    HW2 8334  12.508   4.147  -3.167
35443SOL     OW 8335  -1.111   6.412   6.240
35443SOL    HW1 8336  -1.097  28.574   6.194
35443SOL    HW2 8337  20.874  28.492   6.261
35444SOL     OW 8338   1.555   4.887   9.279
35444SOL    HW1 8339  12.564   4.861   9.192
35444SOL    HW2 8340  12.685   4.912   9.266
35445SOL     OW 8341   1.853   0.348   5.289
35445SOL    HW1 8342   1.782  22.482   5.254
35445SOL    HW2 8343   1.914   0.339   5.216
35446SOL     OW 8344   2.876   9.500   4.212
35446SOL    HW1 8345   2.791   9.493   4.169
35446SOL    HW2 8346  13.958   9.416   4.193
35447SOL     OW 8347  11.531   4.147   5.615
35447SOL    HW1 8348  11.572  15.100  -5.416
35447SOL    HW2 8349 -10.510  37.303   5.536
35448SOL     OW 8350   1.020   5.315   4.705
35448SOL    HW1 8351   1.079  27.377   4.632
35448SOL    HW2 8352   0.948  16.292  26.772
35449SOL     OW 8353   9.121   5.909   8.025
35449SOL    HW1 8354   9.049   5.904  -3.078
35449SOL    HW2 8355   9.173   5.985  -3.043
35450SOL     OW 8356   6.339   3.798   2.354
35450SOL    HW1 8357   6.344  14.928  -8.656
35450SOL    HW2 8358   6.320 -29.371   2.434
35451SOL     OW 8359   2.751   2.643  10.708
35451SOL    HW1 8360   2.755 -19.345  10.680
35451SOL    HW2 8361   2.662   2.615  -0.354
35452SOL     OW 8362   8.725   3.349   1.016
35452SOL    HW1 8363 -13.383  -7.705 -10.114
35452SOL    HW2 8364   8.712  -7.775   1.059
35453SOL     OW 8365   6.276   4.791   8.832
35453SOL    HW1 8366   6.208   4.832  19.818
35453SOL    HW2 8367   6.282  -6.194   8.910
35454SOL     OW 8368   3.914   7.301  10.257
35454SOL    HW1 8369  14.923   7.380  10.212
35454SOL    HW2 8370   3.957   7.334  10.336
35455SOL     OW 8371   2.418   3.016   2.616
35455SOL    HW1 8372   2.503   3.001  -8.383
35455SOL    HW2 8373   2.359  -8.007   2.690
35456SOL     OW 8374   7.972  10.140   7.837
35456SOL    HW1 8375   7.929  10.069   7.788
35456SOL    HW2 8376   7.914  -0.884   7.912
35457SOL     OW 8377  10.103   7.747   5.717
35457SOL    HW1 8378  10.125   7.687   5.788
35457SOL    HW2 8379  10.040   7.808   5.756
35458SOL     OW 8380   7.596   3.423   5.814
35458SOL    HW1 8381   7.628  14.535  -5.280
35458SOL    HW2 8382   7.551   3.466  16.925
35459SOL     OW 8383  10.062   9.970   4.528
35459SOL    HW1 8384  10.069 -12.026   4.575
35459SOL    HW2 8385  21.190 -34.223   4.525
35460SOL     OW 8386   1.017   8.555  12.856
35460SOL    HW1 8387  11.985   8.506 -31.262
35460SOL    HW2 8388   0.986  19.685 -20.265
35461SOL     OW 8389  -0.402   7.683   9.264
35461SOL    HW1 8390  21.619   7.754   9.290
35461SOL    HW2 8391 -11.365   7.694   9.321
35462SOL     OW 8392  10.228   0.219   0.630
35462SOL    HW1 8393  10.280   0.208   0.710
35462SOL    HW2 8394  10.288   0.259 -10.472
35463SOL     OW 8395   2.165  10.314   4.339
35463SOL    HW1 8396   2.099  21.295  -6.738
35463SOL    HW2 8397  13.224  10.377   4.270
35464SOL     OW 8398   1.834   3.346   5.881
35464SOL    HW1 8399   1.793   3.297   5.953
35464SOL    HW2 8400   1.922  14.350   5.874
35465SOL     OW 8401   9.221  10.259   2.172
35465SOL    HW1 8402   9.167  21.242   2.226
35465SOL    HW2 8403 -12.897  -0.694   2.181
35466SOL     OW 8404   3.044   4.362   6.057
35466SOL    HW1 8405  -7.957   4.286   6.099
35466SOL    HW2 8406 -18.961   4.415   6.029
35467SOL     OW 8407   4.996   9.399   5.466
35467SOL    HW1 8408  27.098   9.306   5.464
35467SOL    HW2 8409  -5.987   9.437 -16.545
35468SOL     OW 8410   3.284   7.220   4.623
35468SOL    HW1 8411  14.245   7.266   4.593
35468SOL    HW2 8412   3.307  -3.877   4.551
35469SOL     OW 8413   6.715   6.126   1.204
35469SOL    HW1 8414  17.701   6.161   1.133
35469SOL    HW2 8415 -15.306   6.199   1.227
35470SOL     OW 8416   2.246   7.234   3.996
35470SOL    HW1 8417  13.248  29.398   3.975
35470SOL    HW2 8418  -8.735   7.215   3.923
35471SOL     OW 8419   4.798   4.719   7.871
35471SOL    HW1 8420   4.738   4.792  18.897
35471SOL    HW2 8421   4.839  -6.335   7.786
35472SOL     OW 8422   7.799   7.336  -1.704
35472SOL    HW1 8423   7.712   7.315  20.343
35472SOL    HW2 8424   7.827   7.410  31.362
35473SOL     OW 8425   6.338  11.021   3.532
35473SOL    HW1 8426   6.383  11.078  58.792
35473SOL    HW2 8427  -4.635  11.000   3.466
35474SOL     OW 8428   5.096   5.765   8.634
35474SOL    HW1 8429   5.085  16.747  19.598
35474SOL    HW2 8430   5.033   5.734  -2.342
35475SOL     OW 8431   9.767   2.556   5.837
35475SOL    HW1 8432   9.852  13.625   5.869
35475SOL    HW2 8433   9.717  35.755 -16.254
35476SOL     OW 8434  -0.429   0.431  -0.457
35476SOL    HW1 8435  21.621   0.511  21.666
35476SOL    HW2 8436  32.608   0.389  -0.484
35477SOL     OW 8437   4.271   3.817   1.188
35477SOL    HW1 8438  15.377  14.807   1.140
35477SOL    HW2 8439  26.382   3.907  -9.853
35478SOL     OW 8440   0.884   5.978   1.556
35478SOL    HW1 8441   0.790  -5.049  -9.473
35478SOL    HW2 8442  11.957  -5.075   1.645
35479SOL     OW 8443   2.540   3.592   0.311
35479SOL    HW1 8444   2.606  25.623  22.439
35479SOL    HW2 8445   2.553   3.683  22.417
35480SOL     OW 8446   7.098   5.049   0.160
35480SOL    HW1 8447  -3.892 -17.099  11.243
35480SOL    HW2 8448   7.160   5.088   0.098
35481SOL     OW 8449   6.461   7.075   7.068
35481SOL    HW1 8450   6.391  -4.030   7.072
35481SOL    HW2 8451   6.541  29.105   7.090
35482SOL     OW 8452  10.172   3.697   7.796
35482SOL    HW1 8453  10.123  36.740   7.828
35482SOL    HW2 8454  21.272  36.838   7.867
35483SOL     OW 8455  11.378   8.931  11.642
35483SOL    HW1 8456  11.433   8.997  11.685
35483SOL    HW2 8457   0.250  31.027 -21.443
35484SOL     OW 8458   6.659   1.926   2.675
35484SOL    HW1 8459   6.721   1.867   2.716
35484SOL    HW2 8460   6.660   1.901 -30.536
35485SOL     OW 8461   1.278   8.674   9.654
35485SOL    HW1 8462   1.268   8.612   9.727
35485SOL    HW2 8463  12.363  19.664 -12.493
35486SOL     OW 8464   7.182  10.044   8.961
35486SOL    HW1 8465   7.178  21.026   8.884
35486SOL    HW2 8466 -25.915   9.986  20.073
35487SOL     OW 8467   8.811   5.467   6.326
35487SOL    HW1 8468   8.763   5.417 -37.898
35487SOL    HW2 8469   8.866  16.566   6.276
35488SOL     OW 8470   2.978   2.167   5.901
35488SOL    HW1 8471   3.063  13.249   5.892
35488SOL    HW2 8472  13.954  -8.800   5.897
35489SOL     OW 8473   7.234   6.170   5.937
35489SOL    HW1 8474   7.227   6.131  -5.189
35489SOL    HW2 8475   7.147   6.206   5.954
35490SOL     OW 8476   8.882   0.155   2.775
35490SOL    HW1 8477   8.961  11.244   2.799
35490SOL    HW2 8478   8.821   0.221   2.744
35491SOL     OW 8479   8.408   1.998   4.946
35491SOL    HW1 8480   8.424   2.079   4.898
35491SOL    HW2 8481   8.345 -20.129   4.892
35492SOL     OW 8482   4.001   2.326   8.011
35492SOL    HW1 8483  15.098   2.251  19.034
35492SOL    HW2 8484   3.913   2.291   7.997
35493SOL     OW 8485   8.250  11.856   2.488
35493SOL    HW1 8486   8.281 -10.134  13.514
35493SOL    HW2 8487   8.271  11.811   2.406
35494SOL     OW 8488   2.536   7.057   2.485
35494SOL    HW1 8489   2.477   6.983   2.501
35494SOL    HW2 8490   2.503   7.097   2.404
35495SOL     OW 8491   5.410   3.026   8.370
35495SOL    HW1 8492  27.436   2.968  -2.724
35495SOL    HW2 8493   5.383  47.164   8.460
35496SOL     OW 8494   2.561   8.658   2.953
35496SOL    HW1 8495  -8.464   8.579  13.940
35496SOL    HW2 8496   2.594   8.635   3.040
35497SOL     OW 8497   7.246   7.854   1.655
35497SOL    HW1 8498   7.211   7.799  -9.455
35497SOL    HW2 8499   7.171   7.906  -9.355
35498SOL     OW 8500   8.789   1.469   0.863
35498SOL    HW1 8501  19.846  -9.522   0.943
35498SOL    HW2 8502   8.702   1.432   0.875
35499SOL     OW 8503   5.229   8.153   0.291
35499SOL    HW1 8504  -5.795   8.185   0.202
35499SOL    HW2 8505   5.231   8.058  11.323
35500SOL     OW 8506   0.040   1.825   3.662
35500SOL    HW1 8507   0.090   1.839  14.621
35500SOL    HW2 8508  33.166   1.731   3.679
35501SOL     OW 8509   2.896   1.039   5.582
35501SOL    HW1 8510  -8.192   1.117  -5.484
35501SOL    HW2 8511   2.901   1.045  -5.363
35502SOL     OW 8512   1.375  -0.612  10.816
35502SOL    HW1 8513  34.492  10.495  10.884
35502SOL    HW2 8514   1.438  -0.677  10.848
35503SOL     OW 8515   6.059   3.227   2.490
35503SOL    HW1 8516   6.062   3.134  -8.570
35503SOL    HW2 8517   6.096   3.270   2.413
35504SOL     OW 8518   1.542   6.182   6.721
35504SOL    HW1 8519   1.554   6.274 -15.382
35504SOL    HW2 8520   1.607   6.135  17.708
35505SOL     OW 8521   7.267   6.323  10.185
35505SOL    HW1 8522   7.307   6.382  10.249
35505SOL    HW2 8523  -3.704  17.300  10.164
35506SOL     OW 8524  10.974  -2.213   3.960
35506SOL    HW1 8525  11.023  30.825   3.943
35506SOL    HW2 8526  11.026   8.872   4.026
35507SOL     OW 8527   9.413   8.320   4.998
35507SOL    HW1 8528   9.344   8.269  -5.999
35507SOL    HW2 8529   9.389   8.319   4.905
35508SOL     OW 8530   8.145  11.509  -0.151
35508SOL    HW1 8531   8.166   0.387  -0.195
35508SOL    HW2 8532  -2.909  11.572  10.817
35509SOL     OW 8533   1.019   4.682  -1.459
35509SOL    HW1 8534   1.093   4.626  20.595
35509SOL    HW2 8535   1.061   4.763   9.609
35510SOL     OW 8536   0.781   3.232   6.894
35510SOL    HW1 8537 -10.198   3.303   6.875
35510SOL    HW2 8538  11.833   3.169   6.822
35511SOL     OW 8539   1.220   5.194   4.543
35511SOL    HW1 8540   1.258   5.226   4.460
35511SOL    HW2 8541  12.303   5.111  15.598
35512SOL     OW 8542   7.872   4.410  11.784
35512SOL    HW1 8543 -14.134   4.447 -10.245
35512SOL    HW2 8544   7.889   4.437  11.694
35513SOL     OW 8545   5.043  -0.298   0.205
35513SOL    HW1 8546   5.121  -0.243   0.217
35513SOL    HW2 8547   4.970  21.839   0.225
35514SOL     OW 8548  -0.264   5.294  10.062
35514SOL    HW1 8549  -0.347 -16.739  -0.965
35514SOL    HW2 8550  10.750  -5.836  10.044
35515SOL     OW 8551   3.052   1.215   3.715
35515SOL    HW1 8552  -7.918   1.270   3.681
35515SOL    HW2 8553   3.005   1.270   3.778
35516SOL     OW 8554   5.262   5.845   6.586
35516SOL    HW1 8555   5.324  16.925   6.525
35516SOL    HW2 8556   5.179   5.842  -4.502
35517SOL     OW 8557   0.224   0.271   2.098
35517SOL    HW1 8558   0.260   0.320   2.025
35517SOL    HW2 8559   0.135   0.305   2.109
35518SOL     OW 8560   6.527   1.272   1.654
35518SOL    HW1 8561   6.609   1.322   1.652
35518SOL    HW2 8562  28.593   1.250   1.746
35519SOL     OW 8563   1.252   4.181   6.324
35519SOL    HW1 8564   1.330   4.125 -37.830
35519SOL    HW2 8565   1.183   4.123  -4.746
35520SOL     OW 8566   6.530   8.377   8.773
35520SOL    HW1 8567   6.512   8.430   8.851
35520SOL    HW2 8568  17.656   8.406  -2.295
35521SOL     OW 8569   3.969   7.349   2.418
35521SOL    HW1 8570  37.117  -3.708   2.507
35521SOL    HW2 8571   3.890 -14.678   2.429
35522SOL     OW 8572   2.446  10.352   6.597
35522SOL    HW1 8573   2.530  21.438   6.593
35522SOL    HW2 8574  13.494  10.294   6.672
35523SOL     OW 8575   9.591   7.713   4.143
35523SOL    HW1 8576   9.560   7.633   4.101
35523SOL    HW2 8577 -23.521  18.730  -6.804
35524SOL     OW 8578   2.972   0.638   6.997
35524SOL    HW1 8579   2.980   0.648   7.091
35524SOL    HW2 8580   3.062   0.635   6.965
35525SOL     OW 8581   2.496  10.111   0.463
35525SOL    HW1 8582   2.431  10.060   0.415
35525SOL    HW2 8583  -8.587  10.194   0.482
35526SOL     OW 8584   8.334   3.369   9.068
35526SOL    HW1 8585   8.353   3.329  31.232
35526SOL    HW2 8586   8.358   3.302   9.004
35527SOL     OW 8587   4.818   7.843   1.596
35527SOL    HW1 8588   4.895   7.796   1.627
35527SOL    HW2 8589  15.785   7.808   1.648
35528SOL     OW 8590   3.184   5.994   3.607
35528SOL    HW1 8591   3.268  39.122   3.651
35528SOL    HW2 8592   3.160   5.902  14.660
35529SOL     OW 8593   3.429   6.862   5.702
35529SOL    HW1 8594  -7.632  17.981   5.652
35529SOL    HW2 8595 -29.598  17.884   5.681
35530SOL     OW 8596   4.435   9.755   2.008
35530SOL    HW1 8597   4.499   9.707   2.061
35530SOL    HW2 8598  26.505   9.702  -9.111
35531SOL     OW 8599  10.596   1.387   8.543
35531SOL    HW1 8600  10.604  12.499   8.482
35531SOL    HW2 8601  10.686   1.364   8.566
35532SOL     OW 8602   7.874   2.076  -1.932
35532SOL    HW1 8603   7.939   2.143  31.208
35532SOL    HW2 8604   7.810   2.121  20.092
35533SOL     OW 8605   9.207   5.434  10.873
35533SOL    HW1 8606   9.113   5.443  10.889
35533SOL    HW2 8607  -1.826   5.363  10.809
35534SOL     OW 8608  -0.358   9.211   0.874
35534SOL    HW1 8609  10.663   9.117   0.872
35534SOL    HW2 8610  -0.397   9.244   0.793
35535SOL     OW 8611   2.012   5.537   2.391
35535SOL    HW1 8612   1.988  49.719   2.480
35535SOL    HW2 8613 -20.146   5.555 -19.740
35536SOL     OW 8614   0.580   3.001   9.047
35536SOL    HW1 8615   0.509   3.006   9.111
35536SOL    HW2 8616   0.654   2.967  42.216
35537SOL     OW 8617  10.055   8.141   9.422
35537SOL    HW1 8618  10.048   8.234   9.400
35537SOL    HW2 8619  10.119 -13.942   9.493
35538SOL     OW 8620   7.625   3.957   8.891
35538SOL    HW1 8621   7.607 -29.072  -2.121
35538SOL    HW2 8622 -14.381  26.044   8.829
35539SOL     OW 8623   4.311   8.938   0.218
35539SOL    HW1 8624   4.331   8.851  11.291
35539SOL    HW2 8625  -6.685   8.998   0.279
35540SOL     OW 8626   0.953   1.391   1.338
35540SOL    HW1 8627   0.995   1.306   1.347
35540SOL    HW2 8628   1.011   1.439  34.397
35541SOL     OW 8629   7.715   7.409   5.092
35541SOL    HW1 8630  -3.362  29.457  16.214
35541SOL    HW2 8631   7.694  18.379  16.069
35542SOL     OW 8632   2.972   2.923   3.289
35542SOL    HW1 8633   2.958 -19.157   3.384
35542SOL    HW2 8634   2.998  24.912   3.268
35543SOL     OW 8635   4.322   7.682   2.011
35543SOL    HW1 8636   4.261   7.631  13.104
35543SOL    HW2 8637  -6.772  18.789   1.971
35544SOL     OW 8638  10.692   4.280   1.375
35544SOL    HW1 8639  10.738   4.266   1.292
35544SOL    HW2 8640  10.701  26.276  -9.618
35545SOL     OW 8641   7.504   8.753   8.154
35545SOL    HW1 8642  -3.532   8.676   8.097
35545SOL    HW2 8643   7.412  19.802   8.176
35546SOL     OW 8644   5.735   6.949   3.211
35546SOL    HW1 8645   5.818   6.904   3.227
35546SOL    HW2 8646   5.689   6.945   3.295
35547SOL     OW 8647   4.532   2.364   3.376
35547SOL    HW1 8648   4.597 -19.652 -18.671
35547SOL    HW2 8649   4.482   2.412   3.311
35548SOL     OW 8650   3.492   5.961   6.045
35548SOL    HW1 8651   3.522   5.889   5.990
35548SOL    HW2 8652  14.473   6.012   5.989
35549SOL     OW 8653   5.066   4.378   3.944
35549SOL    HW1 8654   4.983  -6.615  14.979
35549SOL    HW2 8655   5.124   4.425   3.884
35550SOL     OW 8656   3.518   8.896   5.607
35550SOL    HW1 8657  -7.451   8.841   5.643
35550SOL    HW2 8658   3.531  -2.148   5.513
35551SOL     OW 8659  10.816   0.956   4.993
35551SOL    HW1 8660 -11.353  11.990   5.026
35551SOL    HW2 8661 -11.230  12.078   5.028
35552SOL     OW 8662   5.348   2.735   5.803
35552SOL    HW1 8663   5.374  -8.396   5.790
35552SOL    HW2 8664   5.430   2.782   5.815
35553SOL     OW 8665   5.060   0.943   6.542
35553SOL    HW1 8666   5.104 -10.014  17.601
35553SOL    HW2 8667   5.110   0.906   6.469
35554SOL     OW 8668  -0.759   9.897   2.208
35554SOL    HW1 8669  -0.700  21.012  13.258
35554SOL    HW2 8670  21.378   9.821   2.215
35555SOL     OW 8671   0.904  10.640   1.432
35555SOL    HW1 8672   0.969 -11.495   1.474
35555SOL    HW2 8673  11.898  10.583  12.410
35556SOL     OW 8674  10.945   1.134  10.090
35556SOL    HW1 8675  10.971  12.262  10.118
35556SOL    HW2 8676  11.005  12.116  -0.902
35557SOL     OW 8677  11.601  -0.585   5.862
35557SOL    HW1 8678  11.665  21.536 -16.161
35557SOL    HW2 8679 -10.466  10.361   5.876
35558SOL     OW 8680  10.051   8.713   7.391
35558SOL    HW1 8681  10.122  19.699 -14.723
35558SOL    HW2 8682 -12.105   8.656   7.387
35559SOL     OW 8683   1.575   2.833  10.554
35559SOL    HW1 8684   1.627   2.878  -0.552
35559SOL    HW2 8685  12.533   2.883  10.559
35560SOL     OW 8686  10.854  10.196   6.691
35560SOL    HW1 8687  10.871  10.178   6.599
35560SOL    HW2 8688  10.934  10.171  28.816
35561SOL     OW 8689   2.136   2.143   4.534
35561SOL    HW1 8690  24.304   2.168   4.562
35561SOL    HW2 8691   2.129   2.051   4.559
35562SOL     OW 8692   5.737  10.249   6.056
35562SOL    HW1 8693   5.736  10.211 -16.111
35562SOL    HW2 8694   5.650  10.289  -4.974
35563SOL     OW 8695  10.211   4.238   8.990
35563SOL    HW1 8696  10.237   4.153  -2.087
35563SOL    HW2 8697  10.120   4.225   9.017
35564SOL     OW 8698   6.151   1.807   3.065
35564SOL    HW1 8699   6.160   1.825   2.971
35564SOL    HW2 8700   6.085   1.738 -30.050
35565SOL     OW 8701   8.885   5.537   4.547
35565SOL    HW1 8702   8.849   5.472   4.487
35565SOL    HW2 8703  30.928   5.514   4.632
35566SOL     OW 8704   9.472   1.924   3.162
35566SOL    HW1 8705   9.492   2.015   3.140
35566SOL    HW2 8706  -1.651   1.928   3.209
35567SOL     OW 8707   9.500   1.098   4.953
35567SOL    HW1 8708   9.553   1.065  -6.159
35567SOL    HW2 8709 -12.663   1.051 -50.253
35568SOL     OW 8710   7.394   5.335   2.390
35568SOL    HW1 8711   7.455   5.262  24.480
35568SOL    HW2 8712   7.341  16.352   2.314
35569SOL     OW 8713   8.679   8.029   0.362
35569SOL    HW1 8714  -2.345  -3.072   0.291
35569SOL    HW2 8715   8.650   8.109   0.320
35570SOL     OW 8716   8.689   6.617   2.000
35570SOL    HW1 8717   8.600   6.597  24.107
35570SOL    HW2 8718  30.790  17.587   1.938
35571SOL     OW 8719   2.266  -0.284   9.591
35571SOL    HW1 8720   2.296  32.753  20.591
35571SOL    HW2 8721   2.243  -0.229   9.517
35572SOL     OW 8722   4.296   4.281   8.858
35572SOL    HW1 8723 -17.739   4.303   8.776
35572SOL    HW2 8724   4.366  -6.759  19.963
35573SOL     OW 8725   9.882   7.081   5.532
35573SOL    HW1 8726   9.936   7.129   5.595
35573SOL    HW2 8727  20.847   7.138   5.516
35574SOL     OW 8728   2.639   3.659   6.016
35574SOL    HW1 8729   2.597  36.692   6.025
35574SOL    HW2 8730  -8.419   3.686   5.926
35575SOL     OW 8731   8.181  10.479   9.056
35575SOL    HW1 8732  -2.810  10.523  31.066
35575SOL    HW2 8733   8.194  10.385   9.039
35576SOL     OW 8734   8.784   9.260  11.804
35576SOL    HW1 8735 -13.223  -1.717  11.812
35576SOL    HW2 8736   8.708   9.313 -21.338
35577SOL     OW 8737  15.065  10.677   9.947
35577SOL    HW1 8738 -29.135  10.684   9.862
35577SOL    HW2 8739 -18.067  10.586  -1.066
35578SOL     OW 8740  11.172   7.608   1.330
35578SOL    HW1 8741  11.091 -25.479   1.371
35578SOL    HW2 8742 -10.937   7.544   1.266
35579SOL     OW 8743   4.730   8.041  10.512
35579SOL    HW1 8744  -6.278   7.976  10.576
35579SOL    HW2 8745   4.809 -14.012  10.464
35580SOL     OW 8746   0.648   0.383   8.092
35580SOL    HW1 8747 -10.368   0.323   8.163
35580SOL    HW2 8748   0.554   0.398  19.143
35581SOL     OW 8749   6.496   0.117  10.262
35581SOL    HW1 8750  -4.584   0.159  10.187
35581SOL    HW2 8751   6.479   0.023  10.250
35582SOL     OW 8752   5.968   7.483   2.077
35582SOL    HW1 8753  -5.033   7.434  -9.035
35582SOL    HW2 8754   5.884   7.514   2.042
35583SOL     OW 8755   3.374   9.774   6.564
35583SOL    HW1 8756   3.387   9.819   6.481
35583SOL    HW2 8757   3.309   9.827   6.610
35584SOL     OW 8758   9.427   9.983   8.488
35584SOL    HW1 8759  20.495  10.074   8.489
35584SOL    HW2 8760  20.448   9.963   8.580
35585SOL     OW 8761   4.918   3.472   1.946
35585SOL    HW1 8762   4.850   3.539   1.947
35585SOL    HW2 8763   4.933   3.455   1.853
35586SOL     OW 8764   4.077   1.388   5.040
35586SOL    HW1 8765   4.056   1.482   5.038
35586SOL    HW2 8766   4.172  23.464  16.066
35587SOL     OW 8767   5.584  10.419   0.749
35587SOL    HW1 8768   5.647  10.353 -10.262
35587SOL    HW2 8769  38.628  10.368   0.717
35588SOL     OW 8770   8.667  10.820   2.712
35588SOL    HW1 8771   8.581  10.794   2.745
35588SOL    HW2 8772   8.655  10.908   2.677
35589SOL     OW 8773   3.101   9.266  -1.484
35589SOL    HW1 8774   3.047  31.394  -1.422
35589SOL    HW2 8775  25.119   9.204  53.673
35590SOL     OW 8776   6.245   1.739   7.139
35590SOL    HW1 8777  17.330  -9.259   7.212
35590SOL    HW2 8778   6.313   1.691   7.092
35591SOL     OW 8779   2.676   8.762   9.124
35591SOL    HW1 8780   2.702   8.681  -1.873
35591SOL    HW2 8781   2.622 -13.345  -1.989
35592SOL     OW 8782   2.387   1.218   3.626
35592SOL    HW1 8783   2.342   1.230   3.542
35592SOL    HW2 8784   2.457   1.283   3.624
35593SOL     OW 8785   9.111   4.561   3.448
35593SOL    HW1 8786 -23.988   4.492   3.512
35593SOL    HW2 8787   9.082   4.514   3.370
35594SOL     OW 8788   8.117   3.231   2.416
35594SOL    HW1 8789  41.295   3.286  13.404
35594SOL    HW2 8790 -13.979   3.283   2.495
35595SOL     OW 8791   0.938   3.030   2.884
35595SOL    HW1 8792  23.026   3.075  24.879
35595SOL    HW2 8793  22.995   3.098  25.026
35596SOL     OW 8794   4.145   1.893   1.587
35596SOL    HW1 8795  -6.871   1.982   1.558
35596SOL    HW2 8796  37.267   1.840   1.507
35597SOL     OW 8797   4.591  11.795   5.597
35597SOL    HW1 8798  37.637 -32.361   5.660
35597SOL    HW2 8799   4.564   0.688  16.573
35598SOL     OW 8800  11.986  10.981   6.878
35598SOL    HW1 8801   0.860 -11.058   6.884
35598SOL    HW2 8802   0.932 -11.181   6.832
35599SOL     OW 8803   9.799  10.685   5.916
35599SOL    HW1 8804   9.783 -11.333   5.988
35599SOL    HW2 8805  20.765  21.663 -27.199
35600SOL     OW 8806   8.131   9.983   3.433
35600SOL    HW1 8807   8.101  -0.980   3.383
35600SOL    HW2 8808  30.130   9.948   3.472
35601SOL     OW 8809   8.866   3.971   5.171
35601SOL    HW1 8810   8.776   3.997  38.304
35601SOL    HW2 8811   8.860   3.882   5.136
35602SOL     OW 8812  10.678   1.787   7.406
35602SOL    HW1 8813  10.771   1.774   7.387
35602SOL    HW2 8814 -22.443   1.869   7.456
35603SOL     OW 8815   6.055   9.319   7.682
35603SOL    HW1 8816  17.031   9.288   7.747
35603SOL    HW2 8817   6.048   9.257  29.689
35604SOL     OW 8818   8.286  10.284   9.361
35604SOL    HW1 8819 -13.825 -11.707   9.342
35604SOL    HW2 8820   8.366  21.317   9.309
35605SOL     OW 8821  10.586   4.704  10.408
35605SOL    HW1 8822  10.553   4.700  -0.721
35605SOL    HW2 8823  10.514   4.739  10.459
35606SOL     OW 8824   3.995   9.993   0.745
35606SOL    HW1 8825   4.061  10.056   0.716
35606SOL    HW2 8826   3.991  10.004   0.840
35607SOL     OW 8827  10.398   6.087   1.289
35607SOL    HW1 8828  21.444   5.996  -9.777
35607SOL    HW2 8829  10.315   6.117   1.252
35608SOL     OW 8830  10.114   9.585   5.665
35608SOL    HW1 8831  10.128   9.659   5.606
35608SOL    HW2 8832  10.085   9.626  -5.293
35609SOL     OW 8833  10.926   9.082   1.345
35609SOL    HW1 8834  -0.039   9.063   1.288
35609SOL    HW2 8835  -0.094   9.169  -9.659
35610SOL     OW 8836  10.169   3.182   7.382
35610SOL    HW1 8837  10.243  -7.817   7.429
35610SOL    HW2 8838  10.197   3.092  29.446
35611SOL     OW 8839   3.399   5.978  10.306
35611SOL    HW1 8840   3.345  17.072  10.249
35611SOL    HW2 8841   3.448  -4.999  10.359
35612SOL     OW 8842   7.091   2.757   2.013
35612SOL    HW1 8843   7.079   2.667   2.043
35612SOL    HW2 8844  40.203  24.831   1.917
35613SOL     OW 8845   4.945  10.950   9.045
35613SOL    HW1 8846   4.938  10.880  20.020
35613SOL    HW2 8847   4.897  11.023   9.007
35614SOL     OW 8848  10.372   8.427   4.625
35614SOL    HW1 8849  10.385   8.415   4.719
35614SOL    HW2 8850  10.283   8.396   4.608
35615SOL     OW 8851   6.073   2.788   2.028
35615SOL    HW1 8852   6.106   2.698  13.068
35615SOL    HW2 8853   6.148   2.841   2.002
35616SOL     OW 8854   8.863   5.296   8.220
35616SOL    HW1 8855  -2.218   5.214   8.249
35616SOL    HW2 8856  -2.161   5.344   8.301
35617SOL     OW 8857   0.270   1.078   9.293
35617SOL    HW1 8858   0.219   1.159  20.325
35617SOL    HW2 8859   0.219  12.052   9.245
35618SOL     OW 8860  10.081   9.784   5.865
35618SOL    HW1 8861  -1.009  -1.233  -5.097
35618SOL    HW2 8862  10.135  -1.179 -27.271
35619SOL     OW 8863   5.860   2.166  10.241
35619SOL    HW1 8864   5.804  13.277  10.272
35619SOL    HW2 8865  -5.184 -19.907  21.185
35620SOL     OW 8866   7.938  11.616   7.460
35620SOL    HW1 8867   7.893  11.691   7.421
35620SOL    HW2 8868 -14.176 -10.468  -3.490
35621SOL     OW 8869   8.726   6.857   7.138
35621SOL    HW1 8870  19.824  28.893   7.075
35621SOL    HW2 8871   8.749   6.950   7.132
35622SOL     OW 8872   6.111  10.164   1.191
35622SOL    HW1 8873  17.193  10.157   1.277
35622SOL    HW2 8874   6.153  10.239   1.150
35623SOL     OW 8875   2.110   0.831   4.947
35623SOL    HW1 8876   2.091   0.922   4.927
35623SOL    HW2 8877  24.131   0.781  -6.150
35624SOL     OW 8878   7.556  -0.094   4.547
35624SOL    HW1 8879   7.467  33.059   4.539
35624SOL    HW2 8880   7.610  -0.016   4.559
35625SOL     OW 8881   8.009   4.112  10.850
35625SOL    HW1 8882  19.024  37.215 -11.321
35625SOL    HW2 8883   7.966   4.195  10.872
35626SOL     OW 8884   6.940   3.742   0.192
35626SOL    HW1 8885   7.031   3.755   0.165
35626SOL    HW2 8886   6.897   3.705  22.193
35627SOL     OW 8887   3.728   2.055   2.116
35627SOL    HW1 8888  14.764   2.132   2.172
35627SOL    HW2 8889   3.821   2.032   2.112
35628SOL     OW 8890   1.845   3.634   8.618
35628SOL    HW1 8891  12.833   3.623   8.538
35628SOL    HW2 8892   1.929   3.593   8.598
35629SOL     OW 8893   9.960   3.256   8.559
35629SOL    HW1 8894   9.903   3.255   8.481
35629SOL    HW2 8895  -1.128  14.245  19.664
35630SOL     OW 8896   4.128  11.181   1.452
35630SOL    HW1 8897 -18.002   0.210  -9.631
35630SOL    HW2 8898  15.199  11.126  -9.659
35631SOL     OW 8899   6.079   6.609   1.608
35631SOL    HW1 8900   6.050   6.520   1.584
35631SOL    HW2 8901  -4.918  17.681   1.529
35632SOL     OW 8902  -0.552   5.814   1.215
35632SOL    HW1 8903  32.661 -16.247   1.220
35632SOL    HW2 8904 -11.615   5.787   1.304
35633SOL     OW 8905   2.132   1.359   3.811
35633SOL    HW1 8906   2.097   1.363  14.762
35633SOL    HW2 8907   2.185   1.279   3.812
35634SOL     OW 8908  -0.553   3.255   8.219
35634SOL    HW1 8909  -0.596  -7.839   8.285
35634SOL    HW2 8910  10.518  -7.847  19.193
35635SOL     OW 8911   2.799   1.265   5.874
35635SOL    HW1 8912   2.876   1.313   5.904
35635SOL    HW2 8913   2.826   1.173  16.917
35636SOL     OW 8914   9.861   7.324   0.941
35636SOL    HW1 8915  20.862  18.403   0.862
35636SOL    HW2 8916   9.876   7.399 -10.040
35637SOL     OW 8917   0.096  -0.456   8.461
35637SOL    HW1 8918   0.010  10.626   8.456
35637SOL    HW2 8919   0.081  -0.533  19.555
35638SOL     OW 8920   1.988   2.501   7.700
35638SOL    HW1 8921   1.970  -8.446   7.683
35638SOL    HW2 8922   1.905  -8.573   7.736
35639SOL     OW 8923   3.008   7.293   3.193
35639SOL    HW1 8924  13.955  29.375   3.170
35639SOL    HW2 8925   3.054  40.422   3.110
35640SOL     OW 8926   2.379  10.633  11.522
35640SOL    HW1 8927   2.435  10.594   0.415
35640SOL    HW2 8928  13.414  10.566   0.550
35641SOL     OW 8929   5.407   3.405   2.220
35641SOL    HW1 8930  27.433   3.380  13.184
35641SOL    HW2 8931   5.497  14.425   2.194
35642SOL     OW 8932  11.125   9.655   1.350
35642SOL    HW1 8933   0.118  20.781  -9.667
35642SOL    HW2 8934  11.190 -12.485  -9.655
35643SOL     OW 8935   6.554   9.135  -1.227
35643SOL    HW1 8936   6.493  20.215  -1.289
35643SOL    HW2 8937  -4.529   9.143  20.937
35644SOL     OW 8938   0.804   6.807   6.354
35644SOL    HW1 8939  22.797  17.884   6.372
35644SOL    HW2 8940  22.934   6.824   6.433
35645SOL     OW 8941   2.943  11.367   6.466
35645SOL    HW1 8942  -8.106  22.481  -4.632
35645SOL    HW2 8943   2.929 -43.795  17.593
35646SOL     OW 8944   2.360   3.561   6.426
35646SOL    HW1 8945  -8.678  36.775   6.429
35646SOL    HW2 8946 -19.812  25.617   6.422
35647SOL     OW 8947   4.974   2.326  10.074
35647SOL    HW1 8948   5.036  -8.641  10.081
35647SOL    HW2 8949   5.029  -8.790  10.057
35648SOL     OW 8950   6.099   0.852   1.679
35648SOL    HW1 8951   6.008   0.824   1.695
35648SOL    HW2 8952   6.132   0.876  12.805
35649SOL     OW 8953  10.371   8.460  -1.662
35649SOL    HW1 8954  10.288   8.413  31.449
35649SOL    HW2 8955  -0.641   8.477  -1.752
35650SOL     OW 8956   1.651   3.436   2.679
35650SOL    HW1 8957   1.652   3.433   2.584
35650SOL    HW2 8958  -9.455   3.371   2.704
35651SOL     OW 8959  -0.413   0.382   3.520
35651SOL    HW1 8960  10.586  33.586 -29.618
35651SOL    HW2 8961  10.568  22.420   3.583
35652SOL     OW 8962   9.617   8.727   8.258
35652SOL    HW1 8963   9.529   8.716 -24.823
35652SOL    HW2 8964   9.620   8.818  -2.810
35653SOL     OW 8965   9.683   5.542   5.781
35653SOL    HW1 8966 -12.471  16.618   5.828
35653SOL    HW2 8967  20.799   5.574   5.829
35654SOL     OW 8968   8.942  11.330   3.208
35654SOL    HW1 8969  20.008  11.376  -7.911
35654SOL    HW2 8970  20.038   0.213   3.210
35655SOL     OW 8971   7.064  -0.370   4.452
35655SOL    HW1 8972  18.026  32.800   4.430
35655SOL    HW2 8973  -3.956  -0.420   4.372
35656SOL     OW 8974   4.513   8.072   3.631
35656SOL    HW1 8975  -6.607   8.027   3.657
35656SOL    HW2 8976   4.488   8.121  -7.487
35657SOL     OW 8977   0.427   4.444   0.057
35657SOL    HW1 8978  11.464  -6.678   0.008
35657SOL    HW2 8979   0.341   4.483   0.043
35658SOL     OW 8980  -0.154   9.421   5.356
35658SOL    HW1 8981  -0.113   9.432   5.270
35658SOL    HW2 8982  10.920   9.493   5.408
35659SOL     OW 8983   2.564   4.654   4.948
35659SOL    HW1 8984  13.554  -6.319   4.901
35659SOL    HW2 8985  13.540   4.583  16.000
35660SOL     OW 8986  10.433  10.272  10.832
35660SOL    HW1 8987  10.359  10.219  10.860
35660SOL    HW2 8988  10.471  10.224  10.758
35661SOL     OW 8989  10.989   3.536   9.718
35661SOL    HW1 8990  10.901   3.501   9.733
35661SOL    HW2 8991  11.048 -18.616   9.738
35662SOL     OW 8992   1.510   4.211   8.875
35662SOL    HW1 8993  12.499   4.134   8.903
35662SOL    HW2 8994   1.600   4.180 -13.210
35663SOL     OW 8995   5.061   5.925   3.747
35663SOL    HW1 8996   5.156   5.934   3.759
35663SOL    HW2 8997  16.064   6.000  -7.246
35664SOL     OW 8998  10.489   1.458   4.691
35664SOL    HW1 8999  10.481   1.543   4.733
35664SOL    HW2 9000  -0.457   1.439  15.730
35665SOL     OW 9001   5.743   7.508   6.737
35665SOL    HW1 9002  -5.249  18.513   6.812
35665SOL    HW2 9003  16.834   7.481   6.661
35666SOL     OW 9004   4.581   8.139   9.347
35666SOL    HW1 9005   4.531   8.219  20.369
35666SOL    HW2 9006  26.646   8.122   9.440
35667SOL     OW 9007  -1.095   4.347  10.295
35667SOL    HW1 9008  -1.005   4.347 -11.816
35667SOL    HW2 9009  20.936  15.334  10.231
35668SOL     OW 9010   5.125   8.050   4.144
35668SOL    HW1 9011   5.041  -3.006   4.187
35668SOL    HW2 9012   5.172   8.108   4.204
35669SOL     OW 9013  11.049   5.462   2.267
35669SOL    HW1 9014   0.022   5.476   2.361
35669SOL    HW2 9015  11.111   5.392   2.244
35670SOL     OW 9016   6.206   7.755   2.643
35670SOL    HW1 9017   6.238   7.665   2.650
35670SOL    HW2 9018   6.112   7.749   2.660
35671SOL     OW 9019   3.631   7.201   6.485
35671SOL    HW1 9020   3.605  -3.760 -15.546
35671SOL    HW2 9021   3.630   7.131   6.550
35672SOL     OW 9022   2.975   0.018   9.186
35672SOL    HW1 9023  -8.036   0.009  -1.945
35672SOL    HW2 9024  24.966   0.053   9.180
35673SOL     OW 9025   1.443   2.526   0.912
35673SOL    HW1 9026   1.538   2.529   0.901
35673SOL    HW2 9027  23.494   2.453   0.858
35674SOL     OW 9028   5.731   3.469   5.248
35674SOL    HW1 9029   5.826  14.498   5.250
35674SOL    HW2 9030  -5.323   3.544   5.189
35675SOL     OW 9031  10.888   9.520  10.932
35675SOL    HW1 9032  -0.088   9.587  10.955
35675SOL    HW2 9033  10.834  -1.479 -11.216
35676SOL     OW 9034  10.585   7.642   6.927
35676SOL    HW1 9035  10.570   7.548   6.928
35676SOL    HW2 9036  10.501   7.680  -4.138
35677SOL     OW 9037   4.068   5.545   5.280
35677SOL    HW1 9038   4.145   5.593   5.309
35677SOL    HW2 9039   4.049   5.579 -16.886
35678SOL     OW 9040   4.953  11.637   7.970
35678SOL    HW1 9041   4.987   0.509   7.985
35678SOL    HW2 9042  -6.028  11.694  30.098
35679SOL     OW 9043   4.319   9.264   3.215
35679SOL    HW1 9044   4.254   9.236   3.150
35679SOL    HW2 9045   4.269   9.280   3.294
35680SOL     OW 9046   4.200  10.357  12.394
35680SOL    HW1 9047  -6.777  10.429  12.384
35680SOL    HW2 9048  -6.889  10.379 -20.646
35681SOL     OW 9049   1.869   1.568   5.331
35681SOL    HW1 9050   1.875   1.577   5.426
35681SOL    HW2 9051 -20.174  12.521   5.312
35682SOL     OW 9052   8.577  11.525   3.843
35682SOL    HW1 9053   8.515   0.439   3.899
35682SOL    HW2 9054   8.531  11.533   3.759
35683SOL     OW 9055   3.740   4.718   4.067
35683SOL    HW1 9056   3.767  15.816   3.997
35683SOL    HW2 9057   3.722   4.635  15.062
35684SOL     OW 9058   0.079   6.233   6.851
35684SOL    HW1 9059   0.160   6.191 -15.198
35684SOL    HW2 9060  33.225   6.285   6.776
35685SOL     OW 9061   8.734   0.733   5.328
35685SOL    HW1 9062  19.732   0.678  -5.645
35685SOL    HW2 9063  19.822 -10.240   5.378
35686SOL     OW 9064   4.297   5.793   0.070
35686SOL    HW1 9065  15.297  -5.327   0.037
35686SOL    HW2 9066  15.383   5.767   0.149
35687SOL     OW 9067   2.825   7.680   3.190
35687SOL    HW1 9068  -8.273   7.642  14.163
35687SOL    HW2 9069   2.798   7.639   3.272
35688SOL     OW 9070  10.808   8.978   3.320
35688SOL    HW1 9071  -0.318  20.015   3.362
35688SOL    HW2 9072  10.851   8.898   3.351
35689SOL     OW 9073   1.726   8.848  10.126
35689SOL    HW1 9074  12.803   8.828  10.040
35689SOL    HW2 9075   1.784  -2.234  10.188
35690SOL     OW 9076   4.711   5.384   8.582
35690SOL    HW1 9077   4.625  27.454  19.663
35690SOL    HW2 9078   4.719  16.517  19.604
35691SOL     OW 9079   9.490  11.311   5.379
35691SOL    HW1 9080   9.468 -21.877  16.357
35691SOL    HW2 9081   9.434 -21.734  16.393
35692SOL     OW 9082   6.382  10.387   7.683
35692SOL    HW1 9083   6.450  21.392   7.626
35692SOL    HW2 9084   6.429  10.419  -3.280
35693SOL     OW 9085  -0.160   8.671   6.036
35693SOL    HW1 9086  10.874   8.579   6.062
35693SOL    HW2 9087  -0.077  41.796   5.989
35694SOL     OW 9088   5.125   3.724   9.413
35694SOL    HW1 9089   5.194 -18.416   9.441
35694SOL    HW2 9090  -5.976  -7.371   9.365
35695SOL     OW 9091   4.884   1.492   6.646
35695SOL    HW1 9092   4.819   1.423   6.631
35695SOL    HW2 9093   4.915  12.516   6.735
35696SOL     OW 9094   4.006   3.368   4.459
35696SOL    HW1 9095   4.030   3.433   4.393
35696SOL    HW2 9096  -7.122   3.392 -17.594
35697SOL     OW 9097   9.947   4.588   0.724
35697SOL    HW1 9098  21.054   4.654  22.793
35697SOL    HW2 9099   9.920  15.606   0.634
35698SOL     OW 9100   8.124   6.847   0.049
35698SOL    HW1 9101 -13.908   6.871  22.209
35698SOL    HW2 9102   8.111  17.969   0.003
35699SOL     OW 9103   1.557   0.596   3.215
35699SOL    HW1 9104   1.575   0.676  14.205
35699SOL    HW2 9105   1.582  22.697   3.305
35700SOL     OW 9106   3.778   6.669   1.798
35700SOL    HW1 9107   3.721  17.721  -9.165
35700SOL    HW2 9108   3.862   6.706   1.824
35701SOL     OW 9109   1.511   5.395   2.454
35701SOL    HW1 9110  34.658 -16.605   2.408
35701SOL    HW2 9111   1.415   5.400 -30.666
35702SOL     OW 9112   5.197   0.512   2.922
35702SOL    HW1 9113   5.155   0.553   2.997
35702SOL    HW2 9114   5.125   0.478   2.870
35703SOL     OW 9115   5.444  10.021   6.073
35703SOL    HW1 9116  16.395  10.045   6.046
35703SOL    HW2 9117   5.447  10.039   6.167
35704SOL     OW 9118   2.579  10.803   6.301
35704SOL    HW1 9119   2.632  10.876   6.334
35704SOL    HW2 9120   2.488  10.830   6.318
35705SOL     OW 9121  10.265   2.675   3.526
35705SOL    HW1 9122 -11.769  13.791   3.489
35705SOL    HW2 9123  10.282   2.604   3.464
35706SOL     OW 9124   1.964   8.131   1.093
35706SOL    HW1 9125  -9.017 -24.983  12.208
35706SOL    HW2 9126   1.909   8.209  12.139
35707SOL     OW 9127   7.413  11.365   1.191
35707SOL    HW1 9128   7.397 -10.712   1.096
35707SOL    HW2 9129   7.359  11.293   1.223
35708SOL     OW 9130   6.507   1.636   0.996
35708SOL    HW1 9131   6.597  12.707  12.029
35708SOL    HW2 9132   6.503  23.640   0.937
35709SOL     OW 9133  -0.455   3.554   1.617
35709SOL    HW1 9134  10.578   3.529  12.748
35709SOL    HW2 9135  -0.535   3.604  12.640
35710SOL     OW 9136   8.401   8.804   7.428
35710SOL    HW1 9137   8.460   8.729  18.473
35710SOL    HW2 9138   8.453  -2.167  18.426
35711SOL     OW 9139   1.894   7.711   2.982
35711SOL    HW1 9140   1.980   7.675   3.003
35711SOL    HW2 9141  12.881   7.691  14.099
35712SOL     OW 9142   3.052   6.688   2.530
35712SOL    HW1 9143   2.977   6.701   2.588
35712SOL    HW2 9144 -18.982   6.772   2.530
35713SOL     OW 9145   0.433   6.514   3.918
35713SOL    HW1 9146  22.556   6.549 -18.239
35713SOL    HW2 9147   0.375   6.585 -18.133
35714SOL     OW 9148   8.467   3.389   1.114
35714SOL    HW1 9149   8.433   3.315   1.063
35714SOL    HW2 9150   8.562   3.381   1.107
35715SOL     OW 9151   2.535   5.748   3.533
35715SOL    HW1 9152   2.517   5.840  -7.491
35715SOL    HW2 9153   2.628  27.817  -7.487
35716SOL     OW 9154  10.526   2.087   3.895
35716SOL    HW1 9155  10.575 -19.931   3.949
35716SOL    HW2 9156  10.582   2.070   3.820
35717SOL     OW 9157  10.460   2.808  -0.417
35717SOL    HW1 9158  10.393  13.804  10.675
35717SOL    HW2 9159 -11.557  -8.197  -0.353
35718SOL     OW 9160   1.743   4.993   7.814
35718SOL    HW1 9161  23.850   4.917  18.905
35718SOL    HW2 9162   1.781   4.980   7.728
35719SOL     OW 9163   6.751  10.133   9.268
35719SOL    HW1 9164   6.754  21.253  -1.823
35719SOL    HW2 9165   6.696  10.155   9.344
35720SOL     OW 9166   7.151  12.236   5.147
35720SOL    HW1 9167   7.095  -9.807   5.216
35720SOL    HW2 9168  29.263  12.313  -5.939
35721SOL     OW 9169   6.224  15.308  10.703
35721SOL    HW1 9170   6.190 -39.806  10.671
35721SOL    HW2 9171  -4.747 -17.786  10.765
35722SOL     OW 9172   6.012   8.389   0.172
35722SOL    HW1 9173   6.102  30.493   0.152
35722SOL    HW2 9174  -5.074   8.471  11.227
35723SOL     OW 9175   0.873   7.128   6.510
35723SOL    HW1 9176   0.891  51.342   6.586
35723SOL    HW2 9177   0.931   7.053  28.599
35724SOL     OW 9178   7.634   1.159   0.636
35724SOL    HW1 9179  18.590  34.233  11.693
35724SOL    HW2 9180  29.707   1.241   0.684
35725SOL     OW 9181   2.368   3.557   5.359
35725SOL    HW1 9182   2.449   3.587   5.318
35725SOL    HW2 9183   2.318   3.637   5.377
35726SOL     OW 9184   0.043   7.492   2.696
35726SOL    HW1 9185  -0.013   7.447   2.632
35726SOL    HW2 9186   0.119   7.435  13.746
35727SOL     OW 9187  -0.080   4.791   3.949
35727SOL    HW1 9188  -0.081   4.886  -7.080
35727SOL    HW2 9189  10.906 -17.321   4.021
35728SOL     OW 9190   8.233   5.270   9.333
35728SOL    HW1 9191 -13.788   5.207   9.376
35728SOL    HW2 9192 -13.844   5.347   9.390
35729SOL     OW 9193   7.119  -0.445   1.670
35729SOL    HW1 9194   7.048  10.539   1.638
35729SOL    HW2 9195  29.260  10.533   1.710
35730SOL     OW 9196   3.775   1.094   6.859
35730SOL    HW1 9197  -7.204   1.114   6.930
35730SOL    HW2 9198   3.817   1.130   6.781
35731SOL     OW 9199   4.717   5.288   9.974
35731SOL    HW1 9200   4.667   5.321  -1.140
35731SOL    HW2 9201  26.857 -16.720   9.995
35732SOL     OW 9202   3.066   9.099   5.444
35732SOL    HW1 9203  14.147   9.053   5.370
35732SOL    HW2 9204   3.128  20.208   5.466
35733SOL     OW 9205  11.406   3.716   2.025
35733SOL    HW1 9206  11.340  14.692   1.998
35733SOL    HW2 9207   0.316   3.790  13.099
35734SOL     OW 9208   6.434   6.962   5.267
35734SOL    HW1 9209  -4.533   6.972 -16.750
35734SOL    HW2 9210   6.465   7.002   5.186
35735SOL     OW 9211   5.115   4.957   9.535
35735SOL    HW1 9212   5.080   4.911   9.459
35735SOL    HW2 9213 -28.051   4.920 -12.470
35736SOL     OW 9214   4.618   6.072   3.769
35736SOL    HW1 9215  -6.339   6.117   3.785
35736SOL    HW2 9216   4.579   6.063   3.857
35737SOL     OW 9217   2.803   3.396  -0.943
35737SOL    HW1 9218   2.887   3.439  -0.957
35737SOL    HW2 9219  24.821   3.445  32.121
35738SOL     OW 9220   6.002   6.781   3.983
35738SOL    HW1 9221  17.050  -4.353  15.016
35738SOL    HW2 9222  17.128  17.851  -7.031
35739SOL     OW 9223   4.708   7.588   8.268
35739SOL    HW1 9224   4.687   7.570  19.216
35739SOL    HW2 9225   4.760  29.747   8.266
35740SOL     OW 9226   4.171  10.292   6.388
35740SOL    HW1 9227  -6.840  10.382   6.372
35740SOL    HW2 9228 -28.915  21.282   6.312
35741SOL     OW 9229   0.868   7.716   4.899
35741SOL    HW1 9230   0.884 -14.339   4.990
35741SOL    HW2 9231  11.824 -25.360   4.878
35742SOL     OW 9232   3.870   4.504   1.631
35742SOL    HW1 9233   3.933 -17.641  -9.382
35742SOL    HW2 9234   3.792   4.454   1.605
35743SOL     OW 9235   2.943   2.483  10.830
35743SOL    HW1 9236  47.059   2.511 -11.331
35743SOL    HW2 9237   3.022   2.437  10.802
35744SOL     OW 9238   4.808   4.957   9.535
35744SOL    HW1 9239   4.840   5.014  20.644
35744SOL    HW2 9240   4.811   5.011   9.456
35745SOL     OW 9241   4.695   8.010   3.286
35745SOL    HW1 9242  48.770   7.976   3.251
35745SOL    HW2 9243  26.840   7.978  -7.816
35746SOL     OW 9244   8.993   8.427   3.653
35746SOL    HW1 9245   8.926   8.492  14.714
35746SOL    HW2 9246   9.075   8.468   3.679
35747SOL     OW 9247   4.378   6.867   8.528
35747SOL    HW1 9248   4.449   6.813   8.493
35747SOL    HW2 9249  -6.742  28.900   8.502
35748SOL     OW 9250   8.957   5.787   6.699
35748SOL    HW1 9251   9.003   5.736 -15.447
35748SOL    HW2 9252   8.952  16.768   6.775
35749SOL     OW 9253   4.614   8.825  11.015
35749SOL    HW1 9254  -6.349 -35.377  11.053
35749SOL    HW2 9255   4.639   8.917  11.010
35750SOL     OW 9256   4.398   7.799   2.734
35750SOL    HW1 9257   4.413   7.880   2.686
35750SOL    HW2 9258   4.480   7.783   2.781
35751SOL     OW 9259   6.263   9.795   0.915
35751SOL    HW1 9260   6.203  -1.176  11.925
35751SOL    HW2 9261  17.378  -1.196   0.950
35752SOL     OW 9262   1.242   9.386   5.598
35752SOL    HW1 9263   1.171   9.322  16.643
35752SOL    HW2 9264   1.203   9.467 -16.448
35753SOL     OW 9265   3.025   1.661   3.658
35753SOL    HW1 9266  14.078   1.609   3.737
35753SOL    HW2 9267   2.970  12.646   3.602
35754SOL     OW 9268  10.635   4.692   8.922
35754SOL    HW1 9269  10.618   4.730  41.955
35754SOL    HW2 9270  10.550   4.694   8.967
35755SOL     OW 9271  10.492   6.675   9.174
35755SOL    HW1 9272 -22.703   6.620   9.157
35755SOL    HW2 9273  10.472   6.719   9.257
35756SOL     OW 9274   7.240   9.280   6.271
35756SOL    HW1 9275   7.201  -1.833   6.223
35756SOL    HW2 9276   7.290  20.367  28.284
35757SOL     OW 9277   2.294   7.307   4.383
35757SOL    HW1 9278   2.255  -3.731  15.335
35757SOL    HW2 9279   2.243   7.243   4.432
35758SOL     OW 9280  -0.171   2.798   7.261
35758SOL    HW1 9281  -0.084   2.822   7.293
35758SOL    HW2 9282  10.836   2.876   7.217
35759SOL     OW 9283   3.197  11.150   2.445
35759SOL    HW1 9284  -7.866 -44.096 -30.753
35759SOL    HW2 9285   3.283  11.117   2.469
35760SOL     OW 9286   8.075   5.643   0.788
35760SOL    HW1 9287   8.152  -5.347   0.818
35760SOL    HW2 9288  -2.966   5.565 -10.196
35761SOL     OW 9289   9.511   3.959   5.822
35761SOL    HW1 9290   9.565   3.948  16.784
35761SOL    HW2 9291   9.474   4.047  16.852
35762SOL     OW 9292   9.376  -0.221   6.833
35762SOL    HW1 9293   9.434  21.798  -4.160
35762SOL    HW2 9294  20.473  -0.150  39.923
35763SOL     OW 9295   6.200   4.328   2.765
35763SOL    HW1 9296  -4.843   4.409   2.816
35763SOL    HW2 9297 -15.960   4.328   2.714
35764SOL     OW 9298   3.613   2.691   1.139
35764SOL    HW1 9299   3.580   2.766  -9.851
35764SOL    HW2 9300   3.568  -8.424   1.177
35765SOL     OW 9301   3.072  10.731   8.374
35765SOL    HW1 9302  14.073  10.706  -2.582
35765SOL    HW2 9303 -19.072  10.789   8.334
35766SOL     OW 9304   7.483   3.046   7.531
35766SOL    HW1 9305   7.438  14.106  18.653
35766SOL    HW2 9306  18.464   3.080   7.463
35767SOL     OW 9307   2.200   8.029   2.111
35767SOL    HW1 9308   2.268   7.965   2.091
35767SOL    HW2 9309  -8.898   7.984   2.172
35768SOL     OW 9310   6.123   5.336  10.061
35768SOL    HW1 9311   6.167  16.457  10.039
35768SOL    HW2 9312   6.159   5.311  10.146
35769SOL     OW 9313   6.205   5.637   9.224
35769SOL    HW1 9314   6.159   5.712   9.262
35769SOL    HW2 9315  17.324  16.668   9.276
35770SOL     OW 9316   1.285  10.658   2.236
35770SOL    HW1 9317 -20.836  -0.435  24.247
35770SOL    HW2 9318   1.221  10.661  13.347
35771SOL     OW 9319   9.565   0.218   2.347
35771SOL    HW1 9320  20.590   0.232   2.441
35771SOL    HW2 9321   9.653   0.180   2.343
35772SOL     OW 9322   0.260   8.974   9.043
35772SOL    HW1 9323   0.178  -2.023 -13.013
35772SOL    HW2 9324   0.242  19.920   9.050
35773SOL     OW 9325   2.631   3.069   9.395
35773SOL    HW1 9326   2.721   3.090 -12.709
35773SOL    HW2 9327   2.619  14.017   9.370
35774SOL     OW 9328  10.722  10.347   1.381
35774SOL    HW1 9329  -0.228  -0.706   1.411
35774SOL    HW2 9330  10.690  32.338  12.400
35775SOL     OW 9331   5.784   3.892   9.281
35775SOL    HW1 9332   5.787   3.935   9.195
35775SOL    HW2 9333   5.702  -7.118   9.320
35776SOL     OW 9334   5.739  -0.097   2.515
35776SOL    HW1 9335  16.796  -0.039  -8.451
35776SOL    HW2 9336   5.655  10.901   2.536
35777SOL     OW 9337   1.935   6.816   9.958
35777SOL    HW1 9338   1.889   6.896   9.985
35777SOL    HW2 9339   1.865   6.752   9.947
35778SOL     OW 9340   1.653   6.659   3.647
35778SOL    HW1 9341   1.627  -4.288  14.693
35778SOL    HW2 9342  -9.436   6.616   3.717
35779SOL     OW 9343   3.622  -0.174   9.701
35779SOL    HW1 9344   3.615  10.916   9.620
35779SOL    HW2 9345   3.531  10.842   9.722
35780SOL     OW 9346   5.605   1.663   9.958
35780SOL    HW1 9347  27.724   1.750   9.949
35780SOL    HW2 9348   5.558   1.650   9.875
35781SOL     OW 9349   0.646   4.866   1.531
35781SOL    HW1 9350   0.574   4.925  12.596
35781SOL    HW2 9351  11.733 -17.229   1.613
35782SOL     OW 9352   3.110   6.014   4.549
35782SOL    HW1 9353   3.160   6.087   4.587
35782SOL    HW2 9354  -7.876  28.064   4.475
35783SOL     OW 9355   9.175   6.675   8.251
35783SOL    HW1 9356  -1.871   6.751   8.309
35783SOL    HW2 9357   9.196   6.712   8.165
35784SOL     OW 9358   4.241   1.690   9.867
35784SOL    HW1 9359   4.243   1.702   9.772
35784SOL    HW2 9360   4.328   1.717   9.896
35785SOL     OW 9361   7.881   3.630   2.950
35785SOL    HW1 9362   7.933   3.604   2.874
35785SOL    HW2 9363  -3.228   3.565  -8.084
35786SOL     OW 9364   3.937   3.112   9.121
35786SOL    HW1 9365   3.956  14.062   9.093
35786SOL    HW2 9366   3.980   3.168   9.056
35787SOL     OW 9367   6.617   6.722   6.673
35787SOL    HW1 9368   6.568   6.746   6.595
35787SOL    HW2 9369   6.550  -4.336   6.739
35788SOL     OW 9370   5.425   6.119   1.432
35788SOL    HW1 9371  16.373 -15.954  12.444
35788SOL    HW2 9372  16.496   6.210  12.470
35789SOL     OW 9373   6.717   9.392   8.560
35789SOL    HW1 9374   6.681   9.398 -13.607
35789SOL    HW2 9375   6.740   9.483   8.583
35790SOL     OW 9376  10.976   0.520   7.360
35790SOL    HW1 9377  -0.078   0.534   7.453
35790SOL    HW2 9378  10.888   0.514  18.362
35791SOL     OW 9379   4.852   1.008   6.365
35791SOL    HW1 9380   4.907   0.955   6.423
35791SOL    HW2 9381   4.763   0.974   6.380
35792SOL     OW 9382   3.225   6.353   0.531
35792SOL    HW1 9383   3.150   6.310   0.573
35792SOL    HW2 9384   3.204 -26.672   0.535
35793SOL     OW 9385   1.468  -0.543   0.946
35793SOL    HW1 9386   1.421  10.577 -10.071
35793SOL    HW2 9387   1.510  -0.523   0.862
35794SOL     OW 9388   1.846   7.756   1.097
35794SOL    HW1 9389   1.925   7.734   1.145
35794SOL    HW2 9390  -9.230   7.832   1.143
35795SOL     OW 9391   1.079   9.100  10.957
35795SOL    HW1 9392 -10.001   9.168  10.903
35795SOL    HW2 9393   1.173  20.148  -0.099
35796SOL     OW 9394   2.131   4.414   4.615
35796SOL    HW1 9395  46.233   4.338  -6.418
35796SOL    HW2 9396   2.103   4.459   4.535
35797SOL     OW 9397   8.678   1.170   7.950
35797SOL    HW1 9398   8.607  -9.830  -3.038
35797SOL    HW2 9399   8.678   1.078   7.976
35798SOL     OW 9400   8.934   3.657  10.652
35798SOL    HW1 9401   9.009   3.664  10.594
35798SOL    HW2 9402  19.914   3.598  10.607
35799SOL     OW 9403   6.889   6.345   1.184
35799SOL    HW1 9404   6.950   6.348  34.229
35799SOL    HW2 9405  17.972   6.395   1.254
35800SOL     OW 9406   5.411   3.606   1.570
35800SOL    HW1 9407   5.478   3.547   1.535
35800SOL    HW2 9408  27.536   3.689   1.582
35801SOL     OW 9409   8.684   0.030   2.946
35801SOL    HW1 9410   8.708  -0.059  36.090
35801SOL    HW2 9411   8.747   0.053   2.878
35802SOL     OW 9412   0.848   7.466   4.850
35802SOL    HW1 9413  33.957  29.525   4.757
35802SOL    HW2 9414  11.922   7.555   4.852
35803SOL     OW 9415   6.343   8.040   9.405
35803SOL    HW1 9416   6.318   8.088   9.326
35803SOL    HW2 9417   6.426   8.078   9.431
35804SOL     OW 9418   1.754   9.133   5.455
35804SOL    HW1 9419   1.737  42.169   5.410
35804SOL    HW2 9420   1.667  -1.873   5.476
35805SOL     OW 9421   3.089   4.096   8.455
35805SOL    HW1 9422   3.112   4.185   8.483
35805SOL    HW2 9423   3.017   4.070   8.511
35806SOL     OW 9424   8.727   4.881   9.705
35806SOL    HW1 9425   8.663   4.819  31.817
35806SOL    HW2 9426  -2.229  60.033   9.709
35807SOL     OW 9427   4.001   1.838   6.513
35807SOL    HW1 9428   3.921  12.925   6.538
35807SOL    HW2 9429  -6.969   1.903  17.559
35808SOL     OW 9430   8.828   4.214   9.287
35808SOL    HW1 9431   8.905   4.168   9.320
35808SOL    HW2 9432   8.799   4.268  31.439
35809SOL     OW 9433   2.470   4.952   8.093
35809SOL    HW1 9434   2.377   4.945 -13.964
35809SOL    HW2 9435   2.494 -28.078   8.120
35810SOL     OW 9436   8.272   0.382   0.914
35810SOL    HW1 9437   8.219  11.384   0.844
35810SOL    HW2 9438   8.255   0.326   0.990
35811SOL     OW 9439   2.421   2.821   3.409
35811SOL    HW1 9440   2.471   2.740  14.458
35811SOL    HW2 9441   2.394   2.843   3.498
35812SOL     OW 9442  10.162   9.644   3.868
35812SOL    HW1 9443  21.154   9.709   3.921
35812SOL    HW2 9444  -0.835   9.696   3.800
35813SOL     OW 9445  11.860   0.576  10.374
35813SOL    HW1 9446 -10.296   0.546  10.325
35813SOL    HW2 9447  11.934   0.541  10.324
35814SOL     OW 9448   3.545   3.770  10.752
35814SOL    HW1 9449   3.491  25.851 -11.406
35814SOL    HW2 9450   3.495   3.819  10.817
35815SOL     OW 9451   9.363   2.608   9.931
35815SOL    HW1 9452   9.417   2.537 -12.114
35815SOL    HW2 9453   9.292   2.565   9.884
35816SOL     OW 9454   1.036   7.096   4.491
35816SOL    HW1 9455   1.043   7.074   4.398
35816SOL    HW2 9456   0.946  -3.911   4.501
35817SOL     OW 9457   9.551   8.087   7.219
35817SOL    HW1 9458  20.519  19.189   7.205
35817SOL    HW2 9459   9.515   8.002   7.192
35818SOL     OW 9460   1.025   2.007   2.316
35818SOL    HW1 9461   1.001   2.099   2.326
35818SOL    HW2 9462   1.081   1.988  13.431
35819SOL     OW 9463   1.540   6.717   4.525
35819SOL    HW1 9464   1.549  -4.263  15.639
35819SOL    HW2 9465   1.492   6.642   4.561
35820SOL     OW 9466   5.892   4.482  12.177
35820SOL    HW1 9467   5.931   4.545 -31.920
35820SOL    HW2 9468  61.024   4.436  12.229
35821SOL     OW 9469   9.574   5.796   4.633
35821SOL    HW1 9470  -1.510   5.726   4.585
35821SOL    HW2 9471  20.608   5.769   4.725
35822SOL     OW 9472   2.949   9.869   5.254
35822SOL    HW1 9473   2.930   9.887   5.162
35822SOL    HW2 9474   3.026   9.814   5.252
35823SOL     OW 9475  12.242   4.776   0.910
35823SOL    HW1 9476  12.158  15.769   0.909
35823SOL    HW2 9477 -20.899   4.866   0.885
35824SOL     OW 9478   1.907   3.811  10.301
35824SOL    HW1 9479   1.872  14.823  -0.823
35824SOL    HW2 9480   1.832   3.847  -0.692
35825SOL     OW 9481   7.201   6.759   3.544
35825SOL    HW1 9482   7.151  -4.265   3.624
35825SOL    HW2 9483   7.176   6.670   3.519
35826SOL     OW 9484   5.185   5.742   4.333
35826SOL    HW1 9485  27.346   5.763   4.377
35826SOL    HW2 9486  -5.844   5.651   4.306
35827SOL     OW 9487   6.292   4.405   5.933
35827SOL    HW1 9488   6.374   4.360   5.910
35827SOL    HW2 9489  39.399  -6.651   6.026
35828SOL     OW 9490   3.611   2.226   6.927
35828SOL    HW1 9491   3.541 -30.930   6.980
35828SOL    HW2 9492   3.667   2.272   6.991
35829SOL     OW 9493   2.874   4.406   6.433
35829SOL    HW1 9494   2.806   4.454  -4.559
35829SOL    HW2 9495   2.942   4.470   6.416
35830SOL     OW 9496   3.059   8.323   9.257
35830SOL    HW1 9497   3.115   8.294   9.186
35830SOL    HW2 9498   3.069  -2.622   9.260
35831SOL     OW 9499   3.757   3.035   1.070
35831SOL    HW1 9500  14.736   3.011   1.000
35831SOL    HW2 9501   3.700   3.048  23.226
35832SOL     OW 9502   2.839   2.918   0.812
35832SOL    HW1 9503   2.790   2.871   0.744
35832SOL    HW2 9504   2.902  13.893   0.844
35833SOL     OW 9505   7.414  -0.277   8.871
35833SOL    HW1 9506   7.491  10.817  -2.185
35833SOL    HW2 9507   7.340  10.817   8.845
35834SOL     OW 9508  10.606   1.912   0.254
35834SOL    HW1 9509  -0.352   1.895   0.301
35834SOL    HW2 9510  10.626   1.890   0.163
35835SOL     OW 9511   7.100   8.252   3.884
35835SOL    HW1 9512   7.027   8.292   3.931
35835SOL    HW2 9513   7.111  30.385  -7.234
35836SOL     OW 9514   8.358   3.643   1.829
35836SOL    HW1 9515   8.388   3.620   1.741
35836SOL    HW2 9516  19.449   3.720  -9.187
35837SOL     OW 9517   5.348   3.130   0.032
35837SOL    HW1 9518   5.308  25.167  -0.044
35837SOL    HW2 9519   5.275  -7.868   0.078
35838SOL     OW 9520  10.000   0.972   3.916
35838SOL    HW1 9521   9.949   0.896   3.944
35838SOL    HW2 9522  10.026   1.015   3.998
35839SOL     OW 9523   4.983  10.710   6.062
35839SOL    HW1 9524 -28.100  10.725  28.054
35839SOL    HW2 9525  -6.045  10.617  17.118
35840SOL     OW 9526   0.040   3.393   4.794
35840SOL    HW1 9527   0.108  14.387   4.745
35840SOL    HW2 9528  11.103  14.525  15.829
35841SOL     OW 9529   3.299   6.967   3.661
35841SOL    HW1 9530  25.329   6.967   3.743
35841SOL    HW2 9531   3.261   7.040   3.611
35842SOL     OW 9532  -1.041   3.038   6.862
35842SOL    HW1 9533  21.031  36.246   6.895
35842SOL    HW2 9534  -1.129  36.135   6.831
35843SOL     OW 9535   3.060   1.220   4.165
35843SOL    HW1 9536   3.058   1.149   4.230
35843SOL    HW2 9537   3.003   1.190   4.095
35844SOL     OW 9538   5.459   3.995   5.654
35844SOL    HW1 9539   5.436   4.086   5.637
35844SOL    HW2 9540   5.545   3.983   5.612
35845SOL     OW 9541   6.512   4.725   5.655
35845SOL    HW1 9542   6.564   4.678   5.590
35845SOL    HW2 9543   6.497   4.811   5.617
35846SOL     OW 9544   9.979   0.541   4.356
35846SOL    HW1 9545   9.970  22.575   4.440
35846SOL    HW2 9546   9.983  11.673  26.459
35847SOL     OW 9547  10.509  10.640   0.379
35847SOL    HW1 9548  10.570  10.608   0.446
35847SOL    HW2 9549  10.562  10.700   0.326
35848SOL     OW 9550   9.383  10.256   3.343
35848SOL    HW1 9551   9.394  10.282   3.435
35848SOL    HW2 9552  -1.748  10.228   3.337
35849SOL     OW 9553   6.211  10.030   6.117
35849SOL    HW1 9554   6.121  10.048   6.143
35849SOL    HW2 9555   6.260  21.149   6.139
35850SOL     OW 9556   7.040   6.912   4.097
35850SOL    HW1 9557   7.116  28.939  -6.969
35850SOL    HW2 9558   7.048  -4.119 -28.927
35851SOL     OW 9559  11.421   9.647   5.110
35851SOL    HW1 9560  11.378 -23.391   5.081
35851SOL    HW2 9561 -10.574   9.649   5.065
35852SOL     OW 9562   7.839   5.538   4.067
35852SOL    HW1 9563   7.889  -5.446   4.126
35852SOL    HW2 9564   7.838   5.452   4.110
35853SOL     OW 9565   1.818   5.116   8.299
35853SOL    HW1 9566   1.764   5.121   8.220
35853SOL    HW2 9567   1.887   5.181  19.324
35854SOL     OW 9568   1.737  10.066   3.203
35854SOL    HW1 9569   1.829  10.040  -7.833
35854SOL    HW2 9570   1.734  10.151   3.246
35855SOL     OW 9571   7.051   7.776   5.180
35855SOL    HW1 9572 -48.238   7.805   5.171
35855SOL    HW2 9573  -3.944   7.818   5.106
35856SOL     OW 9574   0.184   6.545   6.280
35856SOL    HW1 9575   0.182   6.451 -15.780
35856SOL    HW2 9576   0.240  -4.487  -4.837
35857SOL     OW 9577  10.736   0.179   2.964
35857SOL    HW1 9578  -0.278  11.132   2.997
35857SOL    HW2 9579  21.766   0.233   3.043
35858SOL     OW 9580   3.762   9.754   3.448
35858SOL    HW1 9581   3.797   9.682   3.501
35858SOL    HW2 9582   3.667   9.741   3.450
35859SOL     OW 9583   3.443   2.523   6.265
35859SOL    HW1 9584 -18.574  13.535   6.197
35859SOL    HW2 9585   3.498   2.552  -4.702
35860SOL     OW 9586   7.336  11.626   7.293
35860SOL    HW1 9587   7.405  11.668  29.423
35860SOL    HW2 9588   7.277 -10.382   7.269
35861SOL     OW 9589   3.129   0.657   4.836
35861SOL    HW1 9590  -7.992   0.634  15.920
35861SOL    HW2 9591   3.198   0.633   4.898
35862SOL     OW 9592   6.024   1.958   3.778
35862SOL    HW1 9593   5.969   1.969 -18.223
35862SOL    HW2 9594   6.113   1.970   3.810
35863SOL     OW 9595   3.781   2.334   1.720
35863SOL    HW1 9596   3.819   2.403 -20.305
35863SOL    HW2 9597   3.821   2.253   1.751
35864SOL     OW 9598   2.956   0.544   5.342
35864SOL    HW1 9599  -8.039  11.590   5.426
35864SOL    HW2 9600  -8.025   0.493   5.287
35865SOL     OW 9601   2.511   4.348   3.699
35865SOL    HW1 9602  24.596  -6.771  14.791
35865SOL    HW2 9603   2.596   4.391   3.709
35866SOL     OW 9604   2.865   1.126   0.431
35866SOL    HW1 9605  47.063  12.102   0.491
35866SOL    HW2 9606  13.811   1.123   0.451
35867SOL     OW 9607   3.849   8.244  10.110
35867SOL    HW1 9608  14.885   8.149  10.118
35867SOL    HW2 9609  14.838   8.276  21.224
35868SOL     OW 9610   8.798   5.041   9.499
35868SOL    HW1 9611  -2.280   5.128   9.492
35868SOL    HW2 9612 -13.305   5.011  -1.453
35869SOL     OW 9613   8.701   4.983   4.541
35869SOL    HW1 9614  19.758   5.037  -6.421
35869SOL    HW2 9615   8.720  15.933  15.609
35870SOL     OW 9616   9.296   0.441   5.823
35870SOL    HW1 9617  20.311   0.413   5.911
35870SOL    HW2 9618   9.362   0.378   5.795
35871SOL     OW 9619   2.864   2.313   5.227
35871SOL    HW1 9620  -8.143  -8.651   5.276
35871SOL    HW2 9621   2.920   2.309 -39.008
35872SOL     OW 9622   5.445   1.396   6.323
35872SOL    HW1 9623   5.537  12.429   6.349
35872SOL    HW2 9624   5.418   1.305   6.308
35873SOL     OW 9625   2.708   6.781   2.268
35873SOL    HW1 9626  -8.340   6.743  -8.859
35873SOL    HW2 9627  -8.343  39.825   2.327
35874SOL     OW 9628  10.206   6.209   7.307
35874SOL    HW1 9629  10.134   6.224   7.368
35874SOL    HW2 9630  10.167   6.161   7.234
35875SOL     OW 9631  -1.413   1.409  10.091
35875SOL    HW1 9632  -1.397  34.442  10.130
35875SOL    HW2 9633  31.611   1.421  10.100
35876SOL     OW 9634   0.578   2.105   2.599
35876SOL    HW1 9635  11.656  -8.925   2.512
35876SOL    HW2 9636   0.567   2.011   2.611
35877SOL     OW 9637   3.401   6.991   1.544
35877SOL    HW1 9638   3.344  17.956   1.563
35877SOL    HW2 9639 -18.662  29.065  -9.589
35878SOL     OW 9640   3.195   0.709   6.825
35878SOL    HW1 9641   3.291   0.709 -37.334
35878SOL    HW2 9642   3.171  11.840  -4.225
35879SOL     OW 9643   6.571   7.311  10.091
35879SOL    HW1 9644   6.505   7.348  10.150
35879SOL    HW2 9645   6.543   7.337  10.003
35880SOL     OW 9646   2.503   2.641   9.917
35880SOL    HW1 9647  24.676   2.624   9.910
35880SOL    HW2 9648  -8.563   2.596  -1.042
35881SOL     OW 9649   5.899   9.560   0.222
35881SOL    HW1 9650   5.830   9.627  11.264
35881SOL    HW2 9651  27.931   9.478   0.206
35882SOL     OW 9652   3.040   1.438   6.516
35882SOL    HW1 9653   2.947   1.432  28.616
35882SOL    HW2 9654  14.104   1.351  -4.552
35883SOL     OW 9655   7.750   3.275  11.587
35883SOL    HW1 9656   7.681   3.211   0.566
35883SOL    HW2 9657  18.748  -7.680  11.599
35884SOL     OW 9658   6.943   8.917   0.417
35884SOL    HW1 9659   6.978   8.986   0.472
35884SOL    HW2 9660   7.017   8.858   0.403
35885SOL     OW 9661   2.261   9.948  10.547
35885SOL    HW1 9662   2.206  -1.166  10.572
35885SOL    HW2 9663 -19.871 -12.083  -0.556
35886SOL     OW 9664   3.199  11.496   6.382
35886SOL    HW1 9665   3.169 -21.604  -4.568
35886SOL    HW2 9666  14.189  11.557   6.327
35887SOL     OW 9667   4.041   6.778   9.947
35887SOL    HW1 9668   3.982   6.783  10.023
35887SOL    HW2 9669   4.078   6.865 -12.139
35888SOL     OW 9670  11.024   3.557   3.930
35888SOL    HW1 9671  11.064   3.629   3.979
35888SOL    HW2 9672  10.991   3.598  -7.190
35889SOL     OW 9673   0.220   3.675   7.320
35889SOL    HW1 9674   0.209   3.582   7.303
35889SOL    HW2 9675   0.287 -18.399   7.388
35890SOL     OW 9676   6.719   5.572   1.299
35890SOL    HW1 9677  17.729   5.619  34.495
35890SOL    HW2 9678   6.761   5.639  23.324
35891SOL     OW 9679   0.103   1.452   7.028
35891SOL    HW1 9680   0.170  -9.610  51.122
35891SOL    HW2 9681  11.143  23.626   7.030
35892SOL     OW 9682   5.053   5.905   9.319
35892SOL    HW1 9683   5.074  16.924 -12.852
35892SOL    HW2 9684   4.966   5.867   9.332
35893SOL     OW 9685   9.101   4.158   7.918
35893SOL    HW1 9686  31.250   4.216 -25.173
35893SOL    HW2 9687  20.141   4.163   7.822
35894SOL     OW 9688   9.926  12.199  10.300
35894SOL    HW1 9689  -1.207 -20.918  10.280
35894SOL    HW2 9690   9.949  12.106  -0.738
35895SOL     OW 9691  10.189   0.654  11.463
35895SOL    HW1 9692  10.262   0.629  11.406
35895SOL    HW2 9693  10.162   0.572 -10.575
35896SOL     OW 9694   0.644   6.673   4.644
35896SOL    HW1 9695   0.694   6.735   4.696
35896SOL    HW2 9696  11.714   6.686  -6.486
35897SOL     OW 9697   6.012  11.421   2.315
35897SOL    HW1 9698  16.995  11.403   2.240
35897SOL    HW2 9699  -4.947 -10.625   2.276
35898SOL     OW 9700   6.717   4.853  13.121
35898SOL    HW1 9701   6.749   4.919  -8.896
35898SOL    HW2 9702   6.790   4.792  -8.968
35899SOL     OW 9703   2.883   4.397   9.398
35899SOL    HW1 9704   2.955   4.345   9.435
35899SOL    HW2 9705   2.917   4.486   9.395
35900SOL     OW 9706   5.429   9.206   9.293
35900SOL    HW1 9707   5.389  -1.863   9.376
35900SOL    HW2 9708   5.368   9.176   9.226
35901SOL     OW 9709   4.633   9.913   3.118
35901SOL    HW1 9710   4.644   9.986   3.057
35901SOL    HW2 9711   4.673   9.838   3.073
35902SOL     OW 9712   6.918   0.536   2.112
35902SOL    HW1 9713   6.928   0.604   2.178
35902SOL    HW2 9714   6.860   0.574   2.046
35903SOL     OW 9715   5.506   3.761   6.099
35903SOL    HW1 9716  -5.599   3.828   6.118
35903SOL    HW2 9717   5.507 -18.326   6.004
35904SOL     OW 9718   3.856   5.945   1.848
35904SOL    HW1 9719   3.833   5.875  -9.253
35904SOL    HW2 9720   3.951   5.937   1.858
35905SOL     OW 9721   1.897   6.503  10.920
35905SOL    HW1 9722   1.967  39.654  10.863
35905SOL    HW2 9723  12.938  39.526  10.907
35906SOL     OW 9724   1.002   7.970   9.905
35906SOL    HW1 9725 -21.070 -25.207  -1.210
35906SOL    HW2 9726  22.989   7.965   9.931
35907SOL     OW 9727   4.445  10.882   2.893
35907SOL    HW1 9728  15.407  10.914   2.939
35907SOL    HW2 9729   4.432  10.910   2.802
35908SOL     OW 9730   2.542  10.638   1.146
35908SOL    HW1 9731   2.584  10.667   1.227
35908SOL    HW2 9732   2.540  10.542   1.153
35909SOL     OW 9733   4.575   6.648   8.718
35909SOL    HW1 9734  15.594   6.672   8.628
35909SOL    HW2 9735   4.528   6.711   8.771
35910SOL     OW 9736   2.508   8.345   4.871
35910SOL    HW1 9737   2.473   8.427   4.906
35910SOL    HW2 9738 -41.598   8.310   4.943
35911SOL     OW 9739   8.343   4.630   3.471
35911SOL    HW1 9740   8.408   4.574   3.428
35911SOL    HW2 9741   8.394   4.679  -7.504
35912SOL     OW 9742   9.394  11.619   2.303
35912SOL    HW1 9743  -1.659   0.563   2.397
35912SOL    HW2 9744   9.305  11.632   2.269
35913SOL     OW 9745   2.771   2.148   0.466
35913SOL    HW1 9746   2.687   2.173   0.429
35913SOL    HW2 9747   2.770  13.091   0.465
35914SOL     OW 9748  10.484   8.058   9.554
35914SOL    HW1 9749  10.540   8.135   9.558
35914SOL    HW2 9750  10.526   7.995   9.612
35915SOL     OW 9751   3.778   2.794   4.509
35915SOL    HW1 9752  14.760   2.848   4.564
35915SOL    HW2 9753   3.733  13.827   4.425
35916SOL     OW 9754   5.048   8.292  11.498
35916SOL    HW1 9755  15.998   8.282  11.468
35916SOL    HW2 9756  -5.943  -2.816   0.413
35917SOL     OW 9757   4.981   2.765   7.033
35917SOL    HW1 9758  16.105   2.727   7.057
35917SOL    HW2 9759   4.920   2.691   7.037
35918SOL     OW 9760   0.219   0.636  10.679
35918SOL    HW1 9761   0.276   0.559 -11.397
35918SOL    HW2 9762   0.269  11.741  21.670
35919SOL     OW 9763  -0.405   4.246   8.944
35919SOL    HW1 9764  -0.479   4.206  19.938
35919SOL    HW2 9765  10.600  15.308   9.030
35920SOL     OW 9766  12.093   6.807   4.563
35920SOL    HW1 9767 -10.057   6.865  15.632
35920SOL    HW2 9768  12.063  -4.266   4.478
35921SOL     OW 9769   1.633  10.748   4.868
35921SOL    HW1 9770   1.611  32.875 -28.171
35921SOL    HW2 9771   1.591 -11.417  -6.161
35922SOL     OW 9772   7.701   2.936   2.234
35922SOL    HW1 9773  18.670   2.934 -19.781
35922SOL    HW2 9774   7.692   3.022   2.192
35923SOL     OW 9775   5.304   3.207   6.114
35923SOL    HW1 9776   5.282   3.297  17.131
35923SOL    HW2 9777  16.290   3.153  -4.983
35924SOL     OW 9778   7.604  12.133   5.402
35924SOL    HW1 9779  -3.398   1.182  16.433
35924SOL    HW2 9780  -3.470   1.091   5.491
35925SOL     OW 9781   5.004   0.869   7.399
35925SOL    HW1 9782   5.088   0.871  18.392
35925SOL    HW2 9783   5.016   0.804   7.468
35926SOL     OW 9784   6.174   8.618   3.316
35926SOL    HW1 9785  -4.800   8.551   3.335
35926SOL    HW2 9786  17.256   8.700  25.420
35927SOL     OW 9787   6.303   0.739   9.229
35927SOL    HW1 9788  39.361   0.787   9.173
35927SOL    HW2 9789   6.383   0.732   9.178
35928SOL     OW 9790   6.577   3.230   1.790
35928SOL    HW1 9791   6.630   3.179   1.728
35928SOL    HW2 9792   6.507   3.268   1.736
35929SOL     OW 9793   6.768   6.550   6.491
35929SOL    HW1 9794  39.863  17.661   6.549
35929SOL    HW2 9795  28.771  17.578   6.435
35930SOL     OW 9796   5.018  -0.484   2.804
35930SOL    HW1 9797  -5.969  -0.561  13.820
35930SOL    HW2 9798   4.995  10.596   2.721
35931SOL     OW 9799   9.426   2.455   2.204
35931SOL    HW1 9800  20.553  -8.564  13.211
35931SOL    HW2 9801  20.438   2.378   2.153
35932SOL     OW 9802   1.129   4.096   4.128
35932SOL    HW1 9803   1.044   4.073 -28.954
35932SOL    HW2 9804   1.147  37.302  -6.875
35933SOL     OW 9805   5.137   8.980   9.083
35933SOL    HW1 9806  -5.902   8.977   9.179
35933SOL    HW2 9807  -5.861   8.898   9.056
35934SOL     OW 9808  10.579   8.940  12.540
35934SOL    HW1 9809  -0.368 -13.159   1.491
35934SOL    HW2 9810  10.575  -2.004 -20.570
35935SOL     OW 9811   6.262   7.642   7.596
35935SOL    HW1 9812  17.211   7.616  -3.430
35935SOL    HW2 9813  39.376   7.725   7.549
35936SOL     OW 9814   1.065   9.815   7.168
35936SOL    HW1 9815  -9.972   9.907   7.194
35936SOL    HW2 9816   1.135   9.774   7.218
35937SOL     OW 9817  10.529   9.926   2.398
35937SOL    HW1 9818  -0.429   9.936   2.447
35937SOL    HW2 9819  10.535  -1.049   2.328
35938SOL     OW 9820   6.008   3.766   2.450
35938SOL    HW1 9821   6.039   3.852   2.478
35938SOL    HW2 9822   5.991  -7.320   2.532
35939SOL     OW 9823   7.611   8.927   3.871
35939SOL    HW1 9824  -3.438   9.021   3.859
35939SOL    HW2 9825   7.562   8.907  14.990
35940SOL     OW 9826   2.718   0.957   3.825
35940SOL    HW1 9827   2.694  12.051   3.750
35940SOL    HW2 9828   2.800   0.915  14.838
35941SOL     OW 9829   4.639   7.952   2.360
35941SOL    HW1 9830   4.672  -3.030   2.291
35941SOL    HW2 9831   4.667  -3.175   2.334
35942SOL     OW 9832   5.824   2.184   3.498
35942SOL    HW1 9833   5.865   2.270   3.493
35942SOL    HW2 9834   5.749   2.196   3.557
35943SOL     OW 9835   3.850  10.165   9.170
35943SOL    HW1 9836   3.915  -0.920  -1.923
35943SOL    HW2 9837   3.900  -0.843   9.246
35944SOL     OW 9838   0.475   5.855   0.360
35944SOL    HW1 9839   0.439   5.778  11.355
35944SOL    HW2 9840   0.457   5.840  33.571
35945SOL     OW 9841   3.206  10.932   5.592
35945SOL    HW1 9842  14.273  10.931   5.500
35945SOL    HW2 9843   3.143  11.004   5.597
35946SOL     OW 9844   7.517   3.369  11.328
35946SOL    HW1 9845   7.544 -18.631   0.240
35946SOL    HW2 9846   7.556   3.380  11.415
35947SOL     OW 9847  11.295   9.013   1.944
35947SOL    HW1 9848  11.270   8.924   1.971
35947SOL    HW2 9849   0.259   9.062   2.026
35948SOL     OW 9850   8.044   5.882   2.215
35948SOL    HW1 9851   7.957   5.843 -19.873
35948SOL    HW2 9852   8.028   5.969   2.251
35949SOL     OW 9853   4.061   9.855   3.918
35949SOL    HW1 9854   4.124   9.927   3.924
35949SOL    HW2 9855   3.980   9.897   3.889
35950SOL     OW 9856   8.384   9.400   2.752
35950SOL    HW1 9857   8.421   9.451  35.942
35950SOL    HW2 9858   8.437   9.321   2.748
35951SOL     OW 9859   5.721   2.389   2.985
35951SOL    HW1 9860  16.760   2.403 -30.039
35951SOL    HW2 9861  16.812  -8.730   2.973
35952SOL     OW 9862   6.515   1.739  -0.612
35952SOL    HW1 9863 -15.579   1.644  10.421
35952SOL    HW2 9864 -15.631   1.777  -0.670
35953SOL     OW 9865   8.361   9.699   3.280
35953SOL    HW1 9866  -2.718   9.759   3.216
35953SOL    HW2 9867   8.422   9.754   3.329
35954SOL     OW 9868   7.174   5.195   1.188
35954SOL    HW1 9869   7.120   5.150   1.253
35954SOL    HW2 9870  -3.803  16.168  23.238
35955SOL     OW 9871   0.520  11.235   2.419
35955SOL    HW1 9872 -10.609 -10.842   2.385
35955SOL    HW2 9873  11.612  11.202   2.347
35956SOL     OW 9874  10.476   2.273   9.919
35956SOL    HW1 9875  10.492   2.326   9.841
35956SOL    HW2 9876  10.563   2.245   9.947
35957SOL     OW 9877   9.402  10.885  11.368
35957SOL    HW1 9878   9.339  10.842  11.310
35957SOL    HW2 9879  20.460  10.969   0.287
35958SOL     OW 9880   3.627   5.720   7.104
35958SOL    HW1 9881   3.554   5.669  40.258
35958SOL    HW2 9882  14.745   5.676   7.138
35959SOL     OW 9883   5.687   9.414   9.040
35959SOL    HW1 9884  16.692 -12.741   9.088
35959SOL    HW2 9885  16.701 -12.590  20.134
35960SOL     OW 9886   0.004  11.006   2.391
35960SOL    HW1 9887   0.020  11.095   2.360
35960SOL    HW2 9888   0.088  10.961   2.380
35961SOL     OW 9889   4.107   4.353   1.608
35961SOL    HW1 9890  15.235  15.430  -9.434
35961SOL    HW2 9891   4.103  15.345   1.690
35962SOL     OW 9892   4.547   4.382   4.708
35962SOL    HW1 9893  15.624   4.383   4.620
35962SOL    HW2 9894 -39.658   4.465   4.715
35963SOL     OW 9895   1.406  11.457   4.321
35963SOL    HW1 9896 -20.691   0.329   4.290
35963SOL    HW2 9897   1.433  11.504  -6.797
35964SOL     OW 9898   9.109   8.428   2.075
35964SOL    HW1 9899   9.179  19.512   2.123
35964SOL    HW2 9900   9.128  30.526   1.983
35965SOL     OW 9901   9.358   3.221   1.163
35965SOL    HW1 9902   9.417   3.237   1.088
35965SOL    HW2 9903   9.315   3.139   1.142
35966SOL     OW 9904   6.692   0.365   3.240
35966SOL    HW1 9905  50.754   0.362   3.243
35966SOL    HW2 9906   6.719   0.274 -18.826
35967SOL     OW 9907  -0.140   4.895   9.159
35967SOL    HW1 9908  10.896   4.898  42.373
35967SOL    HW2 9909  -0.228  26.947   9.132
35968SOL     OW 9910   9.607   7.802  10.427
35968SOL    HW1 9911  20.696   7.835  10.352
35968SOL    HW2 9912   9.663   7.733  10.464
35969SOL     OW 9913   5.206   3.066   0.671
35969SOL    HW1 9914   5.284 -18.972   0.634
35969SOL    HW2 9915   5.227 -19.106  22.756
35970SOL     OW 9916   1.108   2.063   0.869
35970SOL    HW1 9917   1.075   2.001   0.804
35970SOL    HW2 9918  23.113   2.079   0.927
35971SOL     OW 9919   8.283   1.289   9.690
35971SOL    HW1 9920   8.376   1.312   9.686
35971SOL    HW2 9921   8.238   1.373   9.699
35972SOL     OW 9922  10.774  10.508   3.966
35972SOL    HW1 9923  -0.337  10.493   4.029
35972SOL    HW2 9924  10.730  10.520   3.882
35973SOL     OW 9925   7.136   3.202   8.760
35973SOL    HW1 9926   7.071  -7.803 -13.380
35973SOL    HW2 9927   7.110   3.238  -2.194
35974SOL     OW 9928  11.340   6.707   0.255
35974SOL    HW1 9929  11.411   6.738   0.197
35974SOL    HW2 9930   0.232   6.773   0.244
35975SOL     OW 9931   1.354  -0.011   4.045
35975SOL    HW1 9932  -9.705  11.086  -6.920
35975SOL    HW2 9933   1.394  10.952   4.084
35976SOL     OW 9934   6.441  -0.260   9.092
35976SOL    HW1 9935   6.508  43.830  -1.949
35976SOL    HW2 9936  -4.619  -0.246  20.039
35977SOL     OW 9937   9.630   4.241   3.250
35977SOL    HW1 9938   9.620  26.414   3.268
35977SOL    HW2 9939  -1.473   4.199   3.308
35978SOL     OW 9940   5.896   3.103   5.723
35978SOL    HW1 9941   5.872  14.182   5.807
35978SOL    HW2 9942   5.899  -7.863   5.662
35979SOL     OW 9943   3.362   4.041   2.141
35979SOL    HW1 9944   3.328   3.954   2.118
35979SOL    HW2 9945  -7.752  -6.940  24.213
35980SOL     OW 9946   0.595   1.499   6.887
35980SOL    HW1 9947  11.711   1.508   6.830
35980SOL    HW2 9948   0.583   1.586   6.924
35981SOL     OW 9949   7.733   5.732   7.993
35981SOL    HW1 9950 -14.440   5.720   8.006
35981SOL    HW2 9951   7.761   5.782   8.070
35982SOL     OW 9952   7.244   7.475   7.433
35982SOL    HW1 9953   7.277   7.458  18.561
35982SOL    HW2 9954  -3.838   7.561   7.439
35983SOL     OW 9955   2.065   5.089   4.967
35983SOL    HW1 9956  -8.959   5.116  27.137
35983SOL    HW2 9957   2.103  -6.038  27.041
35984SOL     OW 9958   6.616   1.133  10.423
35984SOL    HW1 9959  17.704   1.193  -0.673
35984SOL    HW2 9960   6.535   1.179  -0.597
35985SOL     OW 9961   5.234   5.041   1.717
35985SOL    HW1 9962 -16.885   5.117  12.798
35985SOL    HW2 9963   5.295   5.077   1.652
35986SOL     OW 9964  10.759   0.367   3.153
35986SOL    HW1 9965  10.729   0.444   3.105
35986SOL    HW2 9966  10.823  22.481   3.216
35987SOL     OW 9967   1.717   3.492  11.373
35987SOL    HW1 9968   1.813   3.486 -10.711
35987SOL    HW2 9969   1.697   3.577  11.333
35988SOL     OW 9970   1.393   1.438   6.234
35988SOL    HW1 9971   1.315  34.606   6.259
35988SOL    HW2 9972   1.432  23.491  -4.722
35989SOL     OW 9973  10.922   5.270   4.585
35989SOL    HW1 9974  10.841  -5.785  -6.407
35989SOL    HW2 9975 -11.181   5.262  -6.547
35990SOL     OW 9976   2.079  10.337   9.499
35990SOL    HW1 9977   2.163  10.292   9.510
35990SOL    HW2 9978   2.093  10.397   9.427
35991SOL     OW 9979   2.775  12.111   0.843
35991SOL    HW1 9980 -19.282  12.020   0.825
35991SOL    HW2 9981   2.805  -9.953 -10.107
35992SOL     OW 9982   7.885   2.420   1.406
35992SOL    HW1 9983   7.856   2.330  -9.647
35992SOL    HW2 9984   7.820   2.474   1.361
35993SOL     OW 9985   4.562   2.811  10.048
35993SOL    HW1 9986   4.541   2.808   9.955
35993SOL    HW2 9987  -6.510   2.728  -0.957
35994SOL     OW 9988  10.417   5.840   8.279
35994SOL    HW1 9989  21.458  16.788   8.305
35994SOL    HW2 9990  10.508  16.901   8.259
35995SOL     OW 9991  -1.027   2.545   3.580
35995SOL    HW1 9992  21.007  46.674   3.501
35995SOL    HW2 9993  -0.953   2.596   3.548
35996SOL     OW 9994   4.031   0.784   0.644
35996SOL    HW1 9995  -7.085   0.804 -10.449
35996SOL    HW2 9996   3.994   0.753  11.767
35997SOL     OW 9997   0.999  10.180   1.849
35997SOL    HW1 9998   1.019  10.142   1.935
35997SOL    HW2 9999   0.980  -0.934  12.833
35998SOL     OW10000  10.847   6.655  10.880
35998SOL    HW110001  10.918   6.712  10.909
35998SOL    HW210002 -11.190   6.588 -11.253
35999SOL     OW10003   9.725   2.693  12.198
35999SOL    HW110004   9.667  24.849   1.157
35999SOL    HW210005  -1.239  13.761  -9.829
36000SOL     OW10006   0.479   8.412   6.715
36000SOL    HW110007   0.467   8.318   6.699
36000SOL    HW210008   0.438  30.534   6.640
36001SOL     OW10009   4.404   4.524   3.659
36001SOL    HW110010  -6.646   4.598   3.600
36001SOL    HW210011  26.419  -6.580  14.669
36002SOL     OW10012   0.558   2.837   9.334
36002SOL    HW110013  11.693   2.843   9.331
36002SOL    HW210014   0.536   2.767   9.273
36003SOL     OW10015   1.058   6.724   0.459
36003SOL    HW110016   1.059  -4.376  11.573
36003SOL    HW210017   1.028   6.671  22.465
36004SOL     OW10018   8.402   5.996   0.862
36004SOL    HW110019   8.497   5.985  11.902
36004SOL    HW210020   8.385   6.063   0.927
36005SOL     OW10021   8.447  12.255   7.476
36005SOL    HW110022   8.524  12.203  -3.545
36005SOL    HW210023   8.419  -9.851   7.388
36006SOL     OW10024  10.779   1.851   0.664
36006SOL    HW110025  -0.249  12.915  11.611
36006SOL    HW210026  -0.320  12.957 -10.341
36007SOL     OW10027   3.544   8.620   2.475
36007SOL    HW110028  25.544   8.621   2.527
36007SOL    HW210029   3.515   8.646   2.387
36008SOL     OW10030   8.329  10.888   6.122
36008SOL    HW110031   8.402  10.921   6.069
36008SOL    HW210032  30.424  10.794   6.130
36009SOL     OW10033   4.407   4.840   1.925
36009SOL    HW110034   4.467  15.916  -9.180
36009SOL    HW210035   4.393  15.951   1.987
36010SOL     OW10036   8.430   4.200   0.722
36010SOL    HW110037   8.375  48.299  22.852
36010SOL    HW210038   8.410  26.366   0.757
36011SOL     OW10039   4.020   7.791   6.790
36011SOL    HW110040  -7.073  -3.262   6.869
36011SOL    HW210041   4.044   7.883   6.793
36012SOL     OW10042  10.328  10.301   9.595
36012SOL    HW110043  21.374  10.263  20.547
36012SOL    HW210044  10.235  10.322  20.645
36013SOL     OW10045  11.278   8.762   2.324
36013SOL    HW110046  22.278  -2.190   2.321
36013SOL    HW210047 -10.707   8.779   2.311
36014SOL     OW10048   8.160   7.042   3.085
36014SOL    HW110049  -2.879   6.954   3.122
36014SOL    HW210050 -14.010   7.071   3.095
36015SOL     OW10051   6.359  10.085   1.327
36015SOL    HW110052   6.434  10.127   1.369
36015SOL    HW210053   6.382  10.082   1.234
36016SOL     OW10054   2.660   7.389   3.288
36016SOL    HW110055   2.566  -3.636  14.337
36016SOL    HW210056  -8.345  18.440   3.377
36017SOL     OW10057   2.167  -0.923   0.411
36017SOL    HW110058   2.172  10.195  11.506
36017SOL    HW210059   2.170  32.230  22.401
36018SOL     OW10060   3.267   8.800  10.839
36018SOL    HW110061   3.348   8.825  -0.246
36018SOL    HW210062   3.235  19.763  -0.249
36019SOL     OW10063  10.813   7.266  10.375
36019SOL    HW110064  -0.219   7.176  10.407
36019SOL    HW210065  -0.164   7.316  10.427
36020SOL     OW10066   9.166   8.259   9.704
36020SOL    HW110067   9.255   8.273  -1.303
36020SOL    HW210068   9.164   8.307 -12.458
36021SOL     OW10069   6.989   1.891   1.527
36021SOL    HW110070  -4.008  -9.065   1.544
36021SOL    HW210071  -4.065   1.853  12.653
36022SOL     OW10072   7.267   2.082   2.242
36022SOL    HW110073   7.352 -20.006  -8.755
36022SOL    HW210074   7.287   2.109  -8.887
36023SOL     OW10075   6.810   6.691   3.931
36023SOL    HW110076  -4.178   6.610   3.933
36023SOL    HW210077  17.899  17.792 -18.094
36024SOL     OW10078   9.590  11.242  -1.493
36024SOL    HW110079   9.579   0.165   9.634
36024SOL    HW210080  -1.371 -21.823  31.631
36025SOL     OW10081   2.919   2.631   7.273
36025SOL    HW110082   2.967  -8.382   7.194
36025SOL    HW210083   2.911  13.576   7.265
36026SOL     OW10084   7.654  11.200   7.181
36026SOL    HW110085  18.617  11.230   7.132
36026SOL    HW210086   7.725   0.165   7.117
36027SOL     OW10087   8.920   7.455   1.020
36027SOL    HW110088   8.871   7.437  11.980
36027SOL    HW210089   8.910   7.549   1.035
36028SOL     OW10090   7.102   7.177   4.702
36028SOL    HW110091   7.030  18.154   4.700
36028SOL    HW210092  40.180   7.262   4.684
36029SOL     OW10093   7.390   0.830   2.086
36029SOL    HW110094   7.451   0.758   2.104
36029SOL    HW210095  29.433  11.892   2.172
36030SOL     OW10096   9.576   5.994   4.936
36030SOL    HW110097   9.497 -16.113   4.982
36030SOL    HW210098   9.618  16.952   4.909
36031SOL     OW10099   1.061   2.267   3.391
36031SOL    HW110100   0.967   2.266   3.406
36031SOL    HW210101  12.139 -19.821  14.518
36032SOL     OW10102   9.768   3.288   0.630
36032SOL    HW110103   9.813   3.332   0.559
36032SOL    HW210104   9.831   3.225   0.665
36033SOL     OW10105   0.828   6.579   7.197
36033SOL    HW110106   0.738   6.598   7.225
36033SOL    HW210107   0.832  28.562   7.193
36034SOL     OW10108   7.418   8.187   2.402
36034SOL    HW110109  18.398   8.259   2.425
36034SOL    HW210110  -3.678   8.110   2.399
36035SOL     OW10111   9.985   7.100   7.889
36035SOL    HW110112  10.048   7.049   7.838
36035SOL    HW210113 -23.080   7.160   7.940
36036SOL     OW10114   4.737   3.084   9.106
36036SOL    HW110115   4.690   3.165   9.083
36036SOL    HW210116  37.799   3.014   9.077
36037SOL     OW10117   7.400  -0.258   4.806
36037SOL    HW110118  18.416  -0.248   4.714
36037SOL    HW210119  29.397  10.794  15.893
36038SOL     OW10120  10.388   3.824   6.007
36038SOL    HW110121  10.474 -18.297   6.016
36038SOL    HW210122  10.395   3.905   6.057
36039SOL     OW10123   8.095   4.989   4.867
36039SOL    HW110124   8.128   4.905 -17.180
36039SOL    HW210125   8.150  -5.985  -6.129
36040SOL     OW10126   5.798   7.170   5.533
36040SOL    HW110127 -27.411  -3.902   5.528
36040SOL    HW210128   5.834   7.156  -5.593
36041SOL     OW10129   8.513  11.257   4.251
36041SOL    HW110130  -2.592   0.148  -6.781
36041SOL    HW210131   8.518   0.255  -6.700
36042SOL     OW10132   7.936   7.818   7.991
36042SOL    HW110133   8.018  -3.225  19.080
36042SOL    HW210134  -3.133   7.727  19.027
36043SOL     OW10135   7.998  10.006  10.126
36043SOL    HW110136  19.123   9.969  10.103
36043SOL    HW210137  19.005   9.949  -0.844
36044SOL     OW10138   2.713  10.478   9.236
36044SOL    HW110139   2.743 -11.681  -1.759
36044SOL    HW210140  35.819  10.541   9.307
36045SOL     OW10141  10.774   2.590   6.340
36045SOL    HW110142  10.853   2.536   6.343
36045SOL    HW210143  10.804   2.677  -4.674
36046SOL     OW10144   9.823   8.786   3.772
36046SOL    HW110145   9.772   8.866   3.786
36046SOL    HW210146   9.907  19.857   3.739
36047SOL     OW10147   5.664   3.611   9.152
36047SOL    HW110148   5.683  -7.341   9.117
36047SOL    HW210149   5.593 -18.453   9.215
36048SOL     OW10150   8.327   7.050  10.691
36048SOL    HW110151  19.451  -3.954  10.718
36048SOL    HW210152   8.263 -14.965  10.722
36049SOL     OW10153   3.416   1.199   4.474
36049SOL    HW110154   3.476   1.166   4.407
36049SOL    HW210155 -29.760   1.259  15.467
36050SOL     OW10156   9.363   7.742   7.643
36050SOL    HW110157   9.424   7.779   7.579
36050SOL    HW210158   9.342   7.655  -3.432
36051SOL     OW10159   2.493   0.293   4.201
36051SOL    HW110160   2.528   0.352  26.214
36051SOL    HW210161 -30.557   0.227   4.214
36052SOL     OW10162   0.389  -1.435   0.424
36052SOL    HW110163   0.463  42.755   0.475
36052SOL    HW210164   0.332 -12.518  11.527
36053SOL     OW10165  11.994   9.864   4.091
36053SOL    HW110166 -10.123  20.906   4.179
36053SOL    HW210167  12.081   9.825   4.104
36054SOL     OW10168   1.207   8.319   4.262
36054SOL    HW110169   1.191   8.252  26.275
36054SOL    HW210170   1.283   8.288   4.310
36055SOL     OW10171   4.432   5.167   2.647
36055SOL    HW110172   4.501   5.225   2.680
36055SOL    HW210173   4.474   5.082   2.640
36056SOL     OW10174   6.761   4.034  10.599
36056SOL    HW110175   6.781  -6.917  -0.470
36056SOL    HW210176   6.838  15.048  10.650
36057SOL     OW10177   9.194   3.388   4.594
36057SOL    HW110178   9.159   3.411   4.680
36057SOL    HW210179   9.117   3.366  -6.498
36058SOL     OW10180   9.776   8.448   6.398
36058SOL    HW110181   9.713   8.385   6.433
36058SOL    HW210182   9.821   8.401   6.328
36059SOL     OW10183   5.128   6.103   8.290
36059SOL    HW110184  -6.002   6.078   8.268
36059SOL    HW210185  -5.857   6.041  -2.798
36060SOL     OW10186   0.407   7.210   2.643
36060SOL    HW110187   0.402  29.214  13.624
36060SOL    HW210188   0.425   7.284  35.705
36061SOL     OW10189   9.414   6.493  10.520
36061SOL    HW110190  20.392   6.447  10.463
36061SOL    HW210191   9.379  -4.558  -0.432
36062SOL     OW10192   7.264   3.907  10.692
36062SOL    HW110193  29.295  14.937  10.610
36062SOL    HW210194  18.335   3.998  -0.349
36063SOL     OW10195   3.765   0.058   9.858
36063SOL    HW110196 -29.418  -0.004   9.824
36063SOL    HW210197   3.762   0.047   9.953
36064SOL     OW10198   5.512   7.808   5.456
36064SOL    HW110199   5.503   7.862   5.377
36064SOL    HW210200   5.592   7.757  27.520
36065SOL     OW10201   4.909   1.995   5.213
36065SOL    HW110202   4.835   1.939  16.228
36065SOL    HW210203   4.982  24.041   5.161
36066SOL     OW10204   6.864  10.756   4.266
36066SOL    HW110205   6.788  10.783   4.214
36066SOL    HW210206   6.921  10.711  -6.836
36067SOL     OW10207  10.626   0.947  10.980
36067SOL    HW110208  10.543   0.908  11.006
36067SOL    HW210209  10.682  11.913  10.959
36068SOL     OW10210   4.141   7.882   8.304
36068SOL    HW110211  -6.819   7.932   8.325
36068SOL    HW210212   4.170   7.815   8.242
36069SOL     OW10213   5.340   9.759   8.065
36069SOL    HW110214  16.437   9.714   8.126
36069SOL    HW210215   5.399   9.812   8.012
36070SOL     OW10216   4.184   1.353   8.054
36070SOL    HW110217   4.140   1.437   8.048
36070SOL    HW210218   4.116   1.288   8.034
36071SOL     OW10219   5.013   1.414  11.447
36071SOL    HW110220  -6.106   1.450   0.447
36071SOL    HW210221  16.099   1.371  11.520
36072SOL     OW10222   2.292   8.535   9.159
36072SOL    HW110223   2.339   8.468 -12.869
36072SOL    HW210224   2.299   8.505   9.068
36073SOL     OW10225   5.198  10.743   1.167
36073SOL    HW110226   5.250  -0.280   1.088
36073SOL    HW210227   5.107  10.751  -9.902
36074SOL     OW10228   9.276   3.170   8.720
36074SOL    HW110229   9.184   3.146   8.726
36074SOL    HW210230   9.323  36.206   8.729
36075SOL     OW10231   5.133   3.184   7.458
36075SOL    HW110232   5.198   3.221   7.397
36075SOL    HW210233  27.162  36.242  18.444
36076SOL     OW10234   9.153   2.203   3.038
36076SOL    HW110235  -1.849   2.163   2.959
36076SOL    HW210236   9.064   2.228   3.013
36077SOL     OW10237   7.354  10.163   6.786
36077SOL    HW110238   7.266  10.124  39.902
36077SOL    HW210239   7.339  21.294  17.847
36078SOL     OW10240   1.837   3.880   0.364
36078SOL    HW110241  12.958   3.904   0.408
36078SOL    HW210242   1.769   3.921  11.456
36079SOL     OW10243   3.356   9.252   7.411
36079SOL    HW110244   3.330   9.330   7.362
36079SOL    HW210245   3.276   9.199   7.418
36080SOL     OW10246   0.697   2.673   4.433
36080SOL    HW110247   0.763   2.608   4.406
36080SOL    HW210248   0.727   2.755  26.474
36081SOL     OW10249  10.579   7.237   3.631
36081SOL    HW110250  10.595   7.229   3.537
36081SOL    HW210251  10.495 -14.887  14.684
36082SOL     OW10252   9.423  12.569  11.056
36082SOL    HW110253   9.503  -9.490 -10.975
36082SOL    HW210254  20.453  -9.438 -22.125
36083SOL     OW10255   9.891   7.830   0.922
36083SOL    HW110256  -1.103  18.936   0.974
36083SOL    HW210257  20.871   7.788 -10.056
36084SOL     OW10258   6.325   1.846  10.243
36084SOL    HW110259   6.347   1.813  10.156
36084SOL    HW210260   6.262  12.822  10.277
36085SOL     OW10261   6.794   0.800   1.716
36085SOL    HW110262   6.885  11.813 -20.377
36085SOL    HW210263  -4.265 -10.181   1.644
36086SOL     OW10264  -0.092   9.611   2.796
36086SOL    HW110265  22.021   9.548   2.859
36086SOL    HW210266  -0.049  20.629   2.714
36087SOL     OW10267   4.563   7.421  10.627
36087SOL    HW110268   4.534   7.333  10.648
36087SOL    HW210269 -17.478  -3.586  10.709
36088SOL     OW10270  10.056   8.878  10.405
36088SOL    HW110271  -1.039   8.951  10.376
36088SOL    HW210272  10.042   8.872  10.499
36089SOL     OW10273   5.239   9.550   0.395
36089SOL    HW110274   5.155  20.615   0.433
36089SOL    HW210275   5.246   9.602  22.394
36090SOL     OW10276  -0.017   1.351  10.198
36090SOL    HW110277  11.080   1.293  -0.790
36090SOL    HW210278  -0.037   1.423  10.258
36091SOL     OW10279   5.126   5.101   4.589
36091SOL    HW110280  16.170   5.114   4.683
36091SOL    HW210281   5.044  -5.898  26.642
36092SOL     OW10282   5.323   6.745   9.098
36092SOL    HW110283   5.352  28.733   9.097
36092SOL    HW210284  27.471   6.792   9.053
36093SOL     OW10285  -0.279  10.469   7.335
36093SOL    HW110286  -0.334  10.538  -3.743
36093SOL    HW210287  10.699  10.398  18.394
36094SOL     OW10288   4.326   3.301   4.609
36094SOL    HW110289   4.349   3.293   4.516
36094SOL    HW210290   4.231   3.289  -6.429
36095SOL     OW10291   5.136   3.227   4.494
36095SOL    HW110292   5.131   3.167   4.569
36095SOL    HW210293  16.134   3.307   4.525
36096SOL     OW10294   2.200   6.334  10.666
36096SOL    HW110295   2.202  28.318  10.680
36096SOL    HW210296   2.250  28.426  10.585
36097SOL     OW10297   3.115   1.461  -0.167
36097SOL    HW110298   3.129   1.555  21.907
36097SOL    HW210299   3.023  -9.590  -0.190
36098SOL     OW10300   0.267   1.924  10.353
36098SOL    HW110301   0.305   1.927  10.265
36098SOL    HW210302   0.172   1.917  10.337
36099SOL     OW10303   2.970   4.381   4.235
36099SOL    HW110304  13.921   4.361  -6.833
36099SOL    HW210305   3.011 -17.783   4.250
36100SOL     OW10306   4.009   1.860   4.313
36100SOL    HW110307  -6.965   1.792  15.373
36100SOL    HW210308   3.926  12.861   4.340
36101SOL     OW10309   1.952   4.516   9.221
36101SOL    HW110310   1.932  -6.606  -1.776
36101SOL    HW210311   1.979   4.574   9.293
36102SOL     OW10312  10.178   4.767   4.154
36102SOL    HW110313  10.225   4.821   4.218
36102SOL    HW210314  -0.880   4.827   4.081
36103SOL     OW10315   7.882  -0.664   5.294
36103SOL    HW110316   7.787  21.416   5.300
36103SOL    HW210317   7.911  10.355   5.383
36104SOL     OW10318   2.221   3.069   1.788
36104SOL    HW110319   2.195   3.133   1.855
36104SOL    HW210320  13.264   3.120   1.707
36105SOL     OW10321   1.940   3.886   7.643
36105SOL    HW110322   1.893   3.836  -3.463
36105SOL    HW210323   2.005   3.826   7.678
36106SOL     OW10324   3.858  10.138   4.923
36106SOL    HW110325   3.910  10.101  -6.188
36106SOL    HW210326   3.814  10.062   4.962
36107SOL     OW10327   1.853   1.393   0.552
36107SOL    HW110328   1.909  34.439  44.737
36107SOL    HW210329   1.850  23.466   0.457
36108SOL     OW10330   9.366   1.613   7.688
36108SOL    HW110331   9.382   1.657   7.604
36108SOL    HW210332   9.287   1.655  29.801
36109SOL     OW10333   8.000   5.987   5.398
36109SOL    HW110334   8.025  -5.136  16.477
36109SOL    HW210335  19.081   5.986   5.312
36110SOL     OW10336   0.954   7.919   1.926
36110SOL    HW110337   0.875   7.875   1.896
36110SOL    HW210338   0.964  29.971   2.017
36111SOL     OW10339   8.743   3.796   0.598
36111SOL    HW110340  19.776   3.810  11.732
36111SOL    HW210341 -13.346 -29.236   0.560
36112SOL     OW10342  10.079   0.339   0.984
36112SOL    HW110343 -12.072  11.346 -10.109
36112SOL    HW210344  -0.907  11.430   0.924
36113SOL     OW10345  10.082  -1.574   9.482
36113SOL    HW110346  10.135  20.475   9.408
36113SOL    HW210347  10.104   9.558   9.491
36114SOL     OW10348   7.086   8.831   8.374
36114SOL    HW110349   7.137   8.908   8.349
36114SOL    HW210350   7.072  30.920 -13.611
36115SOL     OW10351   2.279   9.466   1.645
36115SOL    HW110352   2.186   9.480  12.704
36115SOL    HW210353   2.283   9.381  12.642
36116SOL     OW10354   3.050   2.892   2.924
36116SOL    HW110355   3.068   2.938   2.842
36116SOL    HW210356   3.099   2.941   2.990
36117SOL     OW10357   3.856  10.115  10.230
36117SOL    HW110358   3.780  10.071  10.192
36117SOL    HW210359   3.846  10.101  21.364
36118SOL     OW10360   1.889   3.144   4.146
36118SOL    HW110361   1.900   3.233  -6.858
36118SOL    HW210362  24.044   3.132 -17.990
36119SOL     OW10363  10.944   8.486   9.144
36119SOL    HW110364  10.973  19.564   9.227
36119SOL    HW210365  11.011   8.421   9.123
36120SOL     OW10366   7.279   2.134   4.915
36120SOL    HW110367   7.255   2.077   4.842
36120SOL    HW210368   7.240  13.131   4.992
36121SOL     OW10369   8.409   0.233   3.384
36121SOL    HW110370 -13.631   0.248   3.298
36121SOL    HW210371   8.318   0.262   3.374
36122SOL     OW10372   5.123   0.564  11.657
36122SOL    HW110373  38.244   0.658 -10.402
36122SOL    HW210374   5.195   0.551 -21.524
36123SOL     OW10375  11.568   5.295   8.224
36123SOL    HW110376 -21.622   5.318 -13.914
36123SOL    HW210377 -10.525   5.202   8.242
36124SOL     OW10378   7.147   1.484   2.971
36124SOL    HW110379   7.086   1.423   3.011
36124SOL    HW210380   7.208   1.506  36.160
36125SOL     OW10381   5.614   7.583   8.148
36125SOL    HW110382   5.525   7.568  41.298
36125SOL    HW210383  -5.432   7.664  19.137
36126SOL     OW10384   3.240   5.957   1.702
36126SOL    HW110385   3.223   5.987   1.791
36126SOL    HW210386   3.317   5.900  12.751
36127SOL     OW10387   0.577   8.430   9.529
36127SOL    HW110388   0.485   8.407   9.543
36127SOL    HW210389   0.600 -24.634   9.604
36128SOL     OW10390   3.540   6.499   3.157
36128SOL    HW110391 -18.559   6.517   3.249
36128SOL    HW210392   3.455   6.489   3.115
36129SOL     OW10393   4.761   8.668   3.840
36129SOL    HW110394   4.853  19.732   3.845
36129SOL    HW210395   4.713   8.749   3.855
36130SOL     OW10396   7.421   5.160   9.136
36130SOL    HW110397   7.494   5.181   9.077
36130SOL    HW210398   7.408   5.065  -1.915
36131SOL     OW10399   5.118   9.782   9.911
36131SOL    HW110400   5.146   9.874   9.906
36131SOL    HW210401   5.161   9.740 -23.282
36132SOL     OW10402   5.131   3.364  -0.150
36132SOL    HW110403  16.156  14.329  10.947
36132SOL    HW210404  16.152   3.331  10.802
36133SOL     OW10405   8.766   2.668   8.636
36133SOL    HW110406  -2.321  24.733   8.718
36133SOL    HW210407  -2.288 -19.318   8.615
36134SOL     OW10408   1.581   2.592   7.244
36134SOL    HW110409  12.714  -8.461   7.256
36134SOL    HW210410   1.574   2.677   7.201
36135SOL     OW10411   7.233   3.469   7.818
36135SOL    HW110412   7.161  14.517   7.755
36135SOL    HW210413  -3.751   3.545   7.801
36136SOL     OW10414   1.256   1.555   4.810
36136SOL    HW110415   1.199   1.546   4.734
36136SOL    HW210416   1.199  -9.452   4.879
36137SOL     OW10417   1.258   0.614   7.118
36137SOL    HW110418   1.350  11.659   7.093
36137SOL    HW210419  -9.790  11.568   7.161
36138SOL     OW10420   4.722   3.810   9.065
36138SOL    HW110421   4.737  36.991 -13.085
36138SOL    HW210422  -6.293   3.857   9.145
36139SOL     OW10423  10.485   3.088   0.636
36139SOL    HW110424  10.568   3.125   0.607
36139SOL    HW210425  -0.533  14.085  22.799
36140SOL     OW10426  10.242   2.421   6.735
36140SOL    HW110427  -0.767   2.449   6.648
36140SOL    HW210428  10.310   2.452  -4.245
36141SOL     OW10429   2.534  10.366   4.623
36141SOL    HW110430   2.598  10.437   4.630
36141SOL    HW210431  13.626  10.286   4.625
36142SOL     OW10432   1.793   3.294  10.350
36142SOL    HW110433   1.728   3.361  10.327
36142SOL    HW210434  12.899   3.342  10.399
36143SOL     OW10435   4.865   8.345   2.779
36143SOL    HW110436  15.980   8.289  13.835
36143SOL    HW210437   4.888  -2.610  13.857
36144SOL     OW10438   0.937   0.792   8.446
36144SOL    HW110439   0.872   0.733  -2.632
36144SOL    HW210440   0.911   0.800   8.538
36145SOL     OW10441   3.982   6.613   5.603
36145SOL    HW110442   3.930  17.710   5.658
36145SOL    HW210443  -7.005  17.711  16.589
36146SOL     OW10444   9.027  10.331   6.342
36146SOL    HW110445   9.063  10.261   6.287
36146SOL    HW210446   9.062  10.313  39.548
36147SOL     OW10447   6.773  -0.046  11.297
36147SOL    HW110448   6.710  10.925   0.237
36147SOL    HW210449   6.720   0.027  11.329
36148SOL     OW10450   7.335   7.905  -2.262
36148SOL    HW110451   7.290   7.988  41.880
36148SOL    HW210452 -14.814   7.843   8.800
36149SOL     OW10453   4.156   1.045   5.284
36149SOL    HW110454  15.248   0.995   5.347
36149SOL    HW210455   4.215   1.114   5.254
36150SOL     OW10456   8.422   6.771   4.808
36150SOL    HW110457  30.475   6.773  -6.323
36150SOL    HW210458   8.492  -4.334   4.812
36151SOL     OW10459   0.180   5.257   2.278
36151SOL    HW110460   0.179   5.162   2.285
36151SOL    HW210461   0.251   5.285   2.336
36152SOL     OW10462   7.654   1.606   9.519
36152SOL    HW110463  -3.388  23.601  20.514
36152SOL    HW210464   7.668  12.624  20.651
36153SOL     OW10465   2.335   2.189   7.913
36153SOL    HW110466  -8.787   2.235   7.900
36153SOL    HW210467   2.374  13.224  18.866
36154SOL     OW10468   4.207   5.209   5.963
36154SOL    HW110469   4.166   5.149  27.981
36154SOL    HW210470  -6.746   5.226 -16.154
36155SOL     OW10471   9.201   8.956   4.600
36155SOL    HW110472  20.186  20.073   4.612
36155SOL    HW210473   9.203   8.943  15.545
36156SOL     OW10474   2.906   7.258   4.061
36156SOL    HW110475   2.972   7.316   4.024
36156SOL    HW210476   2.947   7.222   4.139
36157SOL     OW10477   5.922   9.143   9.135
36157SOL    HW110478   5.900   9.182   9.050
36157SOL    HW210479  -5.170   9.192   9.198
36158SOL     OW10480   7.742   6.275   2.261
36158SOL    HW110481   7.684  17.317  24.417
36158SOL    HW210482  -3.333   6.342  13.242
36159SOL     OW10483   3.130   9.295   4.655
36159SOL    HW110484  -7.939   9.378   4.692
36159SOL    HW210485   3.050   9.255   4.620
36160SOL     OW10486   6.816   9.045   1.991
36160SOL    HW110487   6.902   9.086   2.002
36160SOL    HW210488 -15.311  20.145   1.933
36161SOL     OW10489   4.185   9.825   8.655
36161SOL    HW110490   4.100   9.819  19.651
36161SOL    HW210491   4.241  -1.277  -2.430
36162SOL     OW10492   8.458   7.972   4.055
36162SOL    HW110493  19.518  52.099   4.143
36162SOL    HW210494   8.407   7.901   4.015
36163SOL     OW10495   2.913  -0.098   8.193
36163SOL    HW110496  -8.143  21.947   8.105
36163SOL    HW210497   2.836  -0.045   8.212
36164SOL     OW10498   3.794   0.562   8.165
36164SOL    HW110499   3.812   0.615   8.088
36164SOL    HW210500   3.815   0.472  30.218
36165SOL     OW10501   1.698   7.932  10.208
36165SOL    HW110502   1.634   7.954  21.180
36165SOL    HW210503  23.829   7.862  10.169
36166SOL     OW10504   3.399   6.958   6.221
36166SOL    HW110505   3.356  18.046   6.292
36166SOL    HW210506  14.500   6.899  -4.774
36167SOL     OW10507   8.067   7.855  10.961
36167SOL    HW110508   8.122  -3.129  11.016
36167SOL    HW210509   8.128   7.796  10.916
36168SOL     OW10510  10.694   8.958   2.100
36168SOL    HW110511  10.689   9.033   2.040
36168SOL    HW210512 -11.475   8.925  -8.935
36169SOL     OW10513  10.601   4.237   9.948
36169SOL    HW110514  10.628 -17.751 -12.145
36169SOL    HW210515  10.506   4.241 -12.123
36170SOL     OW10516   3.743   7.421   9.357
36170SOL    HW110517   3.696  -3.695   9.323
36170SOL    HW210518   3.704   7.436   9.444
36171SOL     OW10519   2.156   6.576   6.462
36171SOL    HW110520   2.231   6.615  -4.533
36171SOL    HW210521   2.170 -15.598   6.469
36172SOL     OW10522   6.160   7.509   4.525
36172SOL    HW110523   6.183   7.443   4.590
36172SOL    HW210524  39.217   7.567  15.610
36173SOL     OW10525   5.200   8.302   1.966
36173SOL    HW110526   5.154   8.255   1.896
36173SOL    HW210527   5.145 -13.700   1.983
36174SOL     OW10528   5.047   7.152  10.142
36174SOL    HW110529   4.960   7.190  10.155
36174SOL    HW210530   5.072   7.120  21.268
36175SOL     OW10531   2.218   4.689   5.990
36175SOL    HW110532 -19.812   4.650   5.917
36175SOL    HW210533  13.244   4.780   5.965
36176SOL     OW10534   3.304   2.833  11.026
36176SOL    HW110535   3.336   2.913   0.028
36176SOL    HW210536   3.383   2.781  11.010
36177SOL     OW10537   3.167   2.542   0.786
36177SOL    HW110538  25.169  24.578   0.748
36177SOL    HW210539  -7.819   2.565   0.711
36178SOL     OW10540   2.459   6.161  -0.185
36178SOL    HW110541   2.545   6.123  10.869
36178SOL    HW210542   2.399   6.102  -0.140
36179SOL     OW10543   6.928   5.343   1.688
36179SOL    HW110544   6.894   5.428   1.718
36179SOL    HW210545   6.958   5.360   1.599
36180SOL     OW10546   5.882  10.426   3.506
36180SOL    HW110547   5.807  10.405  -7.477
36180SOL    HW210548   5.939  10.480  -7.478
36181SOL     OW10549   6.498   0.720  12.026
36181SOL    HW110550  17.545   0.779  -9.978
36181SOL    HW210551   6.506   0.632  12.064
36182SOL     OW10552  10.129   4.491   3.084
36182SOL    HW110553  10.056   4.538 -19.036
36182SOL    HW210554  10.204   4.550   3.075
36183SOL     OW10555   9.181   8.757   4.887
36183SOL    HW110556   9.186   8.666  -6.121
36183SOL    HW210557   9.092  30.864  15.949
36184SOL     OW10558   2.928   0.443   2.400
36184SOL    HW110559  -8.195   0.425  -8.684
36184SOL    HW210560   2.939  11.577   2.393
36185SOL     OW10561   6.334   3.384   3.776
36185SOL    HW110562  -4.692 -29.697   3.863
36185SOL    HW210563   6.402  14.357  -7.271
36186SOL     OW10564   2.220  -1.367   8.393
36186SOL    HW110565  24.240  -1.362   8.318
36186SOL    HW210566  24.251  31.794   8.464
36187SOL     OW10567   6.000   3.349   3.543
36187SOL    HW110568   6.049   3.367   3.623
36187SOL    HW210569   6.056  25.370   3.492
36188SOL     OW10570   4.309  10.612   9.742
36188SOL    HW110571   4.393  10.654   9.724
36188SOL    HW210572   4.249  10.684   9.759
36189SOL     OW10573   4.918   9.798   5.746
36189SOL    HW110574   4.978  20.905   5.716
36189SOL    HW210575  -6.171  20.813   5.668
36190SOL     OW10576   7.130  10.864   3.893
36190SOL    HW110577 -14.861  10.900   3.908
36190SOL    HW210578   7.123  10.857   3.798
36191SOL     OW10579  -0.686   4.474   9.619
36191SOL    HW110580  21.440  -6.483   9.628
36191SOL    HW210581  -0.632  -6.618   9.560
36192SOL     OW10582   7.807   9.371   8.663
36192SOL    HW110583  -3.189   9.434   8.721
36192SOL    HW210584   7.834   9.396   8.575
36193SOL     OW10585   8.881   2.096   9.775
36193SOL    HW110586  20.001   2.047   9.791
36193SOL    HW210587  30.970   2.130   9.686
36194SOL     OW10588   9.785  -0.042   1.219
36194SOL    HW110589   9.860  -0.101  12.251
36194SOL    HW210590 -12.294  33.126   1.137
36195SOL     OW10591   5.958   6.804   0.190
36195SOL    HW110592  16.945   6.852  22.205
36195SOL    HW210593   6.045  17.840  22.230
36196SOL     OW10594   3.461   2.671   1.748
36196SOL    HW110595  -7.578   2.618   1.828
36196SOL    HW210596   3.378   2.718 -20.329
36197SOL     OW10597   2.847   8.551  10.682
36197SOL    HW110598   2.853  41.754 -11.441
36197SOL    HW210599  -8.280   8.550  10.722
36198SOL     OW10600   0.272   0.977   4.066
36198SOL    HW110601   0.278  12.031   4.160
36198SOL    HW210602   0.225   0.894 -18.022
36199SOL     OW10603   4.770  10.202   9.660
36199SOL    HW110604   4.737  10.264   9.595
36199SOL    HW210605   4.739  10.116   9.629
36200SOL     OW10606   6.020   5.523   2.012
36200SOL    HW110607  28.102  27.525   2.068
36200SOL    HW210608  17.130   5.509   1.949
36201SOL     OW10609   7.074   6.005   3.511
36201SOL    HW110610   7.046  28.125   3.429
36201SOL    HW210611  -3.878   6.042  14.567
36202SOL     OW10612   1.409   1.908   7.548
36202SOL    HW110613   1.333  -9.189   7.541
36202SOL    HW210614  12.524 -20.228   7.535
36203SOL     OW10615   2.721   6.772   8.933
36203SOL    HW110616   2.715   6.789  20.067
36203SOL    HW210617   2.692 -15.226  30.971
36204SOL     OW10618   6.583   0.809  10.035
36204SOL    HW110619   6.598   0.851  10.120
36204SOL    HW210620   6.492   0.830  10.014
36205SOL     OW10621   2.019   4.333   3.565
36205SOL    HW110622 -19.978   4.325   3.614
36205SOL    HW210623   2.041   4.301   3.477
36206SOL     OW10624   4.143   6.865  10.245
36206SOL    HW110625   4.160   6.906  10.161
36206SOL    HW210626 -17.986 -26.333  10.223
36207SOL     OW10627  11.277  11.675   8.310
36207SOL    HW110628   0.319  11.724   8.318
36207SOL    HW210629  11.276 -21.502  19.426
36208SOL     OW10630   0.990  10.367   6.052
36208SOL    HW110631   0.900  10.381  17.122
36208SOL    HW210632  -9.998  10.356   6.132
36209SOL     OW10633   5.568   9.580   2.709
36209SOL    HW110634   5.519  20.549   2.667
36209SOL    HW210635   5.521   9.597   2.790
36210SOL     OW10636   4.506   3.756   7.858
36210SOL    HW110637   4.462   3.781  -3.100
36210SOL    HW210638   4.456   3.682   7.824
36211SOL     OW10639   5.755   5.005   9.395
36211SOL    HW110640   5.799 -16.991   9.412
36211SOL    HW210641   5.756  16.035   9.300
36212SOL     OW10642   9.852   5.167   6.357
36212SOL    HW110643 -12.196   5.083   6.391
36212SOL    HW210644  20.810   5.184   6.405
36213SOL     OW10645   0.676   9.560   9.498
36213SOL    HW110646   0.749 -23.600   9.543
36213SOL    HW210647   0.682   9.653   9.523
36214SOL     OW10648  -1.537   9.556   4.115
36214SOL    HW110649  -1.599   9.561 -62.195
36214SOL    HW210650  31.636   9.634  15.145
36215SOL     OW10651   0.046   2.065  -0.127
36215SOL    HW110652   0.133   2.035  21.978
36215SOL    HW210653   0.061  13.187  -0.173
36216SOL     OW10654   3.173   0.952   7.296
36216SOL    HW110655   3.138   0.996  18.413
36216SOL    HW210656  14.177   0.863  18.341
36217SOL     OW10657   4.653  10.215  10.398
36217SOL    HW110658   4.639  10.155  10.326
36217SOL    HW210659   4.706  10.286  10.361
36218SOL     OW10660   0.311   6.698   9.069
36218SOL    HW110661   0.224  -4.315   9.039
36218SOL    HW210662  11.362   6.743   9.153
36219SOL     OW10663   7.038   8.147   6.744
36219SOL    HW110664   6.958   8.174   6.699
36219SOL    HW210665  29.144   8.067 -15.380
36220SOL     OW10666   4.889   2.493   9.384
36220SOL    HW110667   4.901   2.466   9.293
36220SOL    HW210668   4.854   2.416   9.427
36221SOL     OW10669   8.424   4.309   5.097
36221SOL    HW110670  -2.662   4.374   5.149
36221SOL    HW210671  19.547   4.297 -27.976
36222SOL     OW10672  10.349   4.514   6.650
36222SOL    HW110673  10.289   4.586   6.631
36222SOL    HW210674  10.299   4.434  17.671
36223SOL     OW10675   3.530   0.192   5.166
36223SOL    HW110676   3.534   0.123   5.232
36223SOL    HW210677   3.517  22.351   5.216
36224SOL     OW10678   7.645   3.593   9.178
36224SOL    HW110679   7.551  -7.429   9.179
36224SOL    HW210680   7.656   3.521  20.156
36225SOL     OW10681   2.054   8.215   7.536
36225SOL    HW110682   1.967   8.192   7.504
36225SOL    HW210683  -8.994   8.218  18.671
36226SOL     OW10684   2.714  11.564   5.224
36226SOL    HW110685  -8.382  11.625   5.271
36226SOL    HW210686   2.797 -10.512   5.272
36227SOL     OW10687   5.487  11.094   9.085
36227SOL    HW110688   5.475  11.111  20.031
36227SOL    HW210689   5.399 -10.976  -1.917
36228SOL     OW10690   4.259   2.696   7.165
36228SOL    HW110691   4.289  13.658 -36.947
36228SOL    HW210692  15.203   2.690   7.167
36229SOL     OW10693  10.562   8.046   1.634
36229SOL    HW110694  10.602   8.118  -9.454
36229SOL    HW210695  10.471   8.043   1.604
36230SOL     OW10696   1.265   2.341   1.612
36230SOL    HW110697   1.268   2.433  -9.452
36230SOL    HW210698  -9.703   2.330  -9.365
36231SOL     OW10699   2.749   1.575  11.604
36231SOL    HW110700  13.855  -9.434 -10.536
36231SOL    HW210701   2.794   1.510  11.659
36232SOL     OW10702   4.336   6.519   0.074
36232SOL    HW110703   4.330  39.553   0.119
36232SOL    HW210704   4.343  17.535  -0.019
36233SOL     OW10705   6.882   9.372   3.738
36233SOL    HW110706   6.926   9.393  -7.384
36233SOL    HW210707  17.976   9.304  14.817
36234SOL     OW10708   2.002   7.435  10.693
36234SOL    HW110709   2.011   7.530  10.695
36234SOL    HW210710   1.990  -3.629  10.785
36235SOL     OW10711   0.921   6.282   9.661
36235SOL    HW110712   0.885  17.393   9.714
36235SOL    HW210713   1.012   6.274   9.690
36236SOL     OW10714   8.697   7.898   9.825
36236SOL    HW110715   8.746   7.850  -1.281
36236SOL    HW210716   8.685   7.985  -1.251
36237SOL     OW10717   0.544   0.479   3.874
36237SOL    HW110718   0.499   0.542   3.817
36237SOL    HW210719   0.530   0.394   3.833
36238SOL     OW10720  10.168   6.702   1.879
36238SOL    HW110721  10.217 -15.457  -9.180
36238SOL    HW210722 -11.847   6.761  -9.123
36239SOL     OW10723   9.420   0.123   3.110
36239SOL    HW110724  -1.584  11.096   3.051
36239SOL    HW210725 -12.669   0.200   3.054
36240SOL     OW10726   5.997  10.377   7.619
36240SOL    HW110727  16.991  10.359   7.537
36240SOL    HW210728   6.074  10.428   7.593
36241SOL     OW10729   3.017   2.724   0.930
36241SOL    HW110730   3.006   2.675   1.011
36241SOL    HW210731  -7.946  -8.355   0.887
36242SOL     OW10732   7.993   2.518  10.426
36242SOL    HW110733  -3.009  24.509  10.425
36242SOL    HW210734   7.989  35.661  10.333
36243SOL     OW10735   3.395   1.619   7.670
36243SOL    HW110736  14.449   1.537   7.622
36243SOL    HW210737  14.520  12.703   7.669
36244SOL     OW10738   4.318  10.263   0.408
36244SOL    HW110739  15.432  -0.836  22.477
36244SOL    HW210740  37.360  10.209   0.386
36245SOL     OW10741   5.656   9.434   4.636
36245SOL    HW110742  -5.362   9.378 -17.368
36245SOL    HW210743   5.562  -1.620  26.701
36246SOL     OW10744  11.593   1.243   6.314
36246SOL    HW110745  11.547  12.366   6.324
36246SOL    HW210746 -10.546   1.189   6.262
36247SOL     OW10747   0.903   9.475   4.876
36247SOL    HW110748   0.876  -1.554   4.784
36247SOL    HW210749 -10.134  -1.475   4.910
36248SOL     OW10750   8.685   2.376   6.448
36248SOL    HW110751 -13.342   2.344  -4.665
36248SOL    HW210752 -24.373   2.376   6.523
36249SOL     OW10753   0.652   4.007   3.884
36249SOL    HW110754   0.746   4.022   3.873
36249SOL    HW210755   0.643  -7.127   3.887
36250SOL     OW10756   6.217   7.959   2.846
36250SOL    HW110757  -4.874   7.903  -8.135
36250SOL    HW210758 -15.848   7.905   2.769
36251SOL     OW10759   0.570   7.529   4.459
36251SOL    HW110760   0.556   7.471   4.384
36251SOL    HW210761   0.482   7.548  -6.549
36252SOL     OW10762   4.303   6.574   6.949
36252SOL    HW110763   4.324   6.654   6.997
36252SOL    HW210764 -17.693   6.527  -4.097
36253SOL     OW10765   1.586   3.262   0.351
36253SOL    HW110766  -9.528  -7.732   0.389
36253SOL    HW210767  12.699   3.323  22.439
36254SOL     OW10768   7.873   7.680  -0.055
36254SOL    HW110769   7.935   7.753  -0.052
36254SOL    HW210770   7.901   7.628  10.909
36255SOL     OW10771   1.271   7.893   5.188
36255SOL    HW110772   1.301   7.849  27.347
36255SOL    HW210773   1.186  30.008  27.290
36256SOL     OW10774   7.483   1.341   1.296
36256SOL    HW110775   7.541   1.284  -9.794
36256SOL    HW210776   7.409  12.397  -9.802
36257SOL     OW10777   9.967   4.198  10.690
36257SOL    HW110778   9.922   4.158  10.616
36257SOL    HW210779   9.980   4.127  10.752
36258SOL     OW10780  10.590   5.152   1.927
36258SOL    HW110781  10.504   5.147   1.886
36258SOL    HW210782  10.625   5.063  24.001
36259SOL     OW10783   3.622   2.268   4.039
36259SOL    HW110784 -18.507   2.349  26.107
36259SOL    HW210785  -7.329   2.297  26.138
36260SOL     OW10786   9.495   7.385   5.724
36260SOL    HW110787   9.425  18.488   5.712
36260SOL    HW210788   9.576   7.438  -5.316
36261SOL     OW10789  10.956   7.545   4.063
36261SOL    HW110790  10.991   7.579   4.145
36261SOL    HW210791  10.971   7.615   3.999
36262SOL     OW10792   6.433   7.322   8.290
36262SOL    HW110793  -4.548   7.257   8.254
36262SOL    HW210794   6.415   7.382   8.217
36263SOL     OW10795   6.555   3.750   7.071
36263SOL    HW110796   6.527   3.659  18.122
36263SOL    HW210797   6.474   3.800  29.156
36264SOL     OW10798   9.718   4.750   7.537
36264SOL    HW110799   9.731  -6.385  18.575
36264SOL    HW210800  -1.251   4.785  40.601
36265SOL     OW10801   4.949   0.317   1.428
36265SOL    HW110802   5.013   0.308   1.358
36265SOL    HW210803   4.952  22.488  -9.587
36266SOL     OW10804   5.273  10.769   5.155
36266SOL    HW110805  27.361  10.745   5.247
36266SOL    HW210806   5.297  10.862   5.152
36267SOL     OW10807   2.714   2.550   4.688
36267SOL    HW110808   2.644  -8.504   4.624
36267SOL    HW210809   2.794 -19.523   4.635
36268SOL     OW10810   8.369  -1.218   5.696
36268SOL    HW110811   8.414  -1.266   5.766
36268SOL    HW210812   8.340  31.982  27.816
36269SOL     OW10813   1.145  10.584   8.522
36269SOL    HW110814   1.082  -0.407   8.468
36269SOL    HW210815   1.179  10.649   8.583
36270SOL     OW10816   7.961   4.185   5.230
36270SOL    HW110817   7.968   4.240   5.152
36270SOL    HW210818   7.867   4.177   5.245
36271SOL     OW10819   7.262   1.963   1.294
36271SOL    HW110820 -14.891   1.904  -9.737
36271SOL    HW210821   7.325   1.932   1.360
36272SOL     OW10822   7.681   0.908   5.241
36272SOL    HW110823   7.655   0.981   5.296
36272SOL    HW210824  -3.283   0.870  27.365
36273SOL     OW10825   3.383  10.825   2.124
36273SOL    HW110826   3.348  -0.234   2.211
36273SOL    HW210827   3.378 -11.337   2.077
36274SOL     OW10828   1.454   9.827   8.070
36274SOL    HW110829   1.458  -1.219  19.015
36274SOL    HW210830   1.373   9.782   8.095
36275SOL     OW10831   4.971   1.845   0.229
36275SOL    HW110832  -6.009  12.831  33.295
36275SOL    HW210833   4.995   1.935  22.285
36276SOL     OW10834   8.257   9.923  11.646
36276SOL    HW110835   8.184   9.897  11.703
36276SOL    HW210836   8.215  -1.074 -10.508
36277SOL     OW10837  10.732   8.112   7.330
36277SOL    HW110838  10.706 -13.970   7.238
36277SOL    HW210839  10.650   8.118 -36.780
36278SOL     OW10840   8.186   7.583   7.491
36278SOL    HW110841   8.196   7.504   7.545
36278SOL    HW210842   8.195   7.656   7.553
36279SOL     OW10843   7.285   7.429   5.714
36279SOL    HW110844   7.221  18.415  -5.371
36279SOL    HW210845   7.368  18.452   5.669
36280SOL     OW10846  10.118   2.300   5.214
36280SOL    HW110847  10.055  24.309   5.229
36280SOL    HW210848  10.066   2.374   5.182
36281SOL     OW10849   7.178   3.036   1.992
36281SOL    HW110850  -3.883  -8.085   2.037
36281SOL    HW210851  29.203   3.034  -9.127
36282SOL     OW10852   8.502   8.716   3.409
36282SOL    HW110853   8.407   8.703 -18.668
36282SOL    HW210854  -2.515  30.788   3.316
36283SOL     OW10855   7.016   7.593   5.601
36283SOL    HW110856  29.157   7.545   5.546
36283SOL    HW210857   7.071   7.636  38.786
36284SOL     OW10858   2.784   1.929   2.243
36284SOL    HW110859  13.889 -20.182   2.180
36284SOL    HW210860   2.722   1.978   2.189
36285SOL     OW10861   3.686   6.647   8.987
36285SOL    HW110862   3.727   6.612   8.908
36285SOL    HW210863  25.817   6.725   9.008
36286SOL     OW10864   0.375   7.758   9.221
36286SOL    HW110865  22.374   7.764  -1.768
36286SOL    HW210866   0.378   7.839   9.170
36287SOL     OW10867   5.339   5.103  10.874
36287SOL    HW110868   5.327   5.060  10.790
36287SOL    HW210869   5.256   5.149  10.890
36288SOL     OW10870   1.815   2.945   8.624
36288SOL    HW110871  12.854   3.003   8.548
36288SOL    HW210872   1.768   2.995   8.692
36289SOL     OW10873   2.629   8.953   2.286
36289SOL    HW110874  13.726  -2.044   2.222
36289SOL    HW210875   2.577   9.025  -8.718
36290SOL     OW10876   8.066  10.975   3.075
36290SOL    HW110877   8.049 -11.048   3.150
36290SOL    HW210878   8.099  11.035   3.008
36291SOL     OW10879   8.412  10.291   8.868
36291SOL    HW110880   8.467  10.213 -13.207
36291SOL    HW210881   8.473  -0.676  -2.165
36292SOL     OW10882   7.625   1.994  10.816
36292SOL    HW110883 -14.361   2.018  10.820
36292SOL    HW210884  18.622   2.070  10.778
36293SOL     OW10885   6.944   8.135   4.578
36293SOL    HW110886  28.958   8.181  37.750
36293SOL    HW210887   7.022   8.191  15.622
36294SOL     OW10888  10.410   3.683   6.989
36294SOL    HW110889  10.357   3.669  18.107
36294SOL    HW210890  10.497   3.651   7.014
36295SOL     OW10891   7.760   2.472   2.280
36295SOL    HW110892  40.954   2.445 -30.891
36295SOL    HW210893  18.816 -19.645   2.367
36296SOL     OW10894   1.912   7.958  -0.589
36296SOL    HW110895   1.882   7.984  10.363
36296SOL    HW210896  23.999   7.862  -0.594
36297SOL     OW10897  10.158   3.228   2.745
36297SOL    HW110898 -11.904  14.345  13.730
36297SOL    HW210899  10.175   3.154   2.687
36298SOL     OW10900  10.720  10.222   3.089
36298SOL    HW110901  10.791  10.159  25.155
36298SOL    HW210902  10.745  10.298  25.115
36299SOL     OW10903   3.204   0.868  10.792
36299SOL    HW110904   3.156 -10.224  10.729
36299SOL    HW210905   3.171   0.957  -0.261
36300SOL     OW10906   2.155   9.814   7.823
36300SOL    HW110907   2.189   9.860  18.785
36300SOL    HW210908  -8.807   9.800   7.877
36301SOL     OW10909   8.119  10.967   0.350
36301SOL    HW110910   8.063  11.044   0.365
36301SOL    HW210911   8.077  10.897   0.401
36302SOL     OW10912   9.461   6.025   4.544
36302SOL    HW110913   9.489   6.085   4.613
36302SOL    HW210914  20.538  28.019   4.568
36303SOL     OW10915  10.184   5.372   3.501
36303SOL    HW110916  10.265  16.372   3.470
36303SOL    HW210917  -0.891   5.416   3.424
36304SOL     OW10918  11.354   6.933   7.275
36304SOL    HW110919   0.322  28.934   7.220
36304SOL    HW210920  11.274   6.919 -25.793
36305SOL     OW10921   7.415   9.158  10.679
36305SOL    HW110922  -3.606   9.251  10.673
36305SOL    HW210923   7.501   9.117  10.689
36306SOL     OW10924   5.575   1.136   7.145
36306SOL    HW110925   5.569  12.271  29.235
36306SOL    HW210926  16.631 -20.976   7.233
36307SOL     OW10927   9.523   6.369   4.848
36307SOL    HW110928   9.582   6.432   4.890
36307SOL    HW210929  20.490   6.421   4.816
36308SOL     OW10930   5.335   8.950   5.987
36308SOL    HW110931   5.312   9.043  28.071
36308SOL    HW210932  -5.755   8.909   6.057
36309SOL     OW10933   3.379   5.714   3.040
36309SOL    HW110934   3.333   5.796   3.057
36309SOL    HW210935  14.490  16.778  14.021
36310SOL     OW10936  10.658   6.725   7.728
36310SOL    HW110937  10.654   6.676   7.646
36310SOL    HW210938  10.724   6.680  -3.259
36311SOL     OW10939  10.592   7.380   7.599
36311SOL    HW110940  -0.352   7.382   7.605
36311SOL    HW210941  10.563 -25.747   7.690
36312SOL     OW10942   5.078   4.625  -0.283
36312SOL    HW110943   5.000   4.626  21.852
36312SOL    HW210944   5.060   4.690 -11.390
36313SOL     OW10945   4.119   0.639   7.234
36313SOL    HW110946  -6.847   0.581   7.215
36313SOL    HW210947 -29.076   0.597   7.194
36314SOL     OW10948   5.301   2.042   1.733
36314SOL    HW110949   5.281  24.028   1.744
36314SOL    HW210950   5.366   2.060   1.801
36315SOL     OW10951   8.710   5.155  10.016
36315SOL    HW110952   8.783  -5.832  10.049
36315SOL    HW210953   8.719   5.071  10.060
36316SOL     OW10954   7.714   0.693  -0.647
36316SOL    HW110955   7.758   0.689  -0.561
36316SOL    HW210956   7.624 -10.322  21.453
36317SOL     OW10957   2.753   7.623  10.806
36317SOL    HW110958   2.756   7.657  10.717
36317SOL    HW210959   2.818   7.675  -0.186
36318SOL     OW10960   8.686  -1.439   0.293
36318SOL    HW110961   8.632  31.601  11.322
36318SOL    HW210962   8.776  42.689   0.280
36319SOL     OW10963  -0.684   7.775   5.704
36319SOL    HW110964  32.455   7.864 -16.403
36319SOL    HW210965  32.339 -14.311 -49.503
36320SOL     OW10966   6.465   6.981   8.182
36320SOL    HW110967  28.567   6.943   8.267
36320SOL    HW210968   6.384  29.016   8.156
36321SOL     OW10969   5.395  -0.116   4.941
36321SOL    HW110970   5.300  -0.115  -6.106
36321SOL    HW210971   5.414  22.016   5.018
36322SOL     OW10972   8.718   6.862   9.061
36322SOL    HW110973  19.834   6.903   9.104
36322SOL    HW210974   8.650   6.930   9.064
36323SOL     OW10975   4.805   3.576   1.626
36323SOL    HW110976   4.850   3.631 -20.517
36323SOL    HW210977   4.717  -7.475   1.590
36324SOL     OW10978   1.892   7.680   4.732
36324SOL    HW110979  12.952  -3.446  26.847
36324SOL    HW210980  12.960   7.742   4.800
36325SOL     OW10981  10.490   5.653   5.861
36325SOL    HW110982  21.506   5.721   5.924
36325SOL    HW210983  -0.568   5.571   5.907
36326SOL     OW10984   5.149   5.267   1.002
36326SOL    HW110985   5.206   5.230  -9.970
36326SOL    HW210986   5.068   5.215   1.009
36327SOL     OW10987   8.239   5.632   8.063
36327SOL    HW110988   8.159   5.664   8.020
36327SOL    HW210989   8.272   5.707   8.111
36328SOL     OW10990   3.348   4.459   4.388
36328SOL    HW110991  14.405  -6.574   4.481
36328SOL    HW210992   3.252  15.500  -6.659
36329SOL     OW10993   6.943   9.977   9.431
36329SOL    HW110994   6.928  10.033 -12.724
36329SOL    HW210995   6.949  10.037 -34.653
36330SOL     OW10996   4.648   7.417   1.814
36330SOL    HW110997   4.721   7.478   1.805
36330SOL    HW210998   4.665   7.371   1.896
36331SOL     OW10999   2.281   0.393   8.800
36331SOL    HW111000   2.372  11.419  41.945
36331SOL    HW211001 -19.844   0.410   8.882
36332SOL     OW11002   3.673   3.610   4.979
36332SOL    HW111003  14.798   3.615   4.938
36332SOL    HW211004   3.689   3.633   5.071
36333SOL     OW11005   4.213   8.812  -1.008
36333SOL    HW111006   4.270   8.748  10.075
36333SOL    HW211007  15.244   8.883  10.095
36334SOL     OW11008   2.633   9.513   8.904
36334SOL    HW111009  -8.407  20.564   8.999
36334SOL    HW211010   2.547   9.476  -2.156
36335SOL     OW11011   2.645   1.577   7.710
36335SOL    HW111012   2.627   1.639 -14.299
36335SOL    HW211013   2.675   1.498   7.754
36336SOL     OW11014   6.475   8.956   5.471
36336SOL    HW111015   6.395   8.996  16.477
36336SOL    HW211016  17.568   9.030   5.500
36337SOL     OW11017   8.118   6.499   5.977
36337SOL    HW111018   8.042   6.538   6.021
36337SOL    HW211019  19.230  -4.524   6.037
36338SOL     OW11020   8.563   2.559   0.051
36338SOL    HW111021   8.473   2.551   0.082
36338SOL    HW211022  19.598  -8.421  11.017
36339SOL     OW11023   9.000   6.771   9.257
36339SOL    HW111024  -2.093   6.694   9.272
36339SOL    HW211025 -13.065   6.808   9.344
36340SOL     OW11026   9.975   2.063   1.694
36340SOL    HW111027   9.992  13.057   1.777
36340SOL    HW211028   9.880   2.064  12.726
36341SOL     OW11029   7.416   5.963  10.602
36341SOL    HW111030   7.448  -5.032  10.680
36341SOL    HW211031   7.428 -27.249  10.620
36342SOL     OW11032   6.724   5.445   2.540
36342SOL    HW111033   6.673   5.488   2.609
36342SOL    HW211034  -4.240  -5.537   2.528
36343SOL     OW11035   0.656   4.370   2.815
36343SOL    HW111036   0.604   4.431   2.867
36343SOL    HW211037   0.652   4.287   2.864
36344SOL     OW11038   5.396   1.143   6.233
36344SOL    HW111039  27.472  12.126  -4.729
36344SOL    HW211040   5.415  -9.956   6.161
36345SOL     OW11041   8.405   8.180   6.267
36345SOL    HW111042   8.438  -2.813  28.269
36345SOL    HW211043  30.426  30.192   6.233
36346SOL     OW11044   3.004   1.818   9.482
36346SOL    HW111045  25.086   1.891   9.420
36346SOL    HW211046 -19.077   1.860   9.568
36347SOL     OW11047  10.430   1.926   8.055
36347SOL    HW111048  32.595  23.979   8.022
36347SOL    HW211049 -11.631  13.044   8.107
36348SOL     OW11050   2.640  -0.493   7.819
36348SOL    HW111051 -30.503  10.462 -14.298
36348SOL    HW211052  -8.353  10.525  -3.140
36349SOL     OW11053   5.095   8.408   4.534
36349SOL    HW111054  16.100   8.320   4.545
36349SOL    HW211055  38.212   8.446   4.621
36350SOL     OW11056   5.962  10.799   1.886
36350SOL    HW111057   5.948  -0.149  -9.174
36350SOL    HW211058   6.053  10.782   1.862
36351SOL     OW11059   2.553   4.949   0.111
36351SOL    HW111060 -19.459   5.018  11.151
36351SOL    HW211061   2.602   4.868   0.125
36352SOL     OW11062   9.809   8.640   4.884
36352SOL    HW111063   9.832   8.614 -17.106
36352SOL    HW211064  20.927  19.662   4.832
36353SOL     OW11065   5.612  10.072   0.010
36353SOL    HW111066   5.590   9.980  11.034
36353SOL    HW211067   5.685  10.068   0.072
36354SOL     OW11068   7.856   2.827   1.034
36354SOL    HW111069   7.946 -19.257   1.000
36354SOL    HW211070   7.842   2.920   1.052
36355SOL     OW11071  10.041   0.393   7.733
36355SOL    HW111072   9.999   0.319  -3.350
36355SOL    HW211073  -1.051   0.407  -3.228
36356SOL     OW11074   4.496   7.248   4.920
36356SOL    HW111075   4.431   7.298  26.948
36356SOL    HW211076   4.445  40.299  27.043
36357SOL     OW11077   2.795   3.143  10.758
36357SOL    HW111078  -8.268   3.110  10.845
36357SOL    HW211079 -30.407   3.171  10.720
36358SOL     OW11080   7.650   1.682   9.813
36358SOL    HW111081   7.654   1.769   9.854
36358SOL    HW211082   7.562  12.690  20.874
36359SOL     OW11083   3.262   9.017   4.496
36359SOL    HW111084   3.254 -24.048  -6.464
36359SOL    HW211085   3.202   9.058  -6.606
36360SOL     OW11086  10.054   9.949   7.043
36360SOL    HW111087   9.963   9.922   7.052
36360SOL    HW211088  10.076   9.988   7.127
36361SOL     OW11089   3.887   0.743   1.683
36361SOL    HW111090   3.923 -10.385   1.687
36361SOL    HW211091   3.820   0.745   1.751
36362SOL     OW11092   1.344   4.512   7.285
36362SOL    HW111093   1.422   4.507  29.309
36362SOL    HW211094  12.312 -17.550   7.224
36363SOL     OW11095  -0.178   8.859   1.498
36363SOL    HW111096  33.001   8.867  12.611
36363SOL    HW211097  -0.144   8.920   1.432
36364SOL     OW11098   6.636  11.823   6.710
36364SOL    HW111099  28.781  11.834   6.778
36364SOL    HW211100   6.638 -21.214  17.699
36365SOL     OW11101  10.813   7.481   8.133
36365SOL    HW111102  10.903   7.510   8.121
36365SOL    HW211103  10.817   7.419   8.206
36366SOL     OW11104   1.739  11.016   2.913
36366SOL    HW111105   1.799  11.028 -19.093
36366SOL    HW211106  -9.266  10.940  -8.173
36367SOL     OW11107   3.329   6.418   0.063
36367SOL    HW111108   3.287  17.528   0.112
36367SOL    HW211109   3.389  17.502   0.003
36368SOL     OW11110   5.054   0.911   9.247
36368SOL    HW111111   5.147   0.931  31.331
36368SOL    HW211112  16.050   0.989   9.282
36369SOL     OW11113   3.919   7.480  -0.173
36369SOL    HW111114   3.835  29.571  21.863
36369SOL    HW211115  15.018   7.539  21.860
36370SOL     OW11116  10.163   6.497   0.577
36370SOL    HW111117  -0.893  -4.619  44.791
36370SOL    HW211118  10.190   6.460  22.573
36371SOL     OW11119   2.662   4.004   2.276
36371SOL    HW111120   2.610   4.050   2.209
36371SOL    HW211121   2.600   3.988   2.347
36372SOL     OW11122   7.665   3.167   9.555
36372SOL    HW111123   7.584   3.117   9.567
36372SOL    HW211124   7.672   3.179   9.460
36373SOL     OW11125   7.475  10.683   4.087
36373SOL    HW111126   7.437  10.688  15.214
36373SOL    HW211127   7.526  10.602 -17.991
36374SOL     OW11128   8.465   9.318   4.313
36374SOL    HW111129   8.374   9.310 -17.740
36374SOL    HW211130   8.484  -1.801   4.264
36375SOL     OW11131  10.775   4.027   1.480
36375SOL    HW111132  10.794   4.024   1.574
36375SOL    HW211133  10.783   3.936   1.451
36376SOL     OW11134   4.718   5.265   9.611
36376SOL    HW111135  15.713  16.260   9.539
36376SOL    HW211136   4.652   5.324   9.647
36377SOL     OW11137   4.442   4.712   2.960
36377SOL    HW111138   4.408   4.638   3.011
36377SOL    HW211139   4.482   4.672   2.883
36378SOL     OW11140   9.169   7.155   9.968
36378SOL    HW111141   9.132   7.111  -1.148
36378SOL    HW211142   9.221   7.226  -1.109
36379SOL     OW11143   1.200   6.470   9.479
36379SOL    HW111144   1.270 -15.644   9.534
36379SOL    HW211145   1.187  17.599   9.511
36380SOL     OW11146   8.803   7.275   1.310
36380SOL    HW111147   8.866   7.328   1.358
36380SOL    HW211148   8.765  -3.822  12.417
36381SOL     OW11149  10.815   5.695   0.756
36381SOL    HW111150  10.886  -5.404   0.734
36381SOL    HW211151  10.821   5.765   0.691
36382SOL     OW11152  10.934   9.318   3.988
36382SOL    HW111153  10.950   9.336   4.081
36382SOL    HW211154  10.879   9.240   3.988
36383SOL     OW11155   4.016   9.636   1.605
36383SOL    HW111156   4.090   9.695 -20.463
36383SOL    HW211157   4.046  20.612   1.540
36384SOL     OW11158   8.977   7.316  10.708
36384SOL    HW111159  -2.042   7.357  -0.415
36384SOL    HW211160   8.995   7.223  21.734
36385SOL     OW11161   7.580   9.209   4.956
36385SOL    HW111162  -3.504   9.180   4.876
36385SOL    HW211163  -3.395   9.273   4.926
36386SOL     OW11164   9.249   9.598   1.412
36386SOL    HW111165  -1.768   9.506   1.402
36386SOL    HW211166   9.231   9.629  45.482
36387SOL     OW11167   2.129   2.085   0.433
36387SOL    HW111168   2.130   2.014   0.497
36387SOL    HW211169  13.251   2.130  22.526
36388SOL     OW11170   6.434  10.565   8.127
36388SOL    HW111171   6.416  10.639   8.185
36388SOL    HW211172   6.425  -0.552   8.183
36389SOL     OW11173   6.930   6.942   2.180
36389SOL    HW111174  -4.139   7.032   2.194
36389SOL    HW211175   6.986   6.946   2.103
36390SOL     OW11176   3.165   6.444   0.873
36390SOL    HW111177   3.141   6.376 -10.103
36390SOL    HW211178   3.198   6.516   0.927
36391SOL     OW11179   6.693   1.071   8.886
36391SOL    HW111180   6.670  12.162   8.964
36391SOL    HW211181  17.781   0.996   8.920
36392SOL     OW11182   9.075   7.415   8.341
36392SOL    HW111183 -13.019   7.443   8.251
36392SOL    HW211184   9.088   7.320   8.334
36393SOL     OW11185   7.893   8.506   0.101
36393SOL    HW111186   7.867   8.431   0.154
36393SOL    HW211187   7.830  -2.464   0.125
36394SOL     OW11188  -0.690   0.798   4.917
36394SOL    HW111189  10.329   0.706  15.973
36394SOL    HW211190  21.395   0.805  26.901
36395SOL     OW11191   1.890   2.721   5.334
36395SOL    HW111192  -9.101   2.714  -5.787
36395SOL    HW211193   1.838   2.641   5.338
36396SOL     OW11194   8.686   1.222   3.257
36396SOL    HW111195  19.794  23.252  25.381
36396SOL    HW211196   8.656   1.286  -7.718
36397SOL     OW11197   0.615   5.586  11.521
36397SOL    HW111198   0.550  -5.419   0.420
36397SOL    HW211199   0.594   5.493  11.529
36398SOL     OW11200   9.488   5.306   7.579
36398SOL    HW111201  20.551  27.460   7.525
36398SOL    HW211202  20.583  -5.805  18.587
36399SOL     OW11203   2.993   6.836   6.957
36399SOL    HW111204  13.952   6.786  -4.077
36399SOL    HW211205   3.008  17.886   6.863
36400SOL     OW11206   8.921   6.530   9.463
36400SOL    HW111207 -13.239   6.520   9.513
36400SOL    HW211208  42.104  -4.479   9.526
36401SOL     OW11209   2.177   1.731   4.184
36401SOL    HW111210   2.188   1.696   4.095
36401SOL    HW211211   2.263   1.721  48.383
36402SOL     OW11212   1.072  10.713   1.873
36402SOL    HW111213  12.033  10.767   1.886
36402SOL    HW211214  12.088  10.627   1.907
36403SOL     OW11215   1.587   1.743   5.724
36403SOL    HW111216   1.660  12.843   5.731
36403SOL    HW211217   1.547   1.743  -5.229
36404SOL     OW11218   0.218   7.256   3.596
36404SOL    HW111219  11.198  18.266   3.527
36404SOL    HW211220   0.214   7.352   3.591
36405SOL     OW11221   1.139   6.381   5.554
36405SOL    HW111222   1.181   6.340  38.748
36405SOL    HW211223   1.211   6.400  16.533
36406SOL     OW11224   8.685   8.522   5.392
36406SOL    HW111225  19.704   8.559   5.478
36406SOL    HW211226   8.634  19.615 -16.749
36407SOL     OW11227   7.477   0.450   3.027
36407SOL    HW111228  -3.540  11.427  -7.943
36407SOL    HW211229  -3.594   0.527  -7.965
36408SOL     OW11230   3.020  -0.991   4.742
36408SOL    HW111231   2.960  10.089  15.718
36408SOL    HW211232  -7.993  21.161  48.957
36409SOL     OW11233   8.929  10.997   1.618
36409SOL    HW111234   9.012  10.950   1.628
36409SOL    HW211235   8.954  11.081  12.618
36410SOL     OW11236   3.512   1.417   1.571
36410SOL    HW111237   3.503  23.450  12.694
36410SOL    HW211238   3.440  -9.560   1.570
36411SOL     OW11239   9.234   6.609   5.972
36411SOL    HW111240   9.252   6.647 -16.021
36411SOL    HW211241   9.312  28.635   5.953
36412SOL     OW11242   5.695   8.240   4.452
36412SOL    HW111243   5.755   8.191   4.509
36412SOL    HW211244  -5.421   8.184  -6.596
36413SOL     OW11245   2.489   3.782  -2.255
36413SOL    HW111246   2.553   3.720  19.860
36413SOL    HW211247  24.510   3.802  19.897
36414SOL     OW11248   8.403   8.325   1.162
36414SOL    HW111249  19.483  -2.712   1.075
36414SOL    HW211250 -13.732  41.521  -9.874
36415SOL     OW11251  10.272  -0.328   9.366
36415SOL    HW111252  10.338  -0.322   9.297
36415SOL    HW211253  10.189  10.702   9.319
36416SOL     OW11254  10.966   5.490   0.242
36416SOL    HW111255  10.966  16.530  44.305
36416SOL    HW211256  10.875   5.502   0.267
36417SOL     OW11257   0.717  -1.301   9.855
36417SOL    HW111258   0.720  31.898   9.907
36417SOL    HW211259   0.693  20.808   9.767
36418SOL     OW11260   9.789   4.592  10.269
36418SOL    HW111261   9.713 -17.543 -22.833
36418SOL    HW211262  31.942   4.532  10.268
36419SOL     OW11263  10.216   0.174   6.821
36419SOL    HW111264  10.161  11.187   6.747
36419SOL    HW211265  21.266 -10.945   6.873
36420SOL     OW11266   5.450   1.713   7.078
36420SOL    HW111267   5.394  -9.265  18.071
36420SOL    HW211268   5.534   1.718   7.032
36421SOL     OW11269   2.920   4.564   7.406
36421SOL    HW111270 -30.229  -6.532   7.334
36421SOL    HW211271   2.974   4.506   7.460
36422SOL     OW11272   4.626   4.827   7.371
36422SOL    HW111273   4.637   4.732   7.373
36422SOL    HW211274   4.583   4.844   7.287
36423SOL     OW11275   1.206   1.872   7.052
36423SOL    HW111276  -9.787  35.067  18.125
36423SOL    HW211277  23.256  23.904   7.131
36424SOL     OW11278   5.504   4.191   0.815
36424SOL    HW111279   5.505   4.135   0.738
36424SOL    HW211280   5.431   4.251 -10.239
36425SOL     OW11281   7.823   5.861   1.495
36425SOL    HW111282   7.783  27.853   1.500
36425SOL    HW211283  40.891   5.914  23.635
36426SOL     OW11284   8.160   1.828   1.579
36426SOL    HW111285   8.251  12.840   1.589
36426SOL    HW211286   8.113  12.820  -9.393
36427SOL     OW11287   1.189   3.757   8.908
36427SOL    HW111288   1.148  14.793  -2.046
36427SOL    HW211289   1.172  14.710   8.870
36428SOL     OW11290   6.935   7.546  10.346
36428SOL    HW111291   6.898   7.520  10.262
36428SOL    HW211292   6.945   7.464  10.394
36429SOL     OW11293   0.383   8.837   6.283
36429SOL    HW111294  22.510   8.825   6.365
36429SOL    HW211295   0.447   8.817   6.215
36430SOL     OW11296   3.698  10.828   3.280
36430SOL    HW111297   3.759  -0.137 -18.794
36430SOL    HW211298  14.768 -11.302 -18.873
36431SOL     OW11299  10.111   0.098   5.700
36431SOL    HW111300 -11.979   0.069   5.791
36431SOL    HW211301  10.029   0.075   5.657
36432SOL     OW11302   8.188   1.098   1.673
36432SOL    HW111303  -2.920 -10.005  12.733
36432SOL    HW211304   8.225   1.122   1.759
36433SOL     OW11305   1.195   7.124   1.699
36433SOL    HW111306   1.286   7.096   1.705
36433SOL    HW211307  -9.874 -14.986  -9.426
36434SOL     OW11308   1.987   9.069  11.313
36434SOL    HW111309   1.946   8.985 -10.787
36434SOL    HW211310  -9.110  42.253  11.272
36435SOL     OW11311   3.644   1.077   7.974
36435SOL    HW111312  14.761   1.132 -14.091
36435SOL    HW211313   3.670   1.016   7.906
36436SOL     OW11314   7.849   6.067   8.592
36436SOL    HW111315   7.892  28.190  -2.374
36436SOL    HW211316   7.874   6.117   8.515
36437SOL     OW11317   7.717  10.280   3.292
36437SOL    HW111318   7.626  10.274   3.262
36437SOL    HW211319   7.768  -0.761   3.211
36438SOL     OW11320  10.954   9.081   7.574
36438SOL    HW111321  10.871   9.074  18.661
36438SOL    HW211322  11.017   9.108  -3.399
36439SOL     OW11323   3.973   2.909   8.858
36439SOL    HW111324   4.050   2.899  19.843
36439SOL    HW211325   4.004   2.891   8.947
36440SOL     OW11326   9.712   6.488  11.030
36440SOL    HW111327   9.672   6.569  11.000
36440SOL    HW211328   9.805   6.509  11.041
36441SOL     OW11329   4.331   3.750   8.118
36441SOL    HW111330   4.300   3.796   8.196
36441SOL    HW211331  -6.690   3.661  19.189
36442SOL     OW11332   1.078   9.722   6.403
36442SOL    HW111333  -9.998  -1.229   6.404
36442SOL    HW211334   1.049  -1.356   6.485
36443SOL     OW11335   6.859  10.770  10.037
36443SOL    HW111336   6.838  10.862  10.020
36443SOL    HW211337   6.777  10.723  10.021
36444SOL     OW11338   6.975  11.646   9.905
36444SOL    HW111339   6.901 -10.377   9.882
36444SOL    HW211340   6.964  11.630   9.999
36445SOL     OW11341  11.091   4.247   3.607
36445SOL    HW111342 -32.992   4.237   3.666
36445SOL    HW211343   0.069   4.184 -18.543
36446SOL     OW11344   2.793   9.234   3.337
36446SOL    HW111345   2.876   9.187   3.351
36446SOL    HW211346   2.727  -1.875   3.333
36447SOL     OW11347   7.940   1.591   2.760
36447SOL    HW111348   7.883   1.661   2.728
36447SOL    HW211349   7.891  12.550   2.741
36448SOL     OW11350   4.653   4.457   7.710
36448SOL    HW111351   4.585  15.506   7.643
36448SOL    HW211352   4.735   4.452   7.660
36449SOL     OW11353  10.253   2.717   7.553
36449SOL    HW111354  10.237   2.666   7.473
36449SOL    HW211355  -0.740   2.657 -14.468
36450SOL     OW11356   7.469  -0.124   5.323
36450SOL    HW111357   7.478  10.976   5.249
36450SOL    HW211358 -14.704  10.906   5.335
36451SOL     OW11359   1.135   7.071   2.596
36451SOL    HW111360   1.129 -15.101   2.572
36451SOL    HW211361   1.229   7.089   2.600
36452SOL     OW11362   3.858   3.433   5.227
36452SOL    HW111363   3.795   3.504  -5.801
36452SOL    HW211364   3.817  14.397   5.269
36453SOL     OW11365   5.395   0.173   5.804
36453SOL    HW111366  16.496  11.265   5.855
36453SOL    HW211367   5.444   0.148   5.726
36454SOL     OW11368   9.193   6.921  -0.174
36454SOL    HW111369  -1.819  18.041  -0.218
36454SOL    HW211370 -34.931   6.931  21.995
36455SOL     OW11371   9.427   6.923   4.678
36455SOL    HW111372  20.417   6.971   4.743
36455SOL    HW211373   9.383   6.839   4.670
36456SOL     OW11374   6.750  11.023   9.999
36456SOL    HW111375   6.753  11.087   9.928
36456SOL    HW211376   6.690  10.956   9.967
36457SOL     OW11377   7.812   0.142   2.905
36457SOL    HW111378 -25.263   0.110   2.826
36457SOL    HW211379  -3.290   0.073  -8.112
36458SOL     OW11380   8.815   3.607   1.815
36458SOL    HW111381   8.735  -7.450   1.865
36458SOL    HW211382  -2.177   3.524   1.814
36459SOL     OW11383   3.141   8.167   0.642
36459SOL    HW111384   3.084   8.143   0.568
36459SOL    HW211385   3.198  30.170   0.653
36460SOL     OW11386   1.657   4.278   4.755
36460SOL    HW111387   1.686   4.207   4.812
36460SOL    HW211388   1.562 -17.800   4.763
36461SOL     OW11389   8.605   8.913  10.460
36461SOL    HW111390  19.604   8.873  -0.503
36461SOL    HW211391  -2.485  -2.047  -0.595
36462SOL     OW11392  10.198   6.181   9.867
36462SOL    HW111393  10.178   6.112   9.931
36462SOL    HW211394  10.204 -15.944   9.784
36463SOL     OW11395   5.490  10.087   5.018
36463SOL    HW111396   5.400  10.118   5.025
36463SOL    HW211397   5.537  10.137   5.085
36464SOL     OW11398  -0.483   3.944   1.849
36464SOL    HW111399  10.489 -29.123   1.805
36464SOL    HW211400  -0.504   3.951   1.942
36465SOL     OW11401   1.750   4.431   7.936
36465SOL    HW111402   1.825   4.465  41.104
36465SOL    HW211403  -9.301   4.342   7.970
36466SOL     OW11404   9.900   2.733   1.355
36466SOL    HW111405   9.847   2.703   1.429
36466SOL    HW211406  -1.072  13.705   1.345
36467SOL     OW11407   9.176   3.720   1.803
36467SOL    HW111408   9.105   3.685   1.856
36467SOL    HW211409   9.255   3.676   1.836
36468SOL     OW11410   8.703   3.298   1.374
36468SOL    HW111411  -2.420   3.252   1.380
36468SOL    HW211412  -2.313   3.318   1.465
36469SOL     OW11413   0.149   3.110   6.795
36469SOL    HW111414   0.230  -7.955   6.839
36469SOL    HW211415   0.100   3.029   6.787
36470SOL     OW11416   5.386   8.046   3.603
36470SOL    HW111417   5.333  19.129   3.535
36470SOL    HW211418  -5.717  -3.019  14.709
36471SOL     OW11419   7.505   9.936   3.135
36471SOL    HW111420   7.466  -1.030  14.128
36471SOL    HW211421   7.481  -1.090  25.305
36472SOL     OW11422  10.658   4.203  10.207
36472SOL    HW111423  10.646  15.263  10.114
36472SOL    HW211424  -0.410   4.283  21.291
36473SOL     OW11425   1.183   6.122   4.646
36473SOL    HW111426  12.148   6.168   4.686
36473SOL    HW211427   1.223  -4.966   4.718
36474SOL     OW11428   6.508   3.606   7.533
36474SOL    HW111429   6.445  14.635  -3.577
36474SOL    HW211430  17.495   3.603  29.692
36475SOL     OW11431   0.271   4.804   0.807
36475SOL    HW111432   0.196 -28.323   0.748
36475SOL    HW211433   0.303  -6.146  11.833
36476SOL     OW11434   5.648   2.555   6.942
36476SOL    HW111435   5.688   2.512  -4.174
36476SOL    HW211436   5.693   2.517  -4.023
36477SOL     OW11437   1.287   3.805  -1.522
36477SOL    HW111438  -9.794  36.937  31.681
36477SOL    HW211439   1.317  14.753  -1.521
36478SOL     OW11440   5.574   7.085   4.492
36478SOL    HW111441   5.590   7.173   4.458
36478SOL    HW211442   5.518   7.098  -6.471
36479SOL     OW11443   5.825   5.424  11.139
36479SOL    HW111444   5.853  -5.693   0.050
36479SOL    HW211445   5.739 -16.634   0.063
36480SOL     OW11446   1.936   9.305   4.992
36480SOL    HW111447   1.879   9.272   5.062
36480SOL    HW211448   1.878   9.358  15.977
36481SOL     OW11449   1.966  -0.265  -0.452
36481SOL    HW111450   1.925  32.910  -0.518
36481SOL    HW211451   1.938  32.765  10.565
36482SOL     OW11452   6.056   7.219   1.143
36482SOL    HW111453   6.133   7.212   1.086
36482SOL    HW211454   5.982   7.202  12.125
36483SOL     OW11455   6.142   7.628   8.810
36483SOL    HW111456   6.149   7.539 -13.234
36483SOL    HW211457  -4.888  -3.355  -2.152
36484SOL     OW11458   4.914   9.435   9.928
36484SOL    HW111459   4.854  20.407   9.899
36484SOL    HW211460   4.995 -12.661  20.920
36485SOL     OW11461   1.158   8.879  11.117
36485SOL    HW111462   1.252   8.895  11.111
36485SOL    HW211463   1.118   8.956 -22.042
36486SOL     OW11464   2.553   6.648   2.663
36486SOL    HW111465   2.500   6.717   2.623
36486SOL    HW211466  -8.536 -15.457 -30.378
36487SOL     OW11467   1.463   5.779   8.781
36487SOL    HW111468   1.479   5.716 -13.228
36487SOL    HW211469 -20.532  16.862   8.767
36488SOL     OW11470  11.788  10.270   3.982
36488SOL    HW111471   0.660  10.257   3.948
36488SOL    HW211472   0.746  10.231   4.070
36489SOL     OW11473   8.665   4.041   1.989
36489SOL    HW111474   8.660  15.169   1.952
36489SOL    HW211475   8.756   4.014   1.973
36490SOL     OW11476  11.503   3.813  10.653
36490SOL    HW111477  11.539   3.734 -11.467
36490SOL    HW211478   0.445  14.911  10.579
36491SOL     OW11479  10.975   0.001   8.218
36491SOL    HW111480  10.923  -0.068  -2.865
36491SOL    HW211481  10.910  11.107 -13.837
36492SOL     OW11482   5.570  -0.921   9.237
36492SOL    HW111483   5.555  -1.006  -1.761
36492SOL    HW211484   5.664  21.161  -1.820
36493SOL     OW11485   1.585   4.225   3.717
36493SOL    HW111486   1.677   4.249   3.722
36493SOL    HW211487  12.610  -6.871   3.793
36494SOL     OW11488   5.031   3.120   7.722
36494SOL    HW111489  -6.016   3.214   7.739
36494SOL    HW211490   5.066   3.114  -3.407
36495SOL     OW11491   2.564   5.522   9.450
36495SOL    HW111492   2.608  -5.450  -1.537
36495SOL    HW211493   2.507  16.517  20.552
36496SOL     OW11494   2.812   8.436   4.031
36496SOL    HW111495   2.789   8.521   4.067
36496SOL    HW211496  35.968  19.427  -6.935
36497SOL     OW11497   0.938   3.427   6.810
36497SOL    HW111498   0.952  25.494   6.716
36497SOL    HW211499   0.917   3.520   6.819
36498SOL     OW11500  -0.528   5.176   5.118
36498SOL    HW111501  -0.598  -5.929   5.121
36498SOL    HW211502  10.555   5.168   5.202
36499SOL     OW11503   6.682   8.844   1.147
36499SOL    HW111504   6.732   8.765  -9.910
36499SOL    HW211505   6.708   8.870   1.236
36500SOL     OW11506   1.895   6.977   3.961
36500SOL    HW111507 -20.132   6.976   3.881
36500SOL    HW211508   1.864  17.927   3.970
36501SOL     OW11509   8.139  10.194   2.140
36501SOL    HW111510   8.175  10.135  24.153
36501SOL    HW211511   8.215  10.225   2.189
36502SOL     OW11512   7.692   5.046   1.808
36502SOL    HW111513 -25.498   4.984   1.823
36502SOL    HW211514 -36.506  27.211   1.823
36503SOL     OW11515   9.071   5.381   2.743
36503SOL    HW111516   8.990   5.429  -8.315
36503SOL    HW211517   9.057   5.294   2.706
36504SOL     OW11518   8.044   8.068   6.434
36504SOL    HW111519 -14.079  -2.887  -4.595
36504SOL    HW211520   8.130   8.080   6.474
36505SOL     OW11521   8.566   6.484   1.170
36505SOL    HW111522   8.582   6.462   1.078
36505SOL    HW211523   8.573   6.401   1.217
36506SOL     OW11524   6.760   1.334  10.317
36506SOL    HW111525   6.779   1.303  -0.811
36506SOL    HW211526   6.842   1.375  -0.693
36507SOL     OW11527   6.226   3.047   7.174
36507SOL    HW111528  17.216   3.093   7.241
36507SOL    HW211529   6.204  25.033  40.305
36508SOL     OW11530   1.732   9.438   3.939
36508SOL    HW111531  23.799 -12.602   3.853
36508SOL    HW211532   1.750  -1.694   3.922
36509SOL     OW11533   2.945   1.392   1.840
36509SOL    HW111534  36.016   1.314 -20.210
36509SOL    HW211535   2.958   1.443   1.919
36510SOL     OW11536   9.097   7.907   1.407
36510SOL    HW111537   9.112   7.940   1.496
36510SOL    HW211538  -2.004   7.971   1.368
36511SOL     OW11539   4.451   9.738  -0.448
36511SOL    HW111540   4.378   9.771  10.644
36511SOL    HW211541  26.501   9.747  -0.539
36512SOL     OW11542   2.008   8.967   0.663
36512SOL    HW111543   1.917   8.955   0.636
36512SOL    HW211544   2.035   9.048  33.738
36513SOL     OW11545   4.861   4.116   9.761
36513SOL    HW111546 -17.202   4.021  20.801
36513SOL    HW211547   4.802   4.131   9.835
36514SOL     OW11548   5.130   7.835  10.794
36514SOL    HW111549  16.165   7.863  -0.337
36514SOL    HW211550   5.186   7.900  10.837
36515SOL     OW11551   8.589   2.924   5.822
36515SOL    HW111552   8.660   2.969   5.868
36515SOL    HW211553   8.607   2.831   5.835
36516SOL     OW11554   8.237  11.338   8.201
36516SOL    HW111555   8.258   0.231  19.305
36516SOL    HW211556  19.274  11.291   8.118
36517SOL     OW11557   4.285   7.463   2.520
36517SOL    HW111558   4.218   7.421   2.574
36517SOL    HW211559   4.284  18.452   2.439
36518SOL     OW11560   5.812   7.654   4.470
36518SOL    HW111561  -5.284   7.589 -17.652
36518SOL    HW211562 -27.314  18.673  -6.476
36519SOL     OW11563   6.706   8.819   0.516
36519SOL    HW111564   6.779   8.871   0.483
36519SOL    HW211565   6.727   8.804   0.608
36520SOL     OW11566   3.803   6.163   3.391
36520SOL    HW111567   3.836   6.073   3.390
36520SOL    HW211568  14.811   6.177   3.480
36521SOL     OW11569  11.238   7.798   9.726
36521SOL    HW111570  11.271  29.833   9.805
36521SOL    HW211571   0.129  29.934  20.797
36522SOL     OW11572  -0.054  11.552  10.238
36522SOL    HW111573  11.060  11.522  10.186
36522SOL    HW211574  -0.100   0.433  10.263
36523SOL     OW11575   6.623  10.124   9.640
36523SOL    HW111576   6.630  21.239   9.699
36523SOL    HW211577   6.688  10.062   9.673
36524SOL     OW11578   5.522   8.183   6.840
36524SOL    HW111579   5.496   8.197  40.049
36524SOL    HW211580   5.601  19.276  -4.211
36525SOL     OW11581  11.910   0.963  10.996
36525SOL    HW111582 -32.225   0.941  11.086
36525SOL    HW211583   0.953   0.958  10.948
36526SOL     OW11584   2.811   6.568   8.756
36526SOL    HW111585  13.825   6.477   8.772
36526SOL    HW211586  13.810   6.617   8.828
36527SOL     OW11587   3.776   7.519   2.583
36527SOL    HW111588  14.887   7.514   2.646
36527SOL    HW211589  14.752 -14.626  46.771
36528SOL     OW11590   3.436   2.744   9.629
36528SOL    HW111591  25.493   2.783   9.713
36528SOL    HW211592   3.467  -8.223   9.575
36529SOL     OW11593   3.517   3.669   8.848
36529SOL    HW111594  -7.567   3.750   8.873
36529SOL    HW211595   3.608   3.695   8.834
36530SOL     OW11596   4.346   7.051   5.009
36530SOL    HW111597  26.340  40.169  -6.074
36530SOL    HW211598   4.385  29.045   4.988
36531SOL     OW11599   1.666   1.244   3.499
36531SOL    HW111600   1.593 -20.827  -7.602
36531SOL    HW211601   1.634   1.287   3.579
36532SOL     OW11602  10.275   6.748   2.619
36532SOL    HW111603 -11.826   6.710   2.534
36532SOL    HW211604  10.286   6.841  13.641
36533SOL     OW11605   3.560   1.305   7.229
36533SOL    HW111606   3.527  12.358   7.140
36533SOL    HW211607   3.528  -9.822  -3.786
36534SOL     OW11608   4.269  11.456   8.439
36534SOL    HW111609   4.245 -10.630   8.347
36534SOL    HW211610  -6.799   0.505   8.464
36535SOL     OW11611  10.481   1.046   5.986
36535SOL    HW111612  10.572  12.109 -27.148
36535SOL    HW211613  10.470  23.131 -38.077
36536SOL     OW11614   8.465   2.572   2.708
36536SOL    HW111615   8.497   2.661   2.723
36536SOL    HW211616   8.370   2.580   2.716
36537SOL     OW11617   8.565   9.072   0.679
36537SOL    HW111618   8.494   9.114   0.726
36537SOL    HW211619 -13.435  -1.932   0.719
36538SOL     OW11620  10.635   3.994   7.368
36538SOL    HW111621  10.579  37.068   7.431
36538SOL    HW211622  10.722   3.994   7.409
36539SOL     OW11623   2.905   4.851   9.816
36539SOL    HW111624   2.930  -6.097   9.811
36539SOL    HW211625  -8.052  15.842   9.812
36540SOL     OW11626   1.965  10.223   6.449
36540SOL    HW111627   1.972  -0.733   6.497
36540SOL    HW211628   1.951  -0.882   6.518
36541SOL     OW11629   4.811   1.930   1.505
36541SOL    HW111630  -6.276  -9.057   1.570
36541SOL    HW211631   4.769   1.951  12.461
36542SOL     OW11632   0.456   7.894   1.975
36542SOL    HW111633   0.490   7.836   2.043
36542SOL    HW211634   0.362   7.875   1.972
36543SOL     OW11635   6.835  10.288   2.716
36543SOL    HW111636  17.877  10.213   2.776
36543SOL    HW211637   6.792  -0.682   2.766
36544SOL     OW11638   2.722   4.002   8.934
36544SOL    HW111639   2.770   3.981   8.854
36544SOL    HW211640  24.713   4.025   8.903
36545SOL     OW11641   6.666   1.993   6.475
36545SOL    HW111642  17.642   2.000   6.546
36545SOL    HW211643   6.618  -9.020   6.396
36546SOL     OW11644   6.946   9.367   0.894
36546SOL    HW111645  -4.064   9.433   0.956
36546SOL    HW211646   6.952 -12.670  11.848
36547SOL     OW11647   6.158   7.405  10.086
36547SOL    HW111648  17.278   7.406  21.176
36547SOL    HW211649   6.155  -3.548  10.045
36548SOL     OW11650   6.209  -0.311   1.345
36548SOL    HW111651   6.161  21.734   1.420
36548SOL    HW211652  17.232  -0.217   1.347
36549SOL     OW11653   6.419   8.512  10.435
36549SOL    HW111654   6.512  52.671  10.459
36549SOL    HW211655  -4.620   8.506  10.339
36550SOL     OW11656   1.509   1.219   5.923
36550SOL    HW111657  -9.568   1.203   5.837
36550SOL    HW211658   1.468   1.301   5.952
36551SOL     OW11659   9.370   9.589   7.477
36551SOL    HW111660   9.414  20.651 -14.685
36551SOL    HW211661  -1.762   9.585  18.494
36552SOL     OW11662   6.130   1.135   0.968
36552SOL    HW111663  50.279   1.223   1.006
36552SOL    HW211664  28.127   1.121   0.921
36553SOL     OW11665  10.813  10.126   7.475
36553SOL    HW111666  10.795  21.159   7.381
36553SOL    HW211667  10.727  10.130   7.516
36554SOL     OW11668   3.006   4.714   5.723
36554SOL    HW111669   2.986  -6.286   5.808
36554SOL    HW211670   3.028   4.789   5.667
36555SOL     OW11671   9.107   4.507   0.355
36555SOL    HW111672  31.177   4.435   0.417
36555SOL    HW211673   9.058   4.580   0.395
36556SOL     OW11674   3.974   3.921   2.119
36556SOL    HW111675 -18.163   3.912   2.043
36556SOL    HW211676 -29.104   4.007   2.107
36557SOL     OW11677   3.390   1.061   8.066
36557SOL    HW111678   3.481   1.048  19.079
36557SOL    HW211679   3.388   1.037   8.159
36558SOL     OW11680   9.482   4.754   2.794
36558SOL    HW111681   9.451 -28.292   2.848
36558SOL    HW211682  20.499   4.779  13.744
36559SOL     OW11683   1.928  10.403   9.930
36559SOL    HW111684  -9.187  10.346  -1.128
36559SOL    HW211685   1.998  10.369   9.876
36560SOL     OW11686  -0.138   0.172   6.496
36560SOL    HW111687  55.031   0.258   6.467
36560SOL    HW211688  -0.086  11.177  -4.617
36561SOL     OW11689   7.899   9.769   5.908
36561SOL    HW111690  18.850   9.761   5.873
36561SOL    HW211691 -14.123  20.792   5.833
36562SOL     OW11692   4.122   8.261   0.542
36562SOL    HW111693   4.039   8.217  11.603
36562SOL    HW211694   4.173  19.294   0.623
36563SOL     OW11695   0.784   6.080   2.206
36563SOL    HW111696   0.727   6.027   2.151
36563SOL    HW211697   0.863   6.092   2.153
36564SOL     OW11698   2.623   0.542   6.529
36564SOL    HW111699   2.653   0.600   6.460
36564SOL    HW211700   2.575   0.473   6.483
36565SOL     OW11701  -1.979  11.507   1.769
36565SOL    HW111702  42.233 -10.605   1.697
36565SOL    HW211703  -1.917  11.537   1.835
36566SOL     OW11704   4.561  10.278   4.448
36566SOL    HW111705   4.587  21.226   4.443
36566SOL    HW211706   4.643  10.326   4.457
36567SOL     OW11707   0.429   0.964   5.820
36567SOL    HW111708  11.443   1.046 -16.301
36567SOL    HW211709  11.401   0.948   5.885
36568SOL     OW11710   7.603   1.557   5.041
36568SOL    HW111711   7.538   1.570   4.971
36568SOL    HW211712   7.625  12.686   5.070
36569SOL     OW11713   4.875   7.617   6.468
36569SOL    HW111714   4.854   7.623   6.375
36569SOL    HW211715 -28.326   7.634   6.513
36570SOL     OW11716   3.361   6.231   9.055
36570SOL    HW111717   3.409  -4.887   9.028
36570SOL    HW211718  -7.771 -26.911   9.044
36571SOL     OW11719   4.487   1.958   7.450
36571SOL    HW111720   4.468   2.024   7.384
36571SOL    HW211721   4.565   1.913 -25.701
36572SOL     OW11722   8.713   5.327   0.934
36572SOL    HW111723   8.648   5.374   0.883
36572SOL    HW211724  19.702   5.279   1.000
36573SOL     OW11725   6.452   7.203   3.772
36573SOL    HW111726   6.511   7.131   3.793
36573SOL    HW211727   6.428  18.228   3.680
36574SOL     OW11728   8.056   2.249  11.894
36574SOL    HW111729   8.064  13.330  11.808
36574SOL    HW211730   8.080   2.158 -32.279
36575SOL     OW11731   3.971   7.053   1.944
36575SOL    HW111732   3.893  -3.957   1.992
36575SOL    HW211733  37.093   7.110   1.867
36576SOL     OW11734  10.745  10.483   8.785
36576SOL    HW111735  -0.298  10.544 -24.261
36576SOL    HW211736  10.664  10.432   8.792
36577SOL     OW11737   4.375   0.171   2.032
36577SOL    HW111738   4.357  22.274   2.123
36577SOL    HW211739  48.449   0.143   1.997
36578SOL     OW11740   8.936   7.438   6.860
36578SOL    HW111741   8.957   7.530 -15.237
36578SOL    HW211742   9.013   7.405   6.906
36579SOL     OW11743   6.219   4.130   5.020
36579SOL    HW111744   6.181   4.177   4.946
36579SOL    HW211745   6.211   4.191  27.173
36580SOL     OW11746   7.175   3.122   9.431
36580SOL    HW111747   7.106  14.105  31.477
36580SOL    HW211748  -3.908   3.179   9.494
36581SOL     OW11749   6.731   9.755   5.574
36581SOL    HW111750   6.651   9.791   5.612
36581SOL    HW211751   6.705   9.724   5.487
36582SOL     OW11752   4.490   0.582  -1.300
36582SOL    HW111753   4.497   0.669  20.820
36582SOL    HW211754  37.550   0.595   9.665
36583SOL     OW11755   6.744   4.576   3.048
36583SOL    HW111756   6.774   4.585   3.138
36583SOL    HW211757   6.674   4.640   3.039
36584SOL     OW11758   5.720   0.598   3.460
36584SOL    HW111759   5.652  22.611  14.499
36584SOL    HW211760   5.801   0.550   3.441
36585SOL     OW11761  10.960   2.931  10.264
36585SOL    HW111762  10.974   2.959  10.173
36585SOL    HW211763  11.020   2.858  10.276
36586SOL     OW11764   4.798  11.617   8.504
36586SOL    HW111765   4.727  11.559   8.532
36586SOL    HW211766   4.834   0.613   8.585
36587SOL     OW11767   0.703   2.476  10.926
36587SOL    HW111768  22.693  -8.550  10.958
36587SOL    HW211769  11.786  -8.614  10.995
36588SOL     OW11770   6.635   8.079   9.420
36588SOL    HW111771  -4.398  19.055   9.349
36588SOL    HW211772   6.651  30.243   9.377
36589SOL     OW11773  10.228   4.287   6.919
36589SOL    HW111774  10.223   4.268  28.905
36589SOL    HW211775  21.361   4.299   6.936
36590SOL     OW11776   9.567   3.887   0.882
36590SOL    HW111777   9.608  14.841   0.873
36590SOL    HW211778  -1.400  26.026   0.901
36591SOL     OW11779   6.370   6.998  10.956
36591SOL    HW111780  17.473  18.093  -0.129
36591SOL    HW211781   6.294   7.056  10.970
36592SOL     OW11782   8.343  10.355   2.683
36592SOL    HW111783  -2.605  21.407  13.697
36592SOL    HW211784   8.339  10.385   2.773
36593SOL     OW11785   3.813   6.494   2.176
36593SOL    HW111786   3.880   6.549  13.256
36593SOL    HW211787  25.941   6.422   2.137
36594SOL     OW11788   5.054  12.666   5.396
36594SOL    HW111789  16.086 -20.357  16.430
36594SOL    HW211790   5.065 -20.481  16.345
36595SOL     OW11791   1.583  10.586  11.755
36595SOL    HW111792   1.528  10.643 -43.496
36595SOL    HW211793   1.672  10.616 -10.341
36596SOL     OW11794   8.180   4.760  10.021
36596SOL    HW111795  19.200   4.740   9.930
36596SOL    HW211796   8.272  -6.256  10.022
36597SOL     OW11797   4.414   5.820  12.188
36597SOL    HW111798   4.497  16.897  -9.864
36597SOL    HW211799   4.438  -5.298   1.098
36598SOL     OW11800  10.663   1.678   6.909
36598SOL    HW111801  10.584   1.625  -4.142
36598SOL    HW211802  10.638   1.764   6.876
36599SOL     OW11803   9.440   1.711   8.848
36599SOL    HW111804   9.368   1.647  30.924
36599SOL    HW211805  -1.521   1.658   8.837
36600SOL     OW11806   0.673   8.823   9.357
36600SOL    HW111807  11.643  -2.252  -1.737
36600SOL    HW211808 -10.332   8.746   9.405
36601SOL     OW11809   4.937   2.452   9.825
36601SOL    HW111810   4.950   2.540   9.860
36601SOL    HW211811   4.907   2.400   9.900
36602SOL     OW11812   4.271  10.529   5.326
36602SOL    HW111813   4.256  10.435  16.364
36602SOL    HW211814   4.366  -0.501   5.329
36603SOL     OW11815   4.956   9.230   9.560
36603SOL    HW111816   5.012   9.307   9.552
36603SOL    HW211817   4.913  20.280   9.645
36604SOL     OW11818   7.532  10.207  10.831
36604SOL    HW111819  18.608  10.160  10.906
36604SOL    HW211820   7.548  -0.740  10.851
36605SOL     OW11821   0.043   6.100   3.067
36605SOL    HW111822   0.084  -4.888   2.998
36605SOL    HW211823  11.150  -4.946   3.135
36606SOL     OW11824   3.175  10.600  -0.492
36606SOL    HW111825   3.162  10.554  21.504
36606SOL    HW211826   3.141  10.540  10.614
36607SOL     OW11827  11.294   3.644   8.069
36607SOL    HW111828   0.161   3.657  -2.985
36607SOL    HW211829  11.327   3.731   8.095
36608SOL     OW11830   0.014   0.322   5.494
36608SOL    HW111831  -0.054   0.271 -16.542
36608SOL    HW211832  -0.014   0.326   5.403
36609SOL     OW11833   4.037   5.430   3.583
36609SOL    HW111834   3.977  27.435   3.578
36609SOL    HW211835 -17.959   5.392  14.651
36610SOL     OW11836   8.129   2.269   2.503
36610SOL    HW111837   8.127   2.224  -8.621
36610SOL    HW211838   8.222  -8.765   2.524
36611SOL     OW11839   5.921   0.941   8.688
36611SOL    HW111840   5.931  12.074  30.786
36611SOL    HW211841   5.836  11.957   8.724
36612SOL     OW11842   0.903   7.648   7.496
36612SOL    HW111843 -10.171   7.629   7.583
36612SOL    HW211844   0.906   7.564   7.452
36613SOL     OW11845   7.618   2.313   4.216
36613SOL    HW111846   7.545   2.368   4.188
36613SOL    HW211847   7.694   2.348   4.171
36614SOL     OW11848   1.863   9.980   5.222
36614SOL    HW111849  -9.099  20.979   5.261
36614SOL    HW211850   1.869   9.958  -5.910
36615SOL     OW11851   8.800   2.746   1.291
36615SOL    HW111852   8.812   2.662  -9.704
36615SOL    HW211853   8.771   2.806  12.399
36616SOL     OW11854   7.271   2.670   9.002
36616SOL    HW111855   7.341   2.666   9.066
36616SOL    HW211856   7.301   2.616 -35.229
36617SOL     OW11857   3.534   5.265   8.937
36617SOL    HW111858   3.493 -27.767   8.933
36617SOL    HW211859   3.555   5.254 -24.089
36618SOL     OW11860   5.077   4.426   3.132
36618SOL    HW111861   5.070   4.468   3.217
36618SOL    HW211862   5.156   4.464  25.172
36619SOL     OW11863  -1.060   1.541   9.245
36619SOL    HW111864  20.931   1.533   9.280
36619SOL    HW211865  10.034   1.485   9.300
36620SOL     OW11866   8.797   1.810   1.387
36620SOL    HW111867   8.856  12.846 -20.617
36620SOL    HW211868  -2.243   1.902   1.361
36621SOL     OW11869   9.168   4.351   2.601
36621SOL    HW111870  31.327   4.321   2.645
36621SOL    HW211871   9.168   4.306  -8.523
36622SOL     OW11872   7.678   6.400  11.005
36622SOL    HW111873 -25.520   6.355  -0.007
36622SOL    HW211874  -3.354   6.474 -22.054
36623SOL     OW11875   3.954  10.322  11.635
36623SOL    HW111876   3.913  10.328  11.721
36623SOL    HW211877   3.880  10.315 -10.505
36624SOL     OW11878   4.425   2.395   2.385
36624SOL    HW111879   4.376   2.348   2.453
36624SOL    HW211880  37.623   2.424  24.508
36625SOL     OW11881   9.712   0.788   8.855
36625SOL    HW111882  20.761  22.815   8.776
36625SOL    HW211883   9.640   0.747  19.942
36626SOL     OW11884   6.132   5.203   1.715
36626SOL    HW111885 -15.990   5.219   1.630
36626SOL    HW211886 -37.937   5.180   1.692
36627SOL     OW11887   6.105   4.650   0.210
36627SOL    HW111888   6.170 -17.424   0.280
36627SOL    HW211889   6.116   4.563   0.173
36628SOL     OW11890   6.371  12.272  10.347
36628SOL    HW111891   6.320  12.278  21.468
36628SOL    HW211892   6.323  -9.870  10.293
36629SOL     OW11893   1.033  -0.350  11.286
36629SOL    HW111894   1.090  -0.423 -21.858
36629SOL    HW211895  11.994  10.678  11.233
36630SOL     OW11896   6.498   9.555   9.883
36630SOL    HW111897   6.545   9.531   9.963
36630SOL    HW211898  28.645   9.558 -23.303
36631SOL     OW11899   6.478  -1.216   5.647
36631SOL    HW111900   6.456  20.916   5.723
36631SOL    HW211901   6.433  -1.299  38.780
36632SOL     OW11902   9.984   8.060   1.045
36632SOL    HW111903  21.011 -14.012  12.179
36632SOL    HW211904  10.042   8.133   1.022
36633SOL     OW11905   6.760   2.076   3.928
36633SOL    HW111906   6.833  13.166  -7.147
36633SOL    HW211907 -15.397   2.123   3.899
36634SOL     OW11908   3.913   8.742   1.976
36634SOL    HW111909   3.983   8.795   2.015
36634SOL    HW211910   3.841   8.749  13.078
36635SOL     OW11911   2.385   9.434   6.620
36635SOL    HW111912 -19.652   9.479  28.772
36635SOL    HW211913   2.442   9.359   6.603
36636SOL     OW11914   4.449   2.154   6.452
36636SOL    HW111915  -6.533  13.240   6.513
36636SOL    HW211916   4.428   2.218   6.385
36637SOL     OW11917   1.465   2.154   7.931
36637SOL    HW111918   1.370   2.138   7.935
36637SOL    HW211919   1.473   2.249   7.941
36638SOL     OW11920  10.780   1.177  -0.478
36638SOL    HW111921  10.806   1.265  -0.506
36638SOL    HW211922  10.770   1.128  21.519
36639SOL     OW11923   2.969   8.615   6.155
36639SOL    HW111924  36.104  19.674 -16.017
36639SOL    HW211925  13.922   8.576   6.157
36640SOL     OW11926  -0.267   3.617  10.461
36640SOL    HW111927  -0.354   3.617  10.420
36640SOL    HW211928  10.780  14.743  10.501
36641SOL     OW11929   1.034  11.796   5.204
36641SOL    HW111930 -21.117   0.698   5.230
36641SOL    HW211931  12.146   0.732 -16.817
36642SOL     OW11932   6.843   0.150   1.477
36642SOL    HW111933  -4.192   0.115   1.388
36642SOL    HW211934   6.929   0.189   1.492
36643SOL     OW11935   0.048   5.590   0.739
36643SOL    HW111936   0.037   5.495   0.749
36643SOL    HW211937   0.050   5.603   0.644
36644SOL     OW11938   3.517   5.950  12.825
36644SOL    HW111939  -7.469   5.935  -9.177
36644SOL    HW211940   3.478   6.037   1.800
36645SOL     OW11941   3.923   9.109   2.603
36645SOL    HW111942   3.922  20.073  24.623
36645SOL    HW211943  15.054   9.137  13.644
36646SOL     OW11944   7.376   9.727   9.352
36646SOL    HW111945   7.433   9.659   9.314
36646SOL    HW211946  -3.700   9.686   9.431
36647SOL     OW11947   4.942   9.660   7.274
36647SOL    HW111948   4.890  -1.355   7.198
36647SOL    HW211949   4.922   9.726  -3.699
36648SOL     OW11950   7.967   2.272   0.187
36648SOL    HW111951   7.899  -8.811   0.136
36648SOL    HW211952  18.961   2.344   0.231
36649SOL     OW11953   8.727   8.350  10.869
36649SOL    HW111954   8.664   8.421  10.874
36649SOL    HW211955  30.764  19.324  10.813
36650SOL     OW11956   4.031   2.504  10.405
36650SOL    HW111957   4.031  -8.455  10.458
36650SOL    HW211958   3.938   2.480  10.400
36651SOL     OW11959   5.905   0.780   9.042
36651SOL    HW111960   5.913   0.786   9.137
36651SOL    HW211961   5.984 -10.217  20.048
36652SOL     OW11962   6.079   5.853   9.311
36652SOL    HW111963   5.994   5.834   9.350
36652SOL    HW211964   6.066  16.973   9.261
36653SOL     OW11965   7.588  10.963   1.679
36653SOL    HW111966   7.568  10.960   1.585
36653SOL    HW211967   7.573  10.874   1.710
36654SOL     OW11968   7.014   5.853  10.388
36654SOL    HW111969  -4.066  27.893  -0.575
36654SOL    HW211970   6.941  38.998  10.332
36655SOL     OW11971   5.102  10.925   2.238
36655SOL    HW111972   5.139  10.935  13.190
36655SOL    HW211973 -17.044  10.858   2.228
36656SOL     OW11974   7.107   2.239   3.391
36656SOL    HW111975  18.083   2.303  -7.615
36656SOL    HW211976   7.094   2.239 -18.783
36657SOL     OW11977   7.341   1.496  -1.403
36657SOL    HW111978  29.351 -20.587  20.742
36657SOL    HW211979  29.402  12.463  20.617
36658SOL     OW11980   0.381   8.190   6.594
36658SOL    HW111981   0.334  19.147   6.605
36658SOL    HW211982   0.469  -2.876  -4.473
36659SOL     OW11983   3.863   3.725  10.183
36659SOL    HW111984   3.897   3.640  10.209
36659SOL    HW211985  14.820  25.785  10.139
36660SOL     OW11986   3.062  13.138   3.011
36660SOL    HW111987   3.009  -8.967   3.086
36660SOL    HW211988  14.080 -20.044  25.022
36661SOL     OW11989   9.704   3.305   5.289
36661SOL    HW111990  20.808   3.353   5.237
36661SOL    HW211991   9.755   3.235   5.330
36662SOL     OW11992   3.636   0.636   3.019
36662SOL    HW111993   3.709  22.753   2.969
36662SOL    HW211994  -7.396  11.715  14.145
36663SOL     OW11995  10.440   4.793   3.361
36663SOL    HW111996  10.463   4.706   3.331
36663SOL    HW211997  10.512  37.968   3.333
36664SOL     OW11998   1.491   6.787  11.098
36664SOL    HW111999   1.435   6.826  -0.009
36664SOL    HW212000   1.540   6.719  11.052
36665SOL     OW12001   5.078  -0.608   6.071
36665SOL    HW112002  27.175  21.417   6.148
36665SOL    HW212003  16.108  -0.670  28.079
36666SOL     OW12004   8.316   1.119   4.417
36666SOL    HW112005   8.373   1.170   4.474
36666SOL    HW212006   8.272   1.184   4.362
36667SOL     OW12007   2.128   8.808   8.060
36667SOL    HW112008  -8.926 -24.360   8.141
36667SOL    HW212009   2.168  19.930   8.089
36668SOL     OW12010   3.227   1.010   3.856
36668SOL    HW112011  -7.843  22.999   3.866
36668SOL    HW212012   3.159   1.053   3.805
36669SOL     OW12013   0.425   8.053   6.061
36669SOL    HW112014   0.482  19.039   6.005
36669SOL    HW212015   0.464  19.180  -4.981
36670SOL     OW12016   0.816   3.961   2.854
36670SOL    HW112017   0.822   3.976  -8.280
36670SOL    HW212018   0.725   3.978   2.876
36671SOL     OW12019   9.835  10.125  10.028
36671SOL    HW112020 -23.246  10.190  10.087
36671SOL    HW212021 -23.284  21.207   9.942
36672SOL     OW12022   1.778   9.874   4.199
36672SOL    HW112023  23.823   9.855   4.287
36672SOL    HW212024  -9.250  20.827  37.278
36673SOL     OW12025   6.258   9.858   7.847
36673SOL    HW112026  17.353   9.809 -14.293
36673SOL    HW212027   6.315   9.927   7.881
36674SOL     OW12028   1.658  10.475  10.376
36674SOL    HW112029   1.569  21.488  10.399
36674SOL    HW212030   1.648  -0.514  -0.745
36675SOL     OW12031   0.651   4.608   0.751
36675SOL    HW112032   0.584 -17.441   0.689
36675SOL    HW212033   0.703   4.545   0.701
36676SOL     OW12034   6.127  10.546   1.549
36676SOL    HW112035   6.194  10.529   1.615
36676SOL    HW212036 -15.971  10.461   1.510
36677SOL     OW12037   4.173   7.758  11.017
36677SOL    HW112038  -6.952   7.798  11.001
36677SOL    HW212039   4.199   7.722  10.932
36678SOL     OW12040  10.301   8.318   8.799
36678SOL    HW112041  10.240   8.391 -24.309
36678SOL    HW212042  10.260  -2.778   8.733
36679SOL     OW12043   2.445   6.895   1.463
36679SOL    HW112044  -8.549  39.973   1.537
36679SOL    HW212045  24.496   6.821   1.410
36680SOL     OW12046   1.778   1.233   5.714
36680SOL    HW112047   1.723  -9.733   5.690
36680SOL    HW212048   1.764   1.221  16.847
36681SOL     OW12049   4.540   1.511   6.525
36681SOL    HW112050  -6.444   1.451  -4.465
36681SOL    HW212051   4.500 -20.513   6.592
36682SOL     OW12052   0.123   8.128   5.951
36682SOL    HW112053   0.158   8.045   5.984
36682SOL    HW212054   0.113   8.114   5.856
36683SOL     OW12055   7.620   4.395   6.774
36683SOL    HW112056   7.651   4.439   6.694
36683SOL    HW212057   7.649   4.305 -26.354
36684SOL     OW12058   0.457   6.207   1.692
36684SOL    HW112059   0.443 -15.823  -9.266
36684SOL    HW212060   0.496   6.271  -9.407
36685SOL     OW12061   9.100  11.034   3.514
36685SOL    HW112062  42.124  11.029  14.544
36685SOL    HW212063   9.132  11.048  25.504
36686SOL     OW12064   4.159   0.275   8.788
36686SOL    HW112065   4.204   0.230   8.716
36686SOL    HW212066   4.160   0.211  19.900
36687SOL     OW12067   1.913   6.592  -3.048
36687SOL    HW112068   1.911  -4.525  19.087
36687SOL    HW212069   2.002  -4.446  30.035
36688SOL     OW12070   6.463   1.477   6.158
36688SOL    HW112071   6.542   1.531   6.161
36688SOL    HW212072   6.496   1.388   6.142
36689SOL     OW12073   9.004   9.620   8.783
36689SOL    HW112074   8.928   9.579  30.820
36689SOL    HW212075   8.968   9.699   8.823
36690SOL     OW12076   3.116   8.539   7.885
36690SOL    HW112077   3.191  30.560   7.870
36690SOL    HW212078   3.061   8.527  29.886
36691SOL     OW12079   2.758  10.097   6.311
36691SOL    HW112080   2.663  21.126  17.355
36691SOL    HW212081  -8.253  10.097   6.403
36692SOL     OW12082   0.166   3.004   0.361
36692SOL    HW112083   0.191  -7.943   0.360
36692SOL    HW212084   0.208  -8.073   0.283
36693SOL     OW12085   3.278   0.979   5.846
36693SOL    HW112086  14.333  11.994   5.755
36693SOL    HW212087   3.183   0.982 -16.224
36694SOL     OW12088   2.414   8.213   9.783
36694SOL    HW112089   2.347   8.262  20.871
36694SOL    HW212090  24.443   8.152   9.728
36695SOL     OW12091   6.858  10.248   7.567
36695SOL    HW112092   6.859  10.220   7.476
36695SOL    HW212093   6.907  -0.709   7.567
36696SOL     OW12094   8.817  -0.003   5.368
36696SOL    HW112095   8.905   0.033   5.361
36696SOL    HW212096  -2.279  11.102  -5.713
36697SOL     OW12097  11.223   6.776   4.455
36697SOL    HW112098  11.215   6.835   4.529
36697SOL    HW212099 -10.808   6.826   4.389
36698SOL     OW12100  12.819   0.426  10.042
36698SOL    HW112101   1.746   0.495   9.984
36698SOL    HW212102 -20.378   0.382  21.114
36699SOL     OW12103   3.079   0.703  11.361
36699SOL    HW112104   3.014   0.675  11.425
36699SOL    HW212105  14.202   0.697 -10.672
36700SOL     OW12106   9.707   6.347   1.892
36700SOL    HW112107   9.744   6.423  -9.192
36700SOL    HW212108 -12.432  -4.656   1.957
36701SOL     OW12109   5.947   8.023   7.071
36701SOL    HW112110   5.883  -3.035 -15.077
36701SOL    HW212111   5.918   7.971   7.146
36702SOL     OW12112   9.388  10.394   6.735
36702SOL    HW112113   9.370  10.477  17.730
36702SOL    HW212114   9.461  21.396   6.686
36703SOL     OW12115   5.270  -0.567   8.756
36703SOL    HW112116   5.243  10.382   8.773
36703SOL    HW212117  16.370  10.494   8.827
36704SOL     OW12118   0.833   2.762   9.282
36704SOL    HW112119   0.833   2.668   9.296
36704SOL    HW212120   0.904   2.777   9.219
36705SOL     OW12121   9.460  10.130   7.492
36705SOL    HW112122   9.523  10.184   7.540
36705SOL    HW212123   9.514  10.082   7.428
36706SOL     OW12124   8.638   8.086   2.179
36706SOL    HW112125  -2.321  19.131   2.230
36706SOL    HW212126   8.595   8.170   2.193
36707SOL     OW12127   0.610   2.598  11.544
36707SOL    HW112128   0.696  24.677 -21.534
36707SOL    HW212129  22.638  13.577  11.597
36708SOL     OW12130   5.903   3.709  11.613
36708SOL    HW112131   5.834  14.794  11.661
36708SOL    HW212132   5.973   3.696   0.638
36709SOL     OW12133   9.297   7.148   8.291
36709SOL    HW112134   9.346   7.147  19.413
36709SOL    HW212135   9.363   7.139   8.223
36710SOL     OW12136   9.558  -0.641  -0.270
36710SOL    HW112137   9.591  21.516  10.814
36710SOL    HW212138   9.467  21.430  -0.242
36711SOL     OW12139   9.462   2.428   1.833
36711SOL    HW112140   9.398   2.498   1.848
36711SOL    HW212141   9.409   2.350   1.817
36712SOL     OW12142   9.929  10.352   6.416
36712SOL    HW112143   9.835  -0.677  28.481
36712SOL    HW212144   9.956 -11.646  17.499
36713SOL     OW12145  10.156   9.437   1.737
36713SOL    HW112146  10.191   9.525  12.765
36713SOL    HW212147  10.136  -1.632   1.648
36714SOL     OW12148   4.463   9.020   7.765
36714SOL    HW112149   4.417   9.103   7.776
36714SOL    HW212150   4.549   9.035  -3.234
36715SOL     OW12151   8.088   3.533  11.008
36715SOL    HW112152  41.211   3.439  11.028
36715SOL    HW212153   8.026   3.540  10.936
36716SOL     OW12154   4.058   7.681   5.272
36716SOL    HW112155   4.116   7.727   5.211
36716SOL    HW212156   4.113   7.663  27.427
36717SOL     OW12157   7.940   5.599   7.190
36717SOL    HW112158   8.008   5.662   7.212
36717SOL    HW212159  41.002   5.645   7.128
36718SOL     OW12160   5.224   1.139   6.611
36718SOL    HW112161   5.300   1.082   6.614
36718SOL    HW212162   5.248   1.214  28.745
36719SOL     OW12163   6.585  11.037   4.195
36719SOL    HW112164   6.497  11.008   4.170
36719SOL    HW212165   6.620  10.965   4.248
36720SOL     OW12166   7.379   5.274   0.257
36720SOL    HW112167  -3.668   5.239  11.208
36720SOL    HW212168 -25.665   5.228 -10.744
36721SOL     OW12169   5.595   8.675   3.820
36721SOL    HW112170   5.514  19.675   3.851
36721SOL    HW212171   5.626  30.808   3.893
36722SOL     OW12172   0.155   2.250  10.769
36722SOL    HW112173  11.216   2.208  10.686
36722SOL    HW212174   0.238   2.256  10.815
36723SOL     OW12175   7.878   4.794  10.117
36723SOL    HW112176  40.986  -6.210  -1.011
36723SOL    HW212177  30.052   4.787  10.128
36724SOL     OW12178  10.733   6.697   1.247
36724SOL    HW112179  -0.214   6.691  23.302
36724SOL    HW212180  10.731   6.759   1.320
36725SOL     OW12181   3.908  -0.445   2.630
36725SOL    HW112182   3.851  -0.508  -8.454
36725SOL    HW212183   3.853  21.671   2.699
36726SOL     OW12184  10.839   1.157   6.534
36726SOL    HW112185 -11.243   1.109   6.450
36726SOL    HW212186  -0.253   1.104   6.593
36727SOL     OW12187   4.664   9.884   6.551
36727SOL    HW112188   4.735   9.948   6.547
36727SOL    HW212189   4.639  20.910   6.459
36728SOL     OW12190   6.371   1.454   5.686
36728SOL    HW112191 -15.680   1.545   5.696
36728SOL    HW212192   6.430   1.417   5.620
36729SOL     OW12193   6.858   5.225  10.405
36729SOL    HW112194   6.928   5.288  -0.617
36729SOL    HW212195   6.826  16.239  10.491
36730SOL     OW12196   8.526   4.334   2.939
36730SOL    HW112197   8.486   4.260   2.985
36730SOL    HW212198   8.501   4.322 -19.232
36731SOL     OW12199   9.848   8.392   7.643
36731SOL    HW112200  20.913   8.307 -14.399
36731SOL    HW212201   9.862   8.382 -14.530
36732SOL     OW12202   8.846   7.122   0.481
36732SOL    HW112203   8.809  18.235   0.530
36732SOL    HW212204 -13.144   7.113   0.515
36733SOL     OW12205   6.091   3.910   9.892
36733SOL    HW112206  -4.976   3.868 -23.145
36733SOL    HW212207   6.187  14.945  31.973
36734SOL     OW12208   4.383   6.267   6.663
36734SOL    HW112209 -28.697  17.281   6.746
36734SOL    HW212210   4.364   6.184  -4.421
36735SOL     OW12211   1.664   4.027  10.011
36735SOL    HW112212   1.645 -29.033   9.938
36735SOL    HW212213   1.603   4.053  10.080
36736SOL     OW12214   1.006   7.211  10.312
36736SOL    HW112215   1.056   7.248  10.386
36736SOL    HW212216 -10.124   7.212 -11.737
36737SOL     OW12217  12.676   8.308   6.196
36737SOL    HW112218  12.704  19.382   6.111
36737SOL    HW212219 -31.480   8.213   6.186
36738SOL     OW12220  11.653   2.795   7.255
36738SOL    HW112221   0.568   2.858  -3.728
36738SOL    HW212222  11.592  13.760  18.288
36739SOL     OW12223   6.748  10.752  10.906
36739SOL    HW112224   6.816  10.819 -11.166
36739SOL    HW212225   6.792  10.671  10.932
36740SOL     OW12226   8.193   9.811   2.939
36740SOL    HW112227 -24.971  20.798   3.005
36740SOL    HW212228   8.195   9.756   2.861
36741SOL     OW12229   3.152   7.445   7.724
36741SOL    HW112230   3.166   7.444   7.629
36741SOL    HW212231  14.097   7.446   7.734
36742SOL     OW12232   2.692   9.370   9.948
36742SOL    HW112233   2.650   9.326  10.022
36742SOL    HW212234  -8.360   9.463   9.965
36743SOL     OW12235   5.800   2.502   6.711
36743SOL    HW112236   5.785 -19.504  -4.389
36743SOL    HW212237   5.848  24.516   6.660
36744SOL     OW12238   3.680   9.025  10.562
36744SOL    HW112239  14.721 -24.165 -11.582
36744SOL    HW212240  14.809   9.030  10.594
36745SOL     OW12241  -0.514   8.050   7.101
36745SOL    HW112242  21.646   8.023   7.058
36745SOL    HW212243  -0.543   7.973  -3.891
36746SOL     OW12244   6.456   4.523  10.194
36746SOL    HW112245   6.441   4.522  10.099
36746SOL    HW212246   6.374  48.651  10.232
36747SOL     OW12247   2.052   9.464   3.205
36747SOL    HW112248   2.094   9.531   3.151
36747SOL    HW212249   2.058  -1.543  -7.745
36748SOL     OW12250   3.801   2.559   0.054
36748SOL    HW112251  14.844   2.492  22.202
36748SOL    HW212252  14.852   2.642   0.101
36749SOL     OW12253   3.846   2.176   3.568
36749SOL    HW112254  14.938  13.155   3.515
36749SOL    HW212255   3.885  -8.778   3.553
36750SOL     OW12256   4.813   6.340   6.747
36750SOL    HW112257  15.769  39.483   6.788
36750SOL    HW212258   4.789  17.341   6.663
36751SOL     OW12259   3.856   5.719   3.004
36751SOL    HW112260   3.777  -5.342   3.054
36751SOL    HW212261   3.926  -5.325   3.068
36752SOL     OW12262   2.844   5.983   2.538
36752SOL    HW112263   2.853   6.078  13.586
36752SOL    HW212264  13.791  -5.074   2.554
36753SOL     OW12265   3.936   6.604   0.869
36753SOL    HW112266   3.866  -4.459   0.808
36753SOL    HW212267   4.011  17.663   0.814
36754SOL     OW12268   4.260   8.371   3.691
36754SOL    HW112269 -17.843   8.406   3.605
36754SOL    HW212270   4.197  19.452   3.751
36755SOL     OW12271   1.149   7.745   6.350
36755SOL    HW112272  12.273  -3.291  17.435
36755SOL    HW212273 -20.961  18.875   6.350
36756SOL     OW12274   2.176  11.035   2.517
36756SOL    HW112275   2.239  10.980   2.563
36756SOL    HW212276   2.093  10.987   2.523
36757SOL     OW12277   2.748   7.519   8.467
36757SOL    HW112278 -19.380  -3.601   8.449
36757SOL    HW212279  -8.220   7.518  -2.637
36758SOL     OW12280   3.856   1.132   8.227
36758SOL    HW112281  14.987   1.103   8.228
36758SOL    HW212282  14.900   1.225   8.250
36759SOL     OW12283   7.603   0.783   7.679
36759SOL    HW112284   7.596   0.877  18.702
36759SOL    HW212285   7.679   0.774   7.737
36760SOL     OW12286   3.519   3.126   9.197
36760SOL    HW112287   3.436   3.103   9.156
36760SOL    HW212288  25.577  25.276  20.297
36761SOL     OW12289   6.214   6.620   7.070
36761SOL    HW112290   6.221  17.604   7.147
36761SOL    HW212291  -4.825   6.560  -4.044
36762SOL     OW12292   3.923   6.446   9.341
36762SOL    HW112293   4.013 -15.613   9.314
36762SOL    HW212294  14.967  -4.599  20.476
36763SOL     OW12295   6.158   6.080   0.950
36763SOL    HW112296   6.089 -49.148  11.930
36763SOL    HW212297   6.238  -5.002  34.037
36764SOL     OW12298   4.556   9.458   3.331
36764SOL    HW112299  15.611  -1.490 -18.722
36764SOL    HW212300   4.466   9.441   3.356
36765SOL     OW12301   4.153   2.181   8.255
36765SOL    HW112302   4.106   2.122   8.196
36765SOL    HW212303   4.213   2.124   8.303
36766SOL     OW12304  10.128  -0.053  11.637
36766SOL    HW112305  10.129  22.119  11.614
36766SOL    HW212306  10.199  33.056 -10.378
36767SOL     OW12307  10.672   0.255   9.871
36767SOL    HW112308  10.740   0.305 -12.163
36767SOL    HW212309  10.700   0.164  -1.159
36768SOL     OW12310   4.143   3.368   7.064
36768SOL    HW112311   4.138   3.292   7.122
36768SOL    HW212312 -28.953  25.410   6.978
36769SOL     OW12313  10.106   5.124   7.728
36769SOL    HW112314  10.089 -16.862   7.712
36769SOL    HW212315  10.064   5.107   7.812
36770SOL     OW12316   4.892   0.296   5.949
36770SOL    HW112317   4.975  11.369  16.954
36770SOL    HW212318  15.953  11.303  28.116
36771SOL     OW12319   7.748   4.643   6.593
36771SOL    HW112320   7.664   4.649   6.547
36771SOL    HW212321   7.803   4.709   6.552
36772SOL     OW12322   0.818   7.170   6.905
36772SOL    HW112323   0.818   7.232   6.978
36772SOL    HW212324   0.735   7.186  -4.179
36773SOL     OW12325   3.103   2.606   8.263
36773SOL    HW112326  -8.021   2.609   8.309
36773SOL    HW212327   3.116  13.553   8.242
36774SOL     OW12328  -0.201   0.769   1.081
36774SOL    HW112329  -0.153 -10.189  23.142
36774SOL    HW212330  10.900   0.700  23.136
36775SOL     OW12331   9.262   7.917  -0.794
36775SOL    HW112332   9.288  18.876  10.290
36775SOL    HW212333   9.320  -3.055  10.282
36776SOL     OW12334   4.835   6.617   6.814
36776SOL    HW112335   4.918   6.648   6.849
36776SOL    HW212336 -17.223   6.536   6.768
36777SOL     OW12337   6.700   6.788   7.970
36777SOL    HW112338  -4.360   6.749  -2.984
36777SOL    HW212339   6.789 -26.361   7.950
36778SOL     OW12340   9.643   8.098   8.758
36778SOL    HW112341 -12.375   8.027   8.779
36778SOL    HW212342   9.557   8.063   8.782
36779SOL     OW12343   4.182   7.979   5.901
36779SOL    HW112344 -17.989   8.006  16.930
36779SOL    HW212345 -28.936   7.886   5.875
36780SOL     OW12346   7.336   8.892   1.798
36780SOL    HW112347   7.420   8.872   1.839
36780SOL    HW212348   7.277   8.910 -20.207
36781SOL     OW12349  13.795   9.451   4.757
36781SOL    HW112350   2.747   9.483   4.847
36781SOL    HW212351 -52.358   9.484   4.727
36782SOL     OW12352   9.143   0.125   9.634
36782SOL    HW112353  -1.983   0.164   9.647
36782SOL    HW212354   9.158   0.073   9.713
36783SOL     OW12355   7.927   7.717  10.228
36783SOL    HW112356 -36.248   7.810  10.211
36783SOL    HW212357   7.843   7.682  10.256
36784SOL     OW12358   1.040   4.696   1.754
36784SOL    HW112359   1.041  15.696   1.841
36784SOL    HW212360   1.043  -6.418   1.693
36785SOL     OW12361   8.510  -0.018   8.873
36785SOL    HW112362  -2.588  22.100   8.808
36785SOL    HW212363   8.478   0.017  31.036
36786SOL     OW12364   7.866   5.003   2.839
36786SOL    HW112365  -3.157 -17.109   2.927
36786SOL    HW212366 -14.278 -17.007  35.969
36787SOL     OW12367   2.745  11.016   9.550
36787SOL    HW112368  24.765  11.000   9.477
36787SOL    HW212369   2.826  11.045   9.509
36788SOL     OW12370   8.257   8.729   6.572
36788SOL    HW112371   8.223   8.776   6.648
36788SOL    HW212372  19.326   8.645   6.607
36789SOL     OW12373   5.501  10.681   6.636
36789SOL    HW112374   5.419 -11.414   6.681
36789SOL    HW212375  -5.490  10.740   6.695
36790SOL     OW12376   3.151   3.583   8.962
36790SOL    HW112377   3.164  14.652   9.052
36790SOL    HW212378  14.108  14.575  20.003
36791SOL     OW12379   8.358   5.937   6.718
36791SOL    HW112380   8.405 -38.234   6.801
36791SOL    HW212381   8.356  -5.189 -15.401
36792SOL     OW12382   1.790   9.365   5.260
36792SOL    HW112383   1.867   9.309   5.266
36792SOL    HW212384   1.812   9.443   5.312
36793SOL     OW12385  11.261  10.364   3.731
36793SOL    HW112386  11.282  10.280   3.690
36793SOL    HW212387   0.224  10.345   3.825
36794SOL     OW12388   8.663   7.895   8.272
36794SOL    HW112389   8.604   7.834   8.318
36794SOL    HW212390   8.749   7.854   8.277
36795SOL     OW12391   9.022   6.689   5.627
36795SOL    HW112392   9.084   6.744   5.675
36795SOL    HW212393   8.952   6.749   5.602
36796SOL     OW12394  -0.120   6.328   4.323
36796SOL    HW112395  -0.108  17.449   4.373
36796SOL    HW212396  21.872 -15.744   4.286
36797SOL     OW12397   2.160   1.003   2.132
36797SOL    HW112398   2.200   1.071   2.185
36797SOL    HW212399   2.154   1.040   2.044
36798SOL     OW12400   7.118   6.442   2.578
36798SOL    HW112401  -3.938   6.433   2.484
36798SOL    HW212402   7.110   6.353   2.613
36799SOL     OW12403   1.121   5.015   7.308
36799SOL    HW112404  -9.932   5.093   7.362
36799SOL    HW212405   1.039  16.046   7.258
36800SOL     OW12406  10.848   3.603   4.652
36800SOL    HW112407  10.886 -29.540   4.737
36800SOL    HW212408  10.898   3.679   4.624
36801SOL     OW12409   7.023   8.866   6.143
36801SOL    HW112410  -3.972  30.881   6.198
36801SOL    HW212411 -26.176   8.887   6.191
36802SOL     OW12412   0.444   7.473   3.284
36802SOL    HW112413   0.375  18.511  14.257
36802SOL    HW212414  11.531   7.555   3.268
36803SOL     OW12415   9.334   7.390   3.561
36803SOL    HW112416   9.252   7.346  25.620
36803SOL    HW212417   9.316   7.438   3.642
36804SOL     OW12418   9.687  -1.130  10.125
36804SOL    HW112419 -12.445  -1.166  10.054
36804SOL    HW212420  -1.282  20.996  10.080
36805SOL     OW12421   3.819   7.285   8.408
36805SOL    HW112422  -7.193  -3.670   8.442
36805SOL    HW212423   3.897 -14.850   8.414
36806SOL     OW12424   1.623   2.686   4.391
36806SOL    HW112425  -9.483  -8.311   4.445
36806SOL    HW212426   1.574  13.690   4.317
36807SOL     OW12427   9.742   5.262   5.046
36807SOL    HW112428  -1.217   5.263   4.995
36807SOL    HW212429   9.674   5.241  38.101
36808SOL     OW12430   3.051   0.874   8.249
36808SOL    HW112431   3.067   0.846  30.238
36808SOL    HW212432   3.061   0.969  -2.792
36809SOL     OW12433   1.443   5.956  10.023
36809SOL    HW112434  12.495   5.937  21.155
36809SOL    HW212435   1.520  17.046   9.997
36810SOL     OW12436   0.106   1.188   8.177
36810SOL    HW112437   0.168  23.214   8.226
36810SOL    HW212438   0.155   1.267   8.154
36811SOL     OW12439   6.359   1.793   2.152
36811SOL    HW112440   6.287   1.852   2.175
36811SOL    HW212441 -15.722  12.765   2.220
36812SOL     OW12442   2.622  -1.485   5.370
36812SOL    HW112443   2.679  31.624   5.293
36812SOL    HW212444   2.552  -1.427   5.340
36813SOL     OW12445   8.167   0.539   4.652
36813SOL    HW112446   8.215   0.470   4.697
36813SOL    HW212447   8.125   0.589  15.762
36814SOL     OW12448   8.688   9.662   6.745
36814SOL    HW112449   8.606   9.615   6.732
36814SOL    HW212450  19.724  -1.347  28.915
36815SOL     OW12451   7.655  10.169   6.361
36815SOL    HW112452   7.705  10.108   6.415
36815SOL    HW212453   7.697  10.165   6.275
36816SOL     OW12454   4.818   5.223   8.749
36816SOL    HW112455   4.809  27.388   8.706
36816SOL    HW212456  -6.217  16.200   8.677
36817SOL     OW12457   4.777   0.126   1.380
36817SOL    HW112458   4.827  22.127   1.402
36817SOL    HW212459   4.828   0.198   1.417
36818SOL     OW12460   7.329   1.911   6.375
36818SOL    HW112461   7.255   1.902  28.513
36818SOL    HW212462   7.341   2.005   6.365
36819SOL     OW12463   1.024   7.884   2.844
36819SOL    HW112464  12.150  -3.135   2.879
36819SOL    HW212465  12.033   7.966   2.804
36820SOL     OW12466   2.010   7.749   6.093
36820SOL    HW112467   2.032   7.671   6.143
36820SOL    HW212468   2.025   7.822  17.193
36821SOL     OW12469  -0.230  10.046   5.497
36821SOL    HW112470  10.838  10.128  -5.581
36821SOL    HW212471  10.767   9.999  27.504
36822SOL     OW12472   3.883   5.233  11.064
36822SOL    HW112473   3.846  16.216   0.093
36822SOL    HW212474  26.047   5.260  11.099
36823SOL     OW12475   8.789  11.834  10.449
36823SOL    HW112476  19.752   0.739 -22.658
36823SOL    HW212477  19.803   0.858 -22.736
36824SOL     OW12478   8.920   5.013   2.032
36824SOL    HW112479   8.938 -28.113   2.126
36824SOL    HW212480  19.864  16.052   2.026
36825SOL     OW12481  10.336   0.832   2.082
36825SOL    HW112482  10.334   0.747  -8.913
36825SOL    HW212483  10.342  34.015   2.152
36826SOL     OW12484   3.029   3.552   9.771
36826SOL    HW112485   2.936   3.563   9.791
36826SOL    HW212486   3.048  -7.579  20.830
36827SOL     OW12487   6.963   5.668   8.239
36827SOL    HW112488 -15.053   5.688  19.210
36827SOL    HW212489  -4.125   5.592  19.247
36828SOL     OW12490   8.392   9.276   4.765
36828SOL    HW112491 -13.744  -1.781   4.690
36828SOL    HW212492   8.428 -12.716  -6.290
36829SOL     OW12493   2.770   4.881  10.333
36829SOL    HW112494   2.730   4.800  10.302
36829SOL    HW212495   2.849   4.853  -0.661
36830SOL     OW12496   8.849   1.577   2.968
36830SOL    HW112497   8.809   1.656   3.004
36830SOL    HW212498   8.918  -9.486   3.030
36831SOL     OW12499   1.044   8.236   9.830
36831SOL    HW112500   1.008  19.267   9.742
36831SOL    HW212501   1.036   8.149   9.868
36832SOL     OW12502   7.171   4.596   9.673
36832SOL    HW112503   7.215   4.648   9.606
36832SOL    HW212504   7.097   4.556  20.667
36833SOL     OW12505   9.171   8.139  10.455
36833SOL    HW112506   9.187   8.137  10.549
36833SOL    HW212507  20.298  19.186  -0.623
36834SOL     OW12508   6.414   3.400   4.491
36834SOL    HW112509   6.322   3.405   4.517
36834SOL    HW212510 -15.617   3.411  26.653
36835SOL     OW12511   2.472   3.334   5.758
36835SOL    HW112512   2.379   3.317   5.769
36835SOL    HW212513   2.514   3.250 -27.344
36836SOL     OW12514   3.722   3.132   1.472
36836SOL    HW112515   3.694   3.222   1.490
36836SOL    HW212516   3.659  -7.940   1.408
36837SOL     OW12517   2.750   6.037  10.422
36837SOL    HW112518   2.696   5.980  10.477
36837SOL    HW212519   2.712  17.066  10.334
36838SOL     OW12520   1.389   4.283   4.399
36838SOL    HW112521   1.310   4.336   4.390
36838SOL    HW212522   1.428   4.284  15.351
36839SOL     OW12523   7.196   7.840   8.140
36839SOL    HW112524   7.271   7.895  19.158
36839SOL    HW212525   7.121   7.885   8.101
36840SOL     OW12526   7.490   9.543   9.148
36840SOL    HW112527  -3.534  20.489   9.136
36840SOL    HW212528  -3.621  -1.476   9.088
36841SOL     OW12529   3.522   3.836   7.042
36841SOL    HW112530   3.573   3.913   7.018
36841SOL    HW212531  -7.608   3.861 -15.052
36842SOL     OW12532   1.478  -0.168   9.217
36842SOL    HW112533   1.384  10.861  -1.835
36842SOL    HW212534   1.495  -0.196   9.307
36843SOL     OW12535   6.669  10.570   0.924
36843SOL    HW112536   6.601  10.624 -10.154
36843SOL    HW212537  17.777  10.565   0.857
36844SOL     OW12538   3.803   1.155   0.633
36844SOL    HW112539   3.773   1.178   0.545
36844SOL    HW212540   3.736   1.094   0.665
36845SOL     OW12541   1.652   2.116   4.499
36845SOL    HW112542  12.708   2.190   4.558
36845SOL    HW212543   1.634   2.042  -6.483
36846SOL     OW12544   7.051  -0.477  11.571
36846SOL    HW112545 -26.046  21.563   0.616
36846SOL    HW212546   7.135  -0.448  11.535
36847SOL     OW12547   8.474   3.905  10.390
36847SOL    HW112548   8.393  -7.087  -0.666
36847SOL    HW212549   8.445   3.822  10.430
36848SOL     OW12550   1.082   0.930   0.477
36848SOL    HW112551   1.021 -10.178  22.587
36848SOL    HW212552   1.154   0.882   0.437
36849SOL     OW12553   7.595   1.104  10.733
36849SOL    HW112554  18.560   1.164  10.728
36849SOL    HW212555   7.665  12.189  10.686
36850SOL     OW12556   7.770   7.652   9.480
36850SOL    HW112557   7.806   7.646  20.431
36850SOL    HW212558   7.846  -3.370   9.536
36851SOL     OW12559   6.557   1.192   9.894
36851SOL    HW112560   6.503  12.295  31.925
36851SOL    HW212561  -4.515   1.107 -12.214
36852SOL     OW12562   8.050   5.089   3.265
36852SOL    HW112563   8.107  38.160   3.325
36852SOL    HW212564   8.049   5.178  -7.741
36853SOL     OW12565   6.290   3.450   5.433
36853SOL    HW112566  -4.781   3.359  16.470
36853SOL    HW212567   6.281   3.481   5.344
36854SOL     OW12568   2.503   2.245   1.617
36854SOL    HW112569   2.451   2.325   1.609
36854SOL    HW212570   2.528 -19.856   1.527
36855SOL     OW12571   5.291   9.085   7.359
36855SOL    HW112572  16.257  20.177   7.391
36855SOL    HW212573  16.405  20.184   7.363
36856SOL     OW12574   7.508   1.224   4.948
36856SOL    HW112575   7.582   1.194  16.041
36856SOL    HW212576   7.447   1.150   4.948
36857SOL     OW12577   8.693   6.381  11.138
36857SOL    HW112578  -2.323 -15.611  11.169
36857SOL    HW212579  19.688   6.396   0.015
36858SOL     OW12580   9.646   6.051   3.719
36858SOL    HW112581   9.635   6.135   3.675
36858SOL    HW212582 -12.509  28.123  -7.262
36859SOL     OW12583   2.339   9.908   5.379
36859SOL    HW112584  -8.633   9.972   5.400
36859SOL    HW212585   2.378   9.852   5.312
36860SOL     OW12586  10.396   6.901   4.876
36860SOL    HW112587  10.488  29.001  15.901
36860SOL    HW212588  10.361   6.976   4.924
36861SOL     OW12589   3.404   7.144   9.540
36861SOL    HW112590  -7.673   7.065   9.502
36861SOL    HW212591  -7.669  -3.824   9.486
36862SOL     OW12592  10.309   0.754   1.332
36862SOL    HW112593  10.264 -10.283  23.326
36862SOL    HW212594  10.371   0.827  12.368
36863SOL     OW12595   8.087   4.505   7.053
36863SOL    HW112596  30.173  26.512   7.116
36863SOL    HW212597   7.995   4.503   7.025
36864SOL     OW12598   3.472   4.960   0.036
36864SOL    HW112599  25.523   4.886  -0.019
36864SOL    HW212600  -7.499 -17.076  -0.015
36865SOL     OW12601   5.880   7.219   0.341
36865SOL    HW112602  -5.243   7.223   0.386
36865SOL    HW212603   5.860   7.246  33.370
36866SOL     OW12604   7.957  10.272   3.633
36866SOL    HW112605  -3.093  10.326   3.555
36866SOL    HW212606   8.001  10.329   3.696
36867SOL     OW12607   2.795   8.265   5.987
36867SOL    HW112608   2.879   8.223  17.006
36867SOL    HW212609   2.786   8.255   6.082
36868SOL     OW12610   8.961  10.044   8.033
36868SOL    HW112611   9.045  10.076   8.000
36868SOL    HW212612  -2.144  10.097  -3.054
36869SOL     OW12613   0.857   8.554   3.163
36869SOL    HW112614   0.921   8.534  14.271
36869SOL    HW212615   0.869   8.647   3.145
36870SOL     OW12616   0.211  10.502   9.361
36870SOL    HW112617   0.221  10.577   9.420
36870SOL    HW212618   0.174  10.433   9.416
36871SOL     OW12619   6.219   8.001   7.191
36871SOL    HW112620   6.127   8.009  18.205
36871SOL    HW212621   6.268 -25.072   7.122
36872SOL     OW12622  10.159   3.283  11.963
36872SOL    HW112623  -0.790  14.317  11.932
36872SOL    HW212624  10.107   3.250 -10.188
36873SOL     OW12625   0.193   5.728   5.012
36873SOL    HW112626  11.167   5.795  16.075
36873SOL    HW212627   0.226  16.795  -6.113
36874SOL     OW12628   7.537   0.057   2.957
36874SOL    HW112629   7.489  11.120  13.917
36874SOL    HW212630   7.488  -0.017   2.994
36875SOL     OW12631   0.500   7.958   0.461
36875SOL    HW112632  11.594   7.879   0.451
36875SOL    HW212633   0.475   7.981  22.451
36876SOL     OW12634   5.146   1.466   8.054
36876SOL    HW112635   5.094   1.534   8.012
36876SOL    HW212636   5.109   1.384   8.021
36877SOL     OW12637   0.379   1.094   8.891
36877SOL    HW112638   0.325  12.211 -13.208
36877SOL    HW212639   0.410   1.109   8.980
36878SOL     OW12640   9.400   6.543   7.778
36878SOL    HW112641   9.396   6.456   7.819
36878SOL    HW212642   9.318   6.585  18.842
36879SOL     OW12643   4.008   5.170  10.764
36879SOL    HW112644   3.965  16.288  10.799
36879SOL    HW212645  15.138   5.196  10.750
36880SOL     OW12646   2.125   7.936   8.299
36880SOL    HW112647   2.118   7.858   8.243
36880SOL    HW212648   2.034   7.958   8.320
36881SOL     OW12649   3.079   3.726   7.483
36881SOL    HW112650   3.078  -7.227   7.523
36881SOL    HW212651   3.125   3.739  18.439
36882SOL     OW12652   0.491   3.651   2.473
36882SOL    HW112653   0.511   3.665   2.381
36882SOL    HW212654   0.576   3.636   2.514
36883SOL     OW12655   2.581   4.606   2.317
36883SOL    HW112656  -8.390   4.656   2.273
36883SOL    HW212657 -30.492   4.541   2.369
36884SOL     OW12658   5.300   1.697   8.376
36884SOL    HW112659   5.312   1.607   8.347
36884SOL    HW212660   5.205  12.748   8.378
36885SOL     OW12661   8.172  11.565   4.072
36885SOL    HW112662  19.189  11.653   4.042
36885SOL    HW212663  41.253 -21.612   4.007
36886SOL     OW12664   2.460   4.140   0.976
36886SOL    HW112665  24.631   4.161  23.073
36886SOL    HW212666  -8.621   4.136  -9.977
36887SOL     OW12667   0.177   6.937   4.713
36887SOL    HW112668   0.255   6.985   4.686
36887SOL    HW212669   0.168   6.956   4.806
36888SOL     OW12670   2.293   1.151   2.973
36888SOL    HW112671   2.280   1.237   2.933
36888SOL    HW212672  13.303   1.163  -7.976
36889SOL     OW12673   3.057   8.117   8.499
36889SOL    HW112674   3.099   8.182  -2.484
36889SOL    HW212675  14.057   8.055   8.560
36890SOL     OW12676   0.969   2.028   5.664
36890SOL    HW112677   1.023   1.987   5.596
36890SOL    HW212678 -10.030   2.114  -5.361
36891SOL     OW12679   4.170   3.608   3.075
36891SOL    HW112680  15.237   3.574   3.160
36891SOL    HW212681   4.177  -7.336   3.085
36892SOL     OW12682   4.008   4.879   4.376
36892SOL    HW112683   4.037   4.961   4.336
36892SOL    HW212684  37.036   4.896  26.482
36893SOL     OW12685   9.479   5.877   8.601
36893SOL    HW112686   9.443   5.792  -2.464
36893SOL    HW212687   9.489   5.925  -2.521
36894SOL     OW12688   1.967   0.711   6.598
36894SOL    HW112689   1.977   0.751   6.511
36894SOL    HW212690   1.994   0.620   6.586
36895SOL     OW12691  10.200   2.700   4.461
36895SOL    HW112692  10.270   2.765   4.463
36895SOL    HW212693  10.240   2.623 -17.658
36896SOL     OW12694   2.921   5.579   6.971
36896SOL    HW112695   2.842 -16.503 -15.163
36896SOL    HW212696  -8.098   5.672   6.978
36897SOL     OW12697   2.423   5.290   4.301
36897SOL    HW112698  -8.548  -5.808   4.268
36897SOL    HW212699   2.468   5.343   4.368
36898SOL     OW12700   7.442   8.486   8.034
36898SOL    HW112701   7.387   8.482   7.956
36898SOL    HW212702  18.438   8.428   8.097
36899SOL     OW12703   6.964   2.118   3.721
36899SOL    HW112704  18.098  13.143   3.713
36899SOL    HW212705   6.945   2.187   3.657
36900SOL     OW12706   1.702   6.673   0.379
36900SOL    HW112707 -20.350   6.667   0.288
36900SOL    HW212708   1.784  17.720  11.468
36901SOL     OW12709   6.645   9.305   5.000
36901SOL    HW112710   6.551   9.311  38.098
36901SOL    HW212711   6.648   9.266   5.087
36902SOL     OW12712   9.020  11.688   8.673
36902SOL    HW112713   8.968 -10.464 -13.439
36902SOL    HW212714   8.981  11.765   8.632
36903SOL     OW12715  10.513   4.331   1.746
36903SOL    HW112716  10.457   4.398  -9.256
36903SOL    HW212717  10.552   4.372   1.668
36904SOL     OW12718   3.816   8.961   3.193
36904SOL    HW112719   3.844  -2.150  47.295
36904SOL    HW212720   3.760   9.016   3.138
36905SOL     OW12721   3.360   1.912   7.435
36905SOL    HW112722   3.440   1.938   7.480
36905SOL    HW212723   3.375   1.820   7.411
36906SOL     OW12724   9.143   6.889   8.440
36906SOL    HW112725   9.050   6.874   8.459
36906SOL    HW212726 -23.968   6.983   8.431
36907SOL     OW12727   1.372   6.973  10.793
36907SOL    HW112728  -9.724   6.936 -33.297
36907SOL    HW212729   1.353  -4.120  10.716
36908SOL     OW12730   1.827   4.191   3.429
36908SOL    HW112731   1.751   4.240  14.436
36908SOL    HW212732  -9.174   4.248   3.496
36909SOL     OW12733   7.232   2.880  10.096
36909SOL    HW112734   7.243   2.851  10.005
36909SOL    HW212735  18.284   2.800  21.187
36910SOL     OW12736   9.631   4.126   7.255
36910SOL    HW112737   9.631 -17.879   7.316
36910SOL    HW212738   9.677   4.056   7.301
36911SOL     OW12739   4.529  10.070   6.935
36911SOL    HW112740  -6.469  21.078   6.855
36911SOL    HW212741 -17.641  10.086   6.910
36912SOL     OW12742   3.363   6.171   0.171
36912SOL    HW112743   3.307   6.161   0.249
36912SOL    HW212744   3.339   6.256   0.135
36913SOL     OW12745   7.060   5.077   3.739
36913SOL    HW112746   7.113  49.163 -18.307
36913SOL    HW212747   7.016   5.042  -7.377
36914SOL     OW12748   8.722   3.350   4.394
36914SOL    HW112749   8.678  25.514   4.406
36914SOL    HW212750   8.720   3.335  -6.740
36915SOL     OW12751   5.852   2.899   4.664
36915SOL    HW112752   5.779   2.837 -17.409
36915SOL    HW212753   5.882   2.893 -17.506
36916SOL     OW12754   2.817   9.058   5.884
36916SOL    HW112755   2.857 -13.036  16.838
36916SOL    HW212756   2.795  20.010   5.916
36917SOL     OW12757   0.245   9.846   4.293
36917SOL    HW112758   0.201   9.901  26.307
36917SOL    HW212759   0.178   9.784   4.322
36918SOL     OW12760   7.418   9.804   8.642
36918SOL    HW112761  18.515  20.843   8.719
36918SOL    HW212762   7.416   9.896  19.655
36919SOL     OW12763   9.966   1.789   5.905
36919SOL    HW112764 -23.207  -9.177  -5.165
36919SOL    HW212765 -12.111   1.799   6.000
36920SOL     OW12766   7.903   6.028   0.634
36920SOL    HW112767   7.946   6.095   0.687
36920SOL    HW212768   7.924   6.051   0.544
36921SOL     OW12769   1.648   7.494   7.459
36921SOL    HW112770  -9.464  18.589   7.488
36921SOL    HW212771  -9.432   7.408  -3.596
36922SOL     OW12772   4.718   4.741   2.554
36922SOL    HW112773   4.778 -17.413   2.546
36922SOL    HW212774  15.809  15.847  24.679
36923SOL     OW12775   4.430   3.650  10.261
36923SOL    HW112776  15.477   3.668  10.168
36923SOL    HW212777   4.435 -18.344  10.303
36924SOL     OW12778   8.944   3.781   4.580
36924SOL    HW112779   8.968 -18.289  26.567
36924SOL    HW212780  30.929   3.800  15.622
36925SOL     OW12781   8.002   9.661   0.478
36925SOL    HW112782   7.908   9.667   0.466
36925SOL    HW212783   8.016   9.687  11.609
36926SOL     OW12784   3.108   2.831   6.683
36926SOL    HW112785  36.261  -8.152   6.752
36926SOL    HW212786 -19.022 -19.315  17.769
36927SOL     OW12787   3.568   6.755   6.331
36927SOL    HW112788   3.655   6.786   6.358
36927SOL    HW212789   3.577   6.660  17.365
36928SOL     OW12790   9.472   4.783   4.102
36928SOL    HW112791   9.547   4.840   4.121
36928SOL    HW212792   9.396   4.838 -29.000
36929SOL     OW12793   3.377   6.058   2.092
36929SOL    HW112794   3.467   6.025   2.097
36929SOL    HW212795   3.381   6.126   2.024
36930SOL     OW12796   1.686   3.516  -0.815
36930SOL    HW112797   1.727   3.594  -0.853
36930SOL    HW212798  -9.429 -18.580  21.209
36931SOL     OW12799   9.268  -2.011  11.049
36931SOL    HW112800   9.193  -2.031 -22.125
36931SOL    HW212801  -1.745  42.062  11.084
36932SOL     OW12802   4.086   2.121   5.155
36932SOL    HW112803  15.128   2.212  16.223
36932SOL    HW212804  15.218   2.097   5.144
36933SOL     OW12805   5.546   9.035   1.145
36933SOL    HW112806 -16.512   8.993   1.061
36933SOL    HW212807   5.450   9.035   1.149
36934SOL     OW12808   4.187   2.874  10.930
36934SOL    HW112809  -6.939   2.867  10.891
36934SOL    HW212810   4.171   2.874  11.025
36935SOL     OW12811  10.763   9.989   0.510
36935SOL    HW112812  10.760  21.060  22.679
36935SOL    HW212813  -0.349  -1.006   0.466
36936SOL     OW12814   0.240   2.130  -0.497
36936SOL    HW112815   0.261   2.057  -0.556
36936SOL    HW212816   0.255   2.208  32.569
36937SOL     OW12817   1.908   4.309   6.285
36937SOL    HW112818  35.112   4.267   6.274
36937SOL    HW212819  23.924   4.239  17.309
36938SOL     OW12820  10.651   3.593   7.067
36938SOL    HW112821  10.701   3.559   6.993
36938SOL    HW212822  10.639   3.518   7.125
36939SOL     OW12823   8.692   4.720   0.235
36939SOL    HW112824   8.736 -17.405  22.243
36939SOL    HW212825   8.621   4.661   0.263
36940SOL     OW12826   0.965  10.504   8.756
36940SOL    HW112827  23.065  10.497  -2.376
36940SOL    HW212828   1.047  10.530   8.798
36941SOL     OW12829   5.351   6.704  -0.303
36941SOL    HW112830   5.307  17.729  -0.387
36941SOL    HW212831   5.424   6.763  21.755
36942SOL     OW12832   3.575   0.436   1.579
36942SOL    HW112833   3.490   0.451   1.619
36942SOL    HW212834   3.587   0.341  12.624
36943SOL     OW12835   5.676   9.371   6.600
36943SOL    HW112836   5.703  20.321   6.578
36943SOL    HW212837   5.643   9.365   6.690
36944SOL     OW12838   7.056   4.223   1.232
36944SOL    HW112839 -15.017   4.131   1.209
36944SOL    HW212840   7.009   4.263   1.159
36945SOL     OW12841   4.658   9.193   0.324
36945SOL    HW112842   4.643  -1.933   0.287
36945SOL    HW212843   4.699   9.243  33.371
36946SOL     OW12844   2.301   1.962   9.620
36946SOL    HW112845   2.358   2.035 -12.436
36946SOL    HW212846   2.277   1.922   9.704
36947SOL     OW12847   5.891   4.815   0.163
36947SOL    HW112848   5.969  -6.278   0.180
36947SOL    HW212849   5.915   4.902   0.193
36948SOL     OW12850   7.289   0.146   6.611
36948SOL    HW112851   7.226   0.179   6.676
36948SOL    HW212852   7.234   0.119  17.576
36949SOL     OW12853   3.045   5.316   3.678
36949SOL    HW112854   3.116  16.352   3.613
36949SOL    HW212855   3.084   5.282  -7.282
36950SOL     OW12856   4.027   0.035   5.531
36950SOL    HW112857   4.010  -0.009  -5.426
36950SOL    HW212858  15.095  11.005  16.511
36951SOL     OW12859   5.362  10.977   3.492
36951SOL    HW112860   5.399  10.989   3.405
36951SOL    HW212861   5.302  -0.137   3.482
36952SOL     OW12862   1.863   9.952   1.193
36952SOL    HW112863   1.958   9.945   1.181
36952SOL    HW212864   1.842  10.042   1.169
36953SOL     OW12865   3.383   8.066   5.438
36953SOL    HW112866   3.475   8.048  -5.617
36953SOL    HW212867  -7.666   8.160   5.423
36954SOL     OW12868   7.812   2.109   3.176
36954SOL    HW112869 -14.360  35.216   3.159
36954SOL    HW212870  -3.217   2.202   3.196
36955SOL     OW12871   9.205   8.522   1.302
36955SOL    HW112872   9.184   8.522   1.208
36955SOL    HW212873   9.294  19.526   1.306
36956SOL     OW12874   3.227   5.144  10.747
36956SOL    HW112875   3.210   5.136  -0.386
36956SOL    HW212876   3.184   5.225  10.773
36957SOL     OW12877  10.630   2.137   1.225
36957SOL    HW112878  10.674  35.341   1.225
36957SOL    HW212879  10.657  46.255   1.143
36958SOL     OW12880  10.702   9.514   0.280
36958SOL    HW112881  -0.253  31.557  11.294
36958SOL    HW212882  10.654  -1.600   0.318
36959SOL     OW12883   1.401   9.296   6.421
36959SOL    HW112884  23.456   9.203   6.427
36959SOL    HW212885   1.359   9.326   6.340
36960SOL     OW12886   7.903  10.232   2.435
36960SOL    HW112887  -3.145  10.297   2.505
36960SOL    HW212888   7.820  10.184  -8.603
36961SOL     OW12889   3.237   9.458   5.689
36961SOL    HW112890  -7.887   9.502  -5.340
36961SOL    HW212891   3.297   9.526  16.697
36962SOL     OW12892   9.125  10.748   3.575
36962SOL    HW112893   9.114  10.842   3.590
36962SOL    HW212894 -34.954  10.726   3.623
36963SOL     OW12895   4.856   9.742   5.305
36963SOL    HW112896   4.942  -1.258 -27.818
36963SOL    HW212897   4.805   9.800   5.361
36964SOL     OW12898   1.486   0.776   4.865
36964SOL    HW112899   1.460   0.688   4.837
36964SOL    HW212900   1.452   0.783   4.954
36965SOL     OW12901   4.820   3.316   2.713
36965SOL    HW112902   4.870   3.259   2.654
36965SOL    HW212903   4.736   3.271   2.723
36966SOL     OW12904   4.252   7.477   5.429
36966SOL    HW112905  -6.705  -3.542  -5.655
36966SOL    HW212906   4.266   7.391   5.468
36967SOL     OW12907   8.068   2.959   6.999
36967SOL    HW112908  -2.983   2.894   6.930
36967SOL    HW212909   8.154   2.941  18.075
36968SOL     OW12910   2.098   8.798   6.306
36968SOL    HW112911   2.121   8.891   6.303
36968SOL    HW212912   2.007   8.797   6.337
36969SOL     OW12913   6.870   0.096   2.862
36969SOL    HW112914   6.936   0.155 -19.181
36969SOL    HW212915 -15.161   0.016  24.919
36970SOL     OW12916   0.384   4.456   3.693
36970SOL    HW112917   0.480   4.449   3.693
36970SOL    HW212918  11.397   4.416  -7.264
36971SOL     OW12919   6.247   2.208   7.257
36971SOL    HW112920  -4.821   2.126   7.217
36971SOL    HW212921 -15.795  -8.781   7.185
36972SOL     OW12922   8.634  10.541   1.074
36972SOL    HW112923   8.726  10.515   1.068
36972SOL    HW212924  19.646  10.512   1.161
36973SOL     OW12925   0.889   5.250   7.310
36973SOL    HW112926  33.955   5.309   7.365
36973SOL    HW212927   0.978  -5.777   7.341
36974SOL     OW12928  -2.411   8.856  -0.122
36974SOL    HW112929  52.707   8.822  -0.082
36974SOL    HW212930  -2.351  30.861  10.916
36975SOL     OW12931  11.017   1.315   2.509
36975SOL    HW112932  10.933  -9.692  13.581
36975SOL    HW212933  11.023   1.349   2.420
36976SOL     OW12934   7.889   2.160   3.515
36976SOL    HW112935  30.030   2.169   3.443
36976SOL    HW212936  29.882   2.159  14.513
36977SOL     OW12937   6.446   8.855   9.562
36977SOL    HW112938   6.413   8.796  -1.409
36977SOL    HW212939   6.482   8.930   9.610
36978SOL     OW12940   0.986   7.620   7.164
36978SOL    HW112941   0.924   7.580   7.224
36978SOL    HW212942   0.999   7.708   7.199
36979SOL     OW12943   1.572  10.922   6.456
36979SOL    HW112944  23.621  10.862   6.388
36979SOL    HW212945   1.492  10.947   6.502
36980SOL     OW12946   2.748   7.668   4.612
36980SOL    HW112947   2.785   7.737  15.597
36980SOL    HW212948   2.655   7.668  26.670
36981SOL     OW12949   2.856   1.811   2.490
36981SOL    HW112950   2.840  -9.161  24.635
36981SOL    HW212951  13.884   1.856  24.485
36982SOL     OW12952   6.316   5.483  10.265
36982SOL    HW112953   6.330 -16.504  10.247
36982SOL    HW212954  -4.643   5.440  10.238
36983SOL     OW12955   0.692  10.165   1.713
36983SOL    HW112956   0.689 -11.963   1.795
36983SOL    HW212957 -10.302  10.247   1.735
36984SOL     OW12958  10.775   6.140   5.135
36984SOL    HW112959  10.808   6.109   5.220
36984SOL    HW212960 -11.236   6.114   5.073
36985SOL     OW12961  12.999   3.580   2.485
36985SOL    HW112962 -20.204   3.624   2.483
36985SOL    HW212963   1.944   3.498  -8.602
36986SOL     OW12964   8.850   3.870   1.850
36986SOL    HW112965  30.899   3.908  -9.272
36986SOL    HW212966   8.838   3.776   1.840
36987SOL     OW12967   7.667   6.911   7.288
36987SOL    HW112968  29.660   6.910   7.247
36987SOL    HW212969   7.729   6.919   7.215
36988SOL     OW12970   0.018   5.107   4.227
36988SOL    HW112971  11.104   5.189   4.245
36988SOL    HW212972   0.058   5.075   4.145
36989SOL     OW12973   5.506   4.417   3.213
36989SOL    HW112974  -5.586   4.445   3.138
36989SOL    HW212975   5.582   4.374  14.214
36990SOL     OW12976  12.139   3.266   2.048
36990SOL    HW112977  12.056   3.312  13.076
36990SOL    HW212978  -9.887  14.333  -9.067
36991SOL     OW12979   4.477  10.680   4.528
36991SOL    HW112980   4.460  10.774  15.577
36991SOL    HW212981   4.456  10.643   4.613
36992SOL     OW12982   6.504   8.861   0.226
36992SOL    HW112983  17.509   8.831   0.141
36992SOL    HW212984  28.606  -2.259   0.272
36993SOL     OW12985   6.533   4.092   2.055
36993SOL    HW112986   6.496   4.068 -20.109
36993SOL    HW212987   6.628  -6.947   2.041
36994SOL     OW12988   6.532  10.687   1.996
36994SOL    HW112989  39.709  10.623   1.955
36994SOL    HW212990   6.518 -11.425   2.084
36995SOL     OW12991   6.613   1.827   6.766
36995SOL    HW112992   6.556   1.845 -15.388
36995SOL    HW212993   6.609   1.732   6.776
36996SOL     OW12994   1.592   6.160   6.982
36996SOL    HW112995  -9.387  28.168   7.000
36996SOL    HW212996  12.627   6.165  17.926
36997SOL     OW12997   1.349   7.295   1.184
36997SOL    HW112998   1.340   7.390   1.178
36997SOL    HW212999   1.441  18.318   1.163
36998SOL     OW13000   4.261   5.728   4.280
36998SOL    HW113001   4.303   5.803 -28.882
36998SOL    HW213002  -6.706   5.667 -17.783
36999SOL     OW13003   8.827   5.640   9.264
36999SOL    HW113004   8.790   5.603  31.263
36999SOL    HW213005   8.752   5.665 -34.842
37000SOL     OW13006   9.045   0.981   8.432
37000SOL    HW113007 -24.160   1.021   8.430
37000SOL    HW213008 -24.089   0.887  -2.614
37001SOL     OW13009   3.441   8.848   0.827
37001SOL    HW113010   3.369   8.841   0.891
37001SOL    HW213011   3.400   8.829   0.743
37002SOL     OW13012  10.244   7.300   2.871
37002SOL    HW113013  10.339   7.316   2.877
37002SOL    HW213014  21.244   7.375   2.915
37003SOL     OW13015   3.476   0.639   9.380
37003SOL    HW113016   3.463  22.699   9.473
37003SOL    HW213017   3.485   0.734  20.416
37004SOL     OW13018  11.605  10.030   7.271
37004SOL    HW113019 -21.537   9.960   7.332
37004SOL    HW213020 -10.401  -0.964  -3.727
37005SOL     OW13021   1.907   1.008   8.173
37005SOL    HW113022 -20.197   0.940 -24.882
37005SOL    HW213023  -9.081  -9.969   8.223
37006SOL     OW13024  11.050   5.042   2.056
37006SOL    HW113025  10.979   5.063  13.156
37006SOL    HW213026   0.083  27.093  24.191
37007SOL     OW13027  10.732   4.834   3.140
37007SOL    HW113028  10.767  26.897   3.227
37007SOL    HW213029  -0.241  15.926 -18.983
37008SOL     OW13030   0.720   1.743   9.382
37008SOL    HW113031   0.798   1.772  20.468
37008SOL    HW213032   0.750   1.667   9.332
37009SOL     OW13033  -0.742   8.794   5.856
37009SOL    HW113034  -0.754   8.790   5.761
37009SOL    HW213035  21.433  19.834   5.868
37010SOL     OW13036  11.037  11.015   6.328
37010SOL    HW113037  10.995  10.938   6.367
37010SOL    HW213038  -0.008  11.001   6.234
37011SOL     OW13039  -1.028  11.047   5.943
37011SOL    HW113040  21.068  11.054   6.037
37011SOL    HW213041  -1.031  -0.086   5.926
37012SOL     OW13042   0.186   7.909   2.057
37012SOL    HW113043   0.121   7.978   2.038
37012SOL    HW213044  22.260   7.897  46.310
37013SOL     OW13045   0.358   9.702   1.712
37013SOL    HW113046   0.419   9.653 -20.422
37013SOL    HW213047   0.272   9.686   1.673
37014SOL     OW13048   2.898   2.442   5.873
37014SOL    HW113049   2.922  13.475   5.781
37014SOL    HW213050   2.843   2.521   5.877
37015SOL     OW13051  11.973  -0.498   4.587
37015SOL    HW113052  11.889  -0.536   4.613
37015SOL    HW213053 -10.041  10.494   4.639
37016SOL     OW13054   6.664   1.382   2.858
37016SOL    HW113055   6.633   1.429   2.936
37016SOL    HW213056   6.750  12.459   2.840
37017SOL     OW13057   2.009   3.277   8.429
37017SOL    HW113058   1.955  -7.719  -2.546
37017SOL    HW213059  -8.990  14.387   8.379
37018SOL     OW13060   3.598   4.431  -0.245
37018SOL    HW113061   3.686   4.443  10.760
37018SOL    HW213062  14.644   4.353  -0.190
37019SOL     OW13063   9.374   7.323   1.938
37019SOL    HW113064   9.377   7.234   1.971
37019SOL    HW213065   9.452   7.365   1.975
37020SOL     OW13066   3.901   6.214   2.789
37020SOL    HW113067   3.850   6.197 -19.369
37020SOL    HW213068   3.975   6.153  -8.256
37021SOL     OW13069   5.352   7.506   2.648
37021SOL    HW113070   5.348   7.601   2.638
37021SOL    HW213071  27.516   7.490   2.689
37022SOL     OW13072   6.206   7.499   0.838
37022SOL    HW113073   6.145  -3.614   0.842
37022SOL    HW213074 -37.944 -25.591   0.929
37023SOL     OW13075   6.308   6.996   2.382
37023SOL    HW113076  17.354  28.980   2.376
37023SOL    HW213077   6.224  18.051   2.425
37024SOL     OW13078   8.929   2.357  10.982
37024SOL    HW113079   9.024   2.344 -11.104
37024SOL    HW213080   8.918   2.452  -0.048
37025SOL     OW13081   3.289   9.739   0.843
37025SOL    HW113082   3.275   9.655   0.798
37025SOL    HW213083   3.215   9.746   0.903
37026SOL     OW13084   1.698   9.666   9.593
37026SOL    HW113085   1.676   9.639   9.682
37026SOL    HW213086   1.652  -1.290   9.581
37027SOL     OW13087   6.306   9.491  10.391
37027SOL    HW113088   6.347   9.450  10.315
37027SOL    HW213089   6.213  20.508  -0.657
37028SOL     OW13090  -0.644   2.968  10.425
37028SOL    HW113091  -0.598   2.919  10.494
37028SOL    HW213092  21.505  -8.032  10.373
37029SOL     OW13093   6.116   2.191   7.955
37029SOL    HW113094   6.117  -8.786   7.882
37029SOL    HW213095 -49.111  -8.931 -14.164
37030SOL     OW13096   3.143   6.837  -0.584
37030SOL    HW113097   3.179 -15.331  -0.587
37030SOL    HW213098  -7.968  17.872  10.520
37031SOL     OW13099   1.858   2.019  13.651
37031SOL    HW113100  23.922   1.969 -19.548
37031SOL    HW213101   1.813 -31.017 -19.482
37032SOL     OW13102   4.945  11.604   6.375
37032SOL    HW113103   4.953   0.471   6.391
37032SOL    HW213104   4.854  11.625 -15.683
37033SOL     OW13105   5.587   3.789   7.911
37033SOL    HW113106   5.516   3.730   7.937
37033SOL    HW213107   5.642   3.797   7.989
37034SOL     OW13108   2.402   6.466  11.466
37034SOL    HW113109   2.373  -4.499   0.373
37034SOL    HW213110   2.322  28.508   0.462
37035SOL     OW13111   0.808   7.676   5.594
37035SOL    HW113112   0.836  18.626   5.615
37035SOL    HW213113   0.884   7.730   5.617
37036SOL     OW13114   5.036   1.930   5.719
37036SOL    HW113115   4.953   1.882   5.725
37036SOL    HW213116   5.039   1.960   5.628
37037SOL     OW13117   4.006   0.468   0.310
37037SOL    HW113118  15.054   0.542   0.251
37037SOL    HW213119  15.132   0.459   0.350
37038SOL     OW13120   8.768  10.127   2.361
37038SOL    HW113121   8.722  10.097 -19.639
37038SOL    HW213122   8.838  10.183   2.394
37039SOL     OW13123   4.965   1.403   3.408
37039SOL    HW113124   4.883   1.381   3.363
37039SOL    HW213125   4.996   1.483   3.364
37040SOL     OW13126   6.158   1.025   5.155
37040SOL    HW113127  17.102  12.058   5.155
37040SOL    HW213128  17.220   1.056   5.243
37041SOL     OW13129   4.478   4.974   1.606
37041SOL    HW113130  26.501  -6.137  23.655
37041SOL    HW213131   4.419   5.035   1.650
37042SOL     OW13132   5.880   1.114   2.317
37042SOL    HW113133  -5.134   1.146  24.309
37042SOL    HW213134   5.786   1.126  13.360
37043SOL     OW13135  10.375   2.389   2.364
37043SOL    HW113136  -0.653   2.404  24.349
37043SOL    HW213137  10.453   2.339  13.429
37044SOL     OW13138   0.584   1.784   1.270
37044SOL    HW113139  22.603   1.712   1.285
37044SOL    HW213140   0.668   1.743   1.249
37045SOL     OW13141  11.003   2.904   5.734
37045SOL    HW113142  10.916   2.943   5.743
37045SOL    HW213143  10.986   2.817   5.698
37046SOL     OW13144   9.965   6.617   8.397
37046SOL    HW113145   9.961   6.522  19.450
37046SOL    HW213146   9.976   6.628 -13.776
37047SOL     OW13147   4.463   6.770   2.237
37047SOL    HW113148   4.417   6.689  35.379
37047SOL    HW213149   4.418  -4.201  -8.753
37048SOL     OW13150   1.514   2.101   1.650
37048SOL    HW113151   1.440   2.060   1.696
37048SOL    HW213152   1.532   2.181   1.699
37049SOL     OW13153  10.815  11.305  -0.339
37049SOL    HW113154  10.751  11.346  -0.396
37049SOL    HW213155  10.875   0.336  10.725
37050SOL     OW13156   9.239   0.574   0.450
37050SOL    HW113157  -1.800   0.487   0.489
37050SOL    HW213158  20.191   0.583   0.413
37051SOL     OW13159   9.387   9.251   4.507
37051SOL    HW113160  20.399  -1.720   4.446
37051SOL    HW213161   9.473   9.224   4.476
37052SOL     OW13162   0.355   1.608   7.264
37052SOL    HW113163   0.354   1.553   7.185
37052SOL    HW213164   0.416 -20.400  18.282
37053SOL     OW13165   8.301  10.809   7.188
37053SOL    HW113166   8.213  10.771   7.186
37053SOL    HW213167  -2.747  10.891  18.178
37054SOL     OW13168   7.293   7.100   6.954
37054SOL    HW113169   7.345   7.030   6.915
37054SOL    HW213170   7.322   7.179   6.909
37055SOL     OW13171   3.694  10.946   0.815
37055SOL    HW113172   3.769  10.926   0.758
37055SOL    HW213173   3.618  10.936   0.758
37056SOL     OW13174   9.977   5.336   0.302
37056SOL    HW113175   9.956   5.332   0.208
37056SOL    HW213176   9.971   5.246  22.411
37057SOL     OW13177   2.803   1.964   2.730
37057SOL    HW113178   2.892   1.939   2.753
37057SOL    HW213179   2.752   1.944 -19.271
37058SOL     OW13180   2.383   3.982   2.744
37058SOL    HW113181   2.363   3.888   2.742
37058SOL    HW213182   2.332   4.016   2.818
37059SOL     OW13183   1.402  10.677   2.549
37059SOL    HW113184  12.517  10.649   2.497
37059SOL    HW213185  23.505  10.764   2.582
37060SOL     OW13186  -0.825   8.243   6.119
37060SOL    HW113187  10.192   8.302   6.047
37060SOL    HW213188  32.211   8.229   6.165
37061SOL     OW13189   8.334   7.871   1.761
37061SOL    HW113190   8.361  -3.086   1.722
37061SOL    HW213191  30.408   7.889   1.855
37062SOL     OW13192   4.072   2.313   3.258
37062SOL    HW113193   4.041   2.331   3.170
37062SOL    HW213194   4.070  -8.822   3.265
37063SOL     OW13195   6.266   3.594   7.234
37063SOL    HW113196  17.380 -18.515   7.182
37063SOL    HW213197   6.189   3.559   7.188
37064SOL     OW13198   9.215   3.232   1.427
37064SOL    HW113199   9.261  14.319   1.496
37064SOL    HW213200   9.282   3.216   1.360
37065SOL     OW13201   3.082   1.777   1.414
37065SOL    HW113202 -19.026   1.832   1.486
37065SOL    HW213203  -7.924   1.838  23.427
37066SOL     OW13204   6.623  10.825   7.630
37066SOL    HW113205   6.540  10.828   7.582
37066SOL    HW213206   6.682  10.775   7.574
37067SOL     OW13207   9.469   1.164   7.339
37067SOL    HW113208   9.459   1.096   7.406
37067SOL    HW213209   9.446   1.246  29.462
37068SOL     OW13210   0.520   0.029   4.770
37068SOL    HW113211   0.555  22.129   4.684
37068SOL    HW213212   0.521   0.112  -6.222
37069SOL     OW13213   1.699   9.288   4.282
37069SOL    HW113214   1.632  -1.726   4.344
37069SOL    HW213215  23.769   9.193   4.273
37070SOL     OW13216   4.603   8.431   7.216
37070SOL    HW113217   4.534   8.394   7.161
37070SOL    HW213218   4.557  -2.551  -3.763
37071SOL     OW13219   5.927   6.356   0.476
37071SOL    HW113220   5.865   6.426   0.496
37071SOL    HW213221   5.931  -4.687   0.381
37072SOL     OW13222   2.766   4.228  11.741
37072SOL    HW113223   2.780   4.234  11.835
37072SOL    HW213224   2.845   4.185 -10.372
37073SOL     OW13225   6.467   5.543  10.989
37073SOL    HW113226   6.488  16.600  10.897
37073SOL    HW213227   6.497   5.454  11.005
37074SOL     OW13228   4.973   7.230   4.100
37074SOL    HW113229   5.033   7.270 -28.956
37074SOL    HW213230   4.929  -3.879  -6.890
37075SOL     OW13231   0.867   8.024   8.517
37075SOL    HW113232   0.873   7.953   8.581
37075SOL    HW213233   0.813  19.028  -2.593
37076SOL     OW13234   1.934   7.712   0.166
37076SOL    HW113235   2.020  -3.297   0.137
37076SOL    HW213236  12.964 -14.330   0.254
37077SOL     OW13237   5.334  -0.289   0.495
37077SOL    HW113238   5.354  21.831   0.411
37077SOL    HW213239  49.550  10.794   0.557
37078SOL     OW13240   5.435   3.180   2.608
37078SOL    HW113241  -5.530 -18.842   2.592
37078SOL    HW213242   5.366 -29.880   2.641
37079SOL     OW13243   9.706  -0.911   4.403
37079SOL    HW113244   9.660  -0.987   4.438
37079SOL    HW213245   9.643  21.240   4.412
37080SOL     OW13246   7.300  12.075   4.965
37080SOL    HW113247   7.283  12.117  27.128
37080SOL    HW213248   7.318 -21.135 -17.093
37081SOL     OW13249   1.733   2.947   4.415
37081SOL    HW113250   1.688   2.871   4.379
37081SOL    HW213251   1.824  -8.120   4.423
37082SOL     OW13252   2.761   5.709   0.180
37082SOL    HW113253   2.732   5.642  22.197
37082SOL    HW213254   2.680   5.750   0.210
37083SOL     OW13255   5.454   2.258   1.049
37083SOL    HW113256   5.504  13.220  34.192
37083SOL    HW213257   5.385  35.383   1.114
37084SOL     OW13258   9.624   3.343  10.599
37084SOL    HW113259  20.717   3.420 -11.462
37084SOL    HW213260   9.612  -7.738  10.684
37085SOL     OW13261   3.780   4.903   8.611
37085SOL    HW113262   3.835  -6.081   8.667
37085SOL    HW213263   3.834   4.885   8.534
37086SOL     OW13264   2.743   6.686   6.978
37086SOL    HW113265   2.754  -4.448   6.989
37086SOL    HW213266   2.677   6.710  29.121
37087SOL     OW13267   2.449   1.543   2.819
37087SOL    HW113268  -8.577   1.607   2.749
37087SOL    HW213269   2.485  -9.456   2.897
37088SOL     OW13270   6.193   3.658  10.028
37088SOL    HW113271   6.116   3.627   9.980
37088SOL    HW213272   6.247   3.580  -0.999
37089SOL     OW13273   3.754   9.214   3.593
37089SOL    HW113274  14.767   9.124   3.614
37089SOL    HW213275  36.851  -1.816   3.500
37090SOL     OW13276   1.340   1.937   5.763
37090SOL    HW113277   1.375   2.026  27.853
37090SOL    HW213278   1.357   1.917   5.670
37091SOL     OW13279   6.528   6.966   1.083
37091SOL    HW113280  28.659   6.894  -9.992
37091SOL    HW213281   6.473   6.995   1.011
37092SOL     OW13282   0.518   7.412   3.853
37092SOL    HW113283   0.546   7.391   3.764
37092SOL    HW213284   0.538   7.505   3.863
37093SOL     OW13285  11.484   2.646   6.200
37093SOL    HW113286  11.544   2.577  17.212
37093SOL    HW213287 -10.585   2.715  39.253
37094SOL     OW13288   1.579   8.636   2.315
37094SOL    HW113289  23.609   8.676   2.387
37094SOL    HW213290  -9.470  19.737 -19.837
37095SOL     OW13291   3.924   0.762   5.716
37095SOL    HW113292   3.846  22.884  16.722
37095SOL    HW213293 -40.224   0.684  16.701
37096SOL     OW13294   9.838  -0.500   0.360
37096SOL    HW113295   9.903  -0.432  22.461
37096SOL    HW213296   9.858  10.516 -10.771
37097SOL     OW13297  -0.596   5.268   8.138
37097SOL    HW113298  21.413   5.317   8.182
37097SOL    HW213299 -11.639   5.181  41.296
37098SOL     OW13300   2.542   4.804   1.425
37098SOL    HW113301   2.549  15.749   1.437
37098SOL    HW213302   2.500   4.835   1.506
37099SOL     OW13303   5.964   8.454   0.485
37099SOL    HW113304   5.962   8.550   0.476
37099SOL    HW213305   5.883   8.433   0.531
37100SOL     OW13306   2.132   6.002   3.143
37100SOL    HW113307  24.232   5.957   3.225
37100SOL    HW213308   2.077   5.939   3.095
37101SOL     OW13309  -2.441   1.087   5.576
37101SOL    HW113310  30.594  12.087   5.549
37101SOL    HW213311  30.653 -20.912   5.621
37102SOL     OW13312   2.019   2.984   4.342
37102SOL    HW113313  24.062   3.058   4.293
37102SOL    HW213314  24.095   2.911   4.281
37103SOL     OW13315   9.077   1.448   0.776
37103SOL    HW113316   8.987   1.441   0.808
37103SOL    HW213317  -1.961   1.530   0.727
37104SOL     OW13318  10.201   7.598   6.584
37104SOL    HW113319  10.244   7.677   6.619
37104SOL    HW213320 -33.905   7.526   6.618
37105SOL     OW13321   8.954   2.180   2.663
37105SOL    HW113322  -2.110  24.333   2.719
37105SOL    HW213323   8.873   2.130   2.652
37106SOL     OW13324   1.369   8.220   3.749
37106SOL    HW113325   1.307  -2.857   3.687
37106SOL    HW213326 -20.727   8.174  14.871
37107SOL     OW13327   5.840   2.624   2.159
37107SOL    HW113328   5.930   2.655   2.164
37107SOL    HW213329   5.791   2.699   2.125
37108SOL     OW13330   3.765   7.017   1.600
37108SOL    HW113331   3.783 -15.130   1.535
37108SOL    HW213332  -7.188  -3.991   1.626
37109SOL     OW13333   8.932   5.769   9.006
37109SOL    HW113334   8.974  -5.355   9.024
37109SOL    HW213335   9.002 -16.255   8.973
37110SOL     OW13336   1.575   8.280   3.349
37110SOL    HW113337   1.517   8.205  -7.683
37110SOL    HW213338   1.662 -13.833  14.411
37111SOL     OW13339   3.254   3.170   5.299
37111SOL    HW113340   3.219   3.143   5.383
37111SOL    HW213341   3.179  36.284   5.239
37112SOL     OW13342   2.798   4.173   9.167
37112SOL    HW113343  13.927  -6.899   9.163
37112SOL    HW213344   2.748   4.116   9.109
37113SOL     OW13345   6.361   7.220   3.524
37113SOL    HW113346   6.374  51.375   3.429
37113SOL    HW213347  -4.774   7.212   3.535
37114SOL     OW13348   9.224   1.128   6.298
37114SOL    HW113349   9.253  -9.977   6.234
37114SOL    HW213350   9.132   1.143   6.277
37115SOL     OW13351   4.536   2.422   6.966
37115SOL    HW113352   4.520   2.354  -4.139
37115SOL    HW213353   4.569   2.497   6.916
37116SOL     OW13354   1.194  10.312   6.558
37116SOL    HW113355   1.186  -0.633   6.549
37116SOL    HW213356   1.128  10.289  50.782
37117SOL     OW13357   9.632   6.449   6.213
37117SOL    HW113358   9.551   6.450   6.264
37117SOL    HW213359   9.619   6.378  -4.890
37118SOL     OW13360   4.556   0.867   1.596
37118SOL    HW113361   4.601 -10.124   1.526
37118SOL    HW213362  37.715   0.900   1.677
37119SOL     OW13363  10.533   7.798  11.561
37119SOL    HW113364  -0.531   7.866  11.498
37119SOL    HW213365  10.557  -3.193   0.600
37120SOL     OW13366   6.288  10.300   5.659
37120SOL    HW113367  -4.693  10.289  -5.305
37120SOL    HW213368  17.363  10.241   5.593
37121SOL     OW13369   0.957  10.148  10.218
37121SOL    HW113370   0.899  21.117  21.287
37121SOL    HW213371   1.042  10.127  -0.782
37122SOL     OW13372   9.729   8.676   7.882
37122SOL    HW113373   9.801   8.713   7.932
37122SOL    HW213374  -1.278   8.591   7.852
37123SOL     OW13375   9.688  11.867   0.251
37123SOL    HW113376   9.781  11.868   0.232
37123SOL    HW213377   9.675 -10.290  11.345
37124SOL     OW13378  10.680   1.288   3.819
37124SOL    HW113379  10.719   1.281   3.906
37124SOL    HW213380  10.586   1.285   3.835
37125SOL     OW13381   1.783   1.301   9.757
37125SOL    HW113382   1.865  -9.751   9.806
37125SOL    HW213383   1.754   1.389   9.781
37126SOL     OW13384   4.303   6.978   1.368
37126SOL    HW113385 -17.852   6.941   1.412
37126SOL    HW213386 -17.703   6.958   1.425
37127SOL     OW13387   4.228   2.500   5.811
37127SOL    HW113388  15.245   2.592   5.796
37127SOL    HW213389   4.144   2.458   5.832
37128SOL     OW13390   8.112   7.937   5.067
37128SOL    HW113391   8.090   7.939   4.974
37128SOL    HW213392  30.277   7.978  16.112
37129SOL     OW13393   1.655   4.791   1.058
37129SOL    HW113394   1.620   4.876   1.085
37129SOL    HW213395  12.758   4.769   1.126
37130SOL     OW13396   1.600   6.628   9.757
37130SOL    HW113397   1.574   6.720  31.834
37130SOL    HW213398   1.644   6.617   9.841
37131SOL     OW13399   3.238   9.448   4.978
37131SOL    HW113400 -29.841   9.535  16.025
37131SOL    HW213401   3.274   9.413   4.897
37132SOL     OW13402   5.844   1.348  -0.729
37132SOL    HW113403   5.814  23.347  21.393
37132SOL    HW213404   5.769  45.533  -0.783
37133SOL     OW13405   1.093   4.823   3.464
37133SOL    HW113406   1.172  15.915   3.451
37133SOL    HW213407   1.117   4.761   3.532
37134SOL     OW13408   3.186   1.814   9.008
37134SOL    HW113409   3.196   1.810   8.912
37134SOL    HW213410 -18.975   1.860  20.061
37135SOL     OW13411   9.867   4.877   3.360
37135SOL    HW113412   9.922   4.887 -18.797
37135SOL    HW213413   9.882   4.787  -7.650
37136SOL     OW13414   0.831   9.066   2.729
37136SOL    HW113415   0.909   9.099   2.684
37136SOL    HW213416   0.775   9.033   2.659
37137SOL     OW13417  10.954   2.447   2.480
37137SOL    HW113418  10.984  13.560  13.572
37137SOL    HW213419 -11.151  13.525   2.396
37138SOL     OW13420   1.616   9.382   3.090
37138SOL    HW113421  -9.450   9.335   3.012
37138SOL    HW213422   1.690   9.436   3.062
37139SOL     OW13423   7.608   9.064   6.366
37139SOL    HW113424   7.550  42.143  -4.739
37139SOL    HW213425   7.583   9.023   6.449
37140SOL     OW13426   6.663   1.421   8.769
37140SOL    HW113427   6.752   1.393   8.789
37140SOL    HW213428   6.641  12.523 -13.241
37141SOL     OW13429   1.615   6.101   8.372
37141SOL    HW113430   1.705   6.127   8.392
37141SOL    HW213431   1.570   6.102  19.496
37142SOL     OW13432   6.660   2.008   7.582
37142SOL    HW113433   6.620   1.942   7.638
37142SOL    HW213434   6.678   2.082  -3.399
37143SOL     OW13435  10.556   0.884   5.122
37143SOL    HW113436  10.569 -10.218   5.194
37143SOL    HW213437  10.478   0.853  -5.963
37144SOL     OW13438   4.145   8.351   5.361
37144SOL    HW113439  15.193  41.425  -5.763
37144SOL    HW213440  15.251   8.420  16.397
37145SOL     OW13441   2.425   8.698   4.623
37145SOL    HW113442   2.349   8.753   4.606
37145SOL    HW213443   2.441   8.652   4.541
37146SOL     OW13444   8.954   1.814  -1.054
37146SOL    HW113445  42.084   1.841  -1.145
37146SOL    HW213446   8.936   1.895  21.072
37147SOL     OW13447   0.100   9.073   0.674
37147SOL    HW113448   0.150  31.224   0.712
37147SOL    HW213449   0.009   9.095  22.769
37148SOL     OW13450   9.854   1.101  10.595
37148SOL    HW113451   9.822  23.172  10.685
37148SOL    HW213452   9.829   1.189  10.568
37149SOL     OW13453   4.128   1.270  10.113
37149SOL    HW113454   4.060  23.396  10.163
37149SOL    HW213455   4.110   1.178  -0.911
37150SOL     OW13456   2.026   5.395   3.989
37150SOL    HW113457 -31.033   5.375   4.061
37150SOL    HW213458   1.977  16.512 -29.100
37151SOL     OW13459   6.158  -0.934   5.099
37151SOL    HW113460   6.078  -0.888   5.072
37151SOL    HW213461   6.172  32.119   5.031
37152SOL     OW13462   5.507   4.684   4.131
37152SOL    HW113463  -5.602  15.786   4.111
37152SOL    HW213464   5.536  26.731   4.045
37153SOL     OW13465   3.236   5.819  11.312
37153SOL    HW113466 -18.905  16.932   0.267
37153SOL    HW213467   3.280   5.830  11.396
37154SOL     OW13468   3.811   4.784   1.047
37154SOL    HW113469  -7.241  -6.242  12.180
37154SOL    HW213470   3.729  -6.227   1.007
37155SOL     OW13471   1.411   2.766   3.744
37155SOL    HW113472  12.470   2.737  36.951
37155SOL    HW213473   1.431  13.730   3.689
37156SOL     OW13474   0.302   9.711   6.914
37156SOL    HW113475   0.357   9.690   6.839
37156SOL    HW213476   0.361   9.754   6.976
37157SOL     OW13477   0.408   2.214   7.623
37157SOL    HW113478   0.362   2.187   7.702
37157SOL    HW213479   0.367   2.161  -3.486
37158SOL     OW13480   6.148   3.144  10.967
37158SOL    HW113481   6.214   3.094  -0.120
37158SOL    HW213482   6.075   3.152  -0.133
37159SOL     OW13483   7.908  12.877   0.340
37159SOL    HW113484   7.837  12.849   0.282
37159SOL    HW213485   7.988 -20.273   0.297
37160SOL     OW13486   5.411   3.775   7.365
37160SOL    HW113487  -5.604   3.730 -14.633
37160SOL    HW213488 -16.586   3.779   7.315
37161SOL     OW13489   3.692   0.829   4.296
37161SOL    HW113490  14.717 -10.183  -6.834
37161SOL    HW213491   3.648   0.744   4.303
37162SOL     OW13492   7.130   7.552   3.371
37162SOL    HW113493  29.167   7.570   3.287
37162SOL    HW213494   7.087  18.512   3.403
37163SOL     OW13495  11.027   1.363   9.037
37163SOL    HW113496  10.988  23.529  -2.009
37163SOL    HW213497 -22.022   1.363   8.971
37164SOL     OW13498   5.639   9.620   9.203
37164SOL    HW113499   5.559   9.635   9.253
37164SOL    HW213500   5.667   9.708   9.176
37165SOL     OW13501   0.924   2.915   0.575
37165SOL    HW113502  12.006   2.995   0.544
37165SOL    HW213503 -21.099   2.885   0.647
37166SOL     OW13504  10.771  11.314   9.607
37166SOL    HW113505  10.702 -10.777  31.751
37166SOL    HW213506  10.732  11.372   9.541
37167SOL     OW13507   2.277   7.715   9.841
37167SOL    HW113508   2.195   7.764   9.843
37167SOL    HW213509  -8.789  18.664   9.828
37168SOL     OW13510  11.134   5.476   6.700
37168SOL    HW113511 -10.971   5.469   6.792
37168SOL    HW213512  11.207   5.539  17.740
37169SOL     OW13513   4.826   6.066   6.825
37169SOL    HW113514   4.753  17.161  -4.187
37169SOL    HW213515   4.891   6.126  -4.251
37170SOL     OW13516   9.130  10.762   0.805
37170SOL    HW113517   9.219  10.773 -10.201
37170SOL    HW213518   9.137  10.783  22.791
37171SOL     OW13519   6.985  10.986   8.088
37171SOL    HW113520  -4.119  10.936  -3.001
37171SOL    HW213521 -15.012  -0.067   8.042
37172SOL     OW13522   0.035   1.821   1.146
37172SOL    HW113523  -0.043 -20.254   1.092
37172SOL    HW213524  11.066   1.740   1.195
37173SOL     OW13525   1.342   5.178  11.033
37173SOL    HW113526  -9.728  16.131  11.006
37173SOL    HW213527   1.263   5.223 -11.015
37174SOL     OW13528   6.825   3.218   9.351
37174SOL    HW113529  17.853   3.174   9.435
37174SOL    HW213530  28.882   3.310   9.368
37175SOL     OW13531  11.431   6.414   3.580
37175SOL    HW113532   0.300   6.403   3.606
37175SOL    HW213533  11.449   6.507   3.594
37176SOL     OW13534   1.435   0.411  -0.289
37176SOL    HW113535  12.459   0.505  10.748
37176SOL    HW213536   1.503   0.399  -0.223
37177SOL     OW13537  10.480   3.287   6.818
37177SOL    HW113538  -0.543  14.386   6.745
37177SOL    HW213539  -0.650   3.306   6.844
37178SOL     OW13540   4.627   2.157   2.852
37178SOL    HW113541   4.559   2.218   2.824
37178SOL    HW213542  15.699  -8.920   2.770
37179SOL     OW13543  -0.997   8.082   0.552
37179SOL    HW113544  21.131   8.001   0.567
37179SOL    HW213545  -1.089   8.055   0.553
37180SOL     OW13546   9.252   0.730   4.896
37180SOL    HW113547   9.230   0.823  -6.153
37180SOL    HW213548   9.247   0.713 -17.090
37181SOL     OW13549   4.700   7.053  10.339
37181SOL    HW113550   4.741   6.967  10.346
37181SOL    HW213551   4.606   7.035  10.334
37182SOL     OW13552   5.493   4.056   8.615
37182SOL    HW113553  -5.583   4.145   8.620
37182SOL    HW213554  -5.536   4.040  19.561
37183SOL     OW13555   8.456   5.025   6.917
37183SOL    HW113556  19.455   4.942   6.895
37183SOL    HW213557  19.468   5.085 -15.232
37184SOL     OW13558   8.627   4.572   3.341
37184SOL    HW113559   8.690   4.643   3.326
37184SOL    HW213560   8.579   4.566   3.258
37185SOL     OW13561   9.381   4.828   6.135
37185SOL    HW113562   9.469   4.825   6.098
37185SOL    HW213563   9.349   4.915   6.114
37186SOL     OW13564   6.255   7.531   3.161
37186SOL    HW113565 -15.875   7.489  -7.947
37186SOL    HW213566   6.199 -14.477   3.192
37187SOL     OW13567   1.372   9.837   0.905
37187SOL    HW113568  12.386 -12.228   0.996
37187SOL    HW213569   1.406   9.922   0.877
37188SOL     OW13570   0.985   2.352  -0.158
37188SOL    HW113571   1.049 -19.757  21.986
37188SOL    HW213572   1.024   2.431  -0.195
37189SOL     OW13573   7.193   4.033   3.963
37189SOL    HW113574  40.301   4.074   4.049
37189SOL    HW213575   7.283 -18.079   3.964
37190SOL     OW13576   0.044   8.591  10.253
37190SOL    HW113577  11.100   8.682  10.228
37190SOL    HW213578   0.119  -2.472  10.308
37191SOL     OW13579   3.568   2.418   7.933
37191SOL    HW113580   3.617   2.382   8.007
37191SOL    HW213581 -29.642  13.458   7.963
37192SOL     OW13582   3.296   7.931   8.145
37192SOL    HW113583   3.271   7.960   8.057
37192SOL    HW213584 -18.819  19.038   8.203
37193SOL     OW13585   7.975   4.007   0.748
37193SOL    HW113586   7.976 -18.102   0.657
37193SOL    HW213587   7.954  -7.110 -10.241
37194SOL     OW13588   3.504   1.425   3.218
37194SOL    HW113589   3.433  23.443  14.235
37194SOL    HW213590   3.460   1.501  14.295
37195SOL     OW13591   0.913   8.121   7.750
37195SOL    HW113592   0.834  -2.923   7.696
37195SOL    HW213593   0.882   8.115  -3.200
37196SOL     OW13594   0.146   7.511  10.396
37196SOL    HW113595   0.224   7.457  -0.631
37196SOL    HW213596   0.127   7.503  10.302
37197SOL     OW13597   5.671   6.995   2.415
37197SOL    HW113598   5.599   6.952   2.369
37197SOL    HW213599   5.655  -4.063   2.507
37198SOL     OW13600   8.089   3.181   9.274
37198SOL    HW113601   8.048   3.125  -1.699
37198SOL    HW213602   8.109   3.122   9.202
37199SOL     OW13603   9.558  11.134   5.583
37199SOL    HW113604  20.595   0.022   5.520
37199SOL    HW213605   9.558  11.213   5.528
37200SOL     OW13606   6.778   4.884   2.714
37200SOL    HW113607   6.872   4.900   2.700
37200SOL    HW213608  28.835   4.818   2.648
37201SOL     OW13609   6.825   5.407   7.496
37201SOL    HW113610   6.812   5.313   7.487
37201SOL    HW213611   6.865   5.434   7.413
37202SOL     OW13612   9.053   0.675  10.395
37202SOL    HW113613 -13.026 -10.454  10.427
37202SOL    HW213614   8.966   0.709  10.419
37203SOL     OW13615   3.336  10.774   9.870
37203SOL    HW113616  -7.753  10.855   9.882
37203SOL    HW213617   3.294  10.712  20.969
37204SOL     OW13618  11.698   9.910   5.601
37204SOL    HW113619 -10.367  21.045 -16.477
37204SOL    HW213620  11.721   9.882 -16.389
37205SOL     OW13621   7.249   9.799  -1.086
37205SOL    HW113622   7.163  -1.263   9.919
37205SOL    HW213623   7.307   9.799   9.878
37206SOL     OW13624   4.106   9.083   7.835
37206SOL    HW113625   4.128   8.994   7.808
37206SOL    HW213626   4.179   9.136  -3.234
37207SOL     OW13627   8.998  -0.196   8.710
37207SOL    HW113628   8.906  -0.200   8.687
37207SOL    HW213629  -2.009  10.754  -2.343
37208SOL     OW13630   3.366   7.723  10.197
37208SOL    HW113631  -7.739   7.775  -0.797
37208SOL    HW213632   3.417   7.682  10.267
37209SOL     OW13633  10.764   1.116  -2.160
37209SOL    HW113634  -0.189   1.140  53.003
37209SOL    HW213635  10.725   1.062   8.811
37210SOL     OW13636   7.925   8.568   9.303
37210SOL    HW113637   7.960  30.596   9.375
37210SOL    HW213638   8.002   8.603   9.258
37211SOL     OW13639   7.752   3.098   6.297
37211SOL    HW113640   7.742   3.191   6.274
37211SOL    HW213641   7.702   3.088   6.378
37212SOL     OW13642   7.189   9.406  10.874
37212SOL    HW113643   7.224   9.463  10.943
37212SOL    HW213644   7.250   9.415  10.801
37213SOL     OW13645   0.715   2.435   5.035
37213SOL    HW113646   0.671  -8.606   4.950
37213SOL    HW213647   0.808   2.426  16.054
37214SOL     OW13648   5.491   3.378   5.110
37214SOL    HW113649  -5.471   3.425  16.178
37214SOL    HW213650   5.418   3.438   5.126
37215SOL     OW13651   7.206   0.564   1.016
37215SOL    HW113652  18.308   0.632   0.995
37215SOL    HW213653  -3.828   0.554   1.111
37216SOL     OW13654   8.044   0.628   3.635
37216SOL    HW113655   8.109  22.638  -7.411
37216SOL    HW213656   8.088   0.698   3.683
37217SOL     OW13657   0.143   2.195   2.234
37217SOL    HW113658   0.092  35.378   2.185
37217SOL    HW213659   0.100   2.189   2.319
37218SOL     OW13660   7.105  -0.264   9.880
37218SOL    HW113661   7.084  -0.300   9.794
37218SOL    HW213662   7.029  10.754   9.935
37219SOL     OW13663  12.581   4.687   4.909
37219SOL    HW113664  -9.450   4.615  15.988
37219SOL    HW213665  -9.544 -28.471  26.914
37220SOL     OW13666   5.559   3.775  10.103
37220SOL    HW113667  49.647  -7.330  10.109
37220SOL    HW213668  16.554   3.856  10.078
37221SOL     OW13669   7.720   0.333   3.559
37221SOL    HW113670   7.663   0.290   3.622
37221SOL    HW213671   7.735   0.420   3.595
37222SOL     OW13672  11.057   9.510   5.149
37222SOL    HW113673   0.032   9.599  -5.922
37222SOL    HW213674  11.034  -1.579   5.070
37223SOL     OW13675   6.790   7.487   0.215
37223SOL    HW113676  -4.303 -14.623  22.368
37223SOL    HW213677   6.873   7.512   0.255
37224SOL     OW13678   6.363   2.215   0.951
37224SOL    HW113679   6.441   2.260   0.983
37224SOL    HW213680   6.301  -8.755   0.932
37225SOL     OW13681   3.880   9.938   0.490
37225SOL    HW113682  -7.133   9.974   0.575
37225SOL    HW213683 -18.123  -1.150   0.459
37226SOL     OW13684   2.899   9.846   7.788
37226SOL    HW113685 -19.274   9.828  18.836
37226SOL    HW213686   2.904  -1.113  -3.303
37227SOL     OW13687   7.891   9.176   7.612
37227SOL    HW113688   7.971   9.131   7.639
37227SOL    HW213689   7.915   9.220   7.530
37228SOL     OW13690   6.564   3.352   7.254
37228SOL    HW113691   6.637 -18.670   7.277
37228SOL    HW213692   6.508 -18.727   7.331
37229SOL     OW13693   4.997   7.672  10.215
37229SOL    HW113694 -28.105   7.657  -0.918
37229SOL    HW213695  16.072   7.759  10.232
37230SOL     OW13696   8.494  10.055   8.742
37230SOL    HW113697   8.568  -0.973   8.682
37230SOL    HW213698   8.452 -12.104   8.711
37231SOL     OW13699   9.337   6.617   1.010
37231SOL    HW113700   9.386   6.596  23.010
37231SOL    HW213701  -1.771   6.677   0.981
37232SOL     OW13702   7.246   5.702   4.538
37232SOL    HW113703   7.339   5.710   4.557
37232SOL    HW213704 -14.875   5.701   4.625
37233SOL     OW13705   2.910   6.743  10.587
37233SOL    HW113706 -19.191   6.831  10.558
37233SOL    HW213707   2.827   6.696  10.585
37234SOL     OW13708   6.234   5.851   9.564
37234SOL    HW113709   6.174   5.855   9.489
37234SOL    HW213710   6.229 -16.141   9.603
37235SOL     OW13711  10.958   6.101   9.393
37235SOL    HW113712  10.929  -4.864  -1.595
37235SOL    HW213713  11.051   6.092  -1.627
37236SOL     OW13714   3.314   9.906   3.934
37236SOL    HW113715   3.224   9.923 -18.120
37236SOL    HW213716   3.355   9.871   4.013
37237SOL     OW13717   5.584   7.553   4.942
37237SOL    HW113718   5.523  18.649 -17.090
37237SOL    HW213719   5.625 -14.580 -28.108
37238SOL     OW13720   5.157   3.427   3.939
37238SOL    HW113721   5.242   3.432   3.896
37238SOL    HW213722   5.116  -7.527   3.922
37239SOL     OW13723   2.933   8.345   1.223
37239SOL    HW113724   2.986   8.270   1.251
37239SOL    HW213725  25.072   8.419   1.226
37240SOL     OW13726   4.101   9.616   2.986
37240SOL    HW113727   4.072   9.562 -30.059
37240SOL    HW213728   4.173  20.707  -8.019
37241SOL     OW13729   6.276   1.096   4.884
37241SOL    HW113730   6.283   1.004   4.858
37241SOL    HW213731  17.277   1.094  -6.068
37242SOL     OW13732   9.310   0.147  10.061
37242SOL    HW113733   9.313   0.242  10.074
37242SOL    HW213734   9.362   0.111  10.134
37243SOL     OW13735   1.700  10.066   7.783
37243SOL    HW113736   1.700  -1.057   7.737
37243SOL    HW213737   1.776  10.113   7.748
37244SOL     OW13738  10.720   5.981   1.604
37244SOL    HW113739  10.781   6.030   1.660
37244SOL    HW213740  10.633   6.010  12.671
37245SOL     OW13741   3.373   4.762   1.527
37245SOL    HW113742   3.310   4.790   1.461
37245SOL    HW213743   3.320  15.782   1.605
37246SOL     OW13744   8.099   2.654   3.239
37246SOL    HW113745   8.138   2.621   3.158
37246SOL    HW213746   8.029   2.713  14.249
37247SOL     OW13747   7.387   1.545   3.148
37247SOL    HW113748 -25.733   1.454  -7.863
37247SOL    HW213749   7.475   1.557   3.111
37248SOL     OW13750   4.047   6.745   2.662
37248SOL    HW113751   4.078   6.765   2.750
37248SOL    HW213752   4.126   6.721   2.614
37249SOL     OW13753   8.727   7.834   1.159
37249SOL    HW113754   8.800   7.795   1.206
37249SOL    HW213755   8.661   7.850   1.227
37250SOL     OW13756   2.866   5.518   5.558
37250SOL    HW113757   2.781   5.524   5.513
37250SOL    HW213758 -19.197   5.424   5.565
37251SOL     OW13759  10.369   0.069   1.418
37251SOL    HW113760  10.349   0.118   1.338
37251SOL    HW213761  21.400   0.133  -9.552
37252SOL     OW13762   4.768   1.151   9.084
37252SOL    HW113763   4.744  -9.815   9.028
37252SOL    HW213764  26.785   1.156 -23.962
37253SOL     OW13765   8.073   4.435   9.953
37253SOL    HW113766 -14.092   4.393   9.941
37253SOL    HW213767   8.095   4.469   9.866
37254SOL     OW13768   9.939   7.844  10.412
37254SOL    HW113769   9.886   7.922  10.427
37254SOL    HW213770  10.012  29.931  10.473
37255SOL     OW13771   3.888   2.269   4.909
37255SOL    HW113772   3.862   2.325   4.836
37255SOL    HW213773  -7.087   2.320  -6.082
37256SOL     OW13774   6.901   7.163   4.334
37256SOL    HW113775   6.842 -14.890  26.485
37256SOL    HW213776   6.986   7.152   4.376
37257SOL     OW13777   0.280   2.456   2.554
37257SOL    HW113778  11.255   2.519   2.522
37257SOL    HW213779   0.348   2.455   2.488
37258SOL     OW13780   2.873   9.762  -0.131
37258SOL    HW113781   2.795   9.773  32.934
37258SOL    HW213782   2.923   9.693  10.865
37259SOL     OW13783   0.990   3.653   9.835
37259SOL    HW113784  12.098 -18.492   9.821
37259SOL    HW213785   1.034 -18.343   9.818
37260SOL     OW13786   4.771   2.318   3.742
37260SOL    HW113787 -17.312  -8.764  -7.384
37260SOL    HW213788 -17.384   2.283  -7.251
37261SOL     OW13789   5.022   0.021   5.083
37261SOL    HW113790   5.044  -0.004   5.173
37261SOL    HW213791  15.969  -0.002   5.075
37262SOL     OW13792   9.659   2.625   8.611
37262SOL    HW113793 -23.454   2.561  41.660
37262SOL    HW213794   9.576  13.710   8.596
37263SOL     OW13795   4.569  10.531   4.147
37263SOL    HW113796   4.623  10.572   4.214
37263SOL    HW213797  -6.425  10.550  -6.975
37264SOL     OW13798   8.416   0.454   7.703
37264SOL    HW113799   8.370   0.523  -3.385
37264SOL    HW213800   8.427  22.568   7.791
37265SOL     OW13801  10.728  10.055   3.741
37265SOL    HW113802  -0.276   9.979   3.697
37265SOL    HW213803  -0.352  10.107   3.672
37266SOL     OW13804   7.354  -0.169   2.607
37266SOL    HW113805 -14.782  21.857   2.551
37266SOL    HW213806  18.476  10.822   2.610
37267SOL     OW13807   2.409   6.718   0.718
37267SOL    HW113808   2.418   6.740  11.850
37267SOL    HW213809   2.458   6.786  11.712
37268SOL     OW13810   9.568   6.981   6.868
37268SOL    HW113811  20.540  17.955  17.890
37268SOL    HW213812   9.573  18.023   6.964
37269SOL     OW13813   3.628   1.131   5.744
37269SOL    HW113814   3.673   1.115  -5.212
37269SOL    HW213815  -7.389  -9.818  16.761
37270SOL     OW13816   6.476   0.228   4.541
37270SOL    HW113817   6.417  22.382  15.576
37270SOL    HW213818   6.516 -10.805   4.628
37271SOL     OW13819   3.567   7.268   1.967
37271SOL    HW113820  -7.484  29.301   2.050
37271SOL    HW213821  -7.518  18.253   1.903
37272SOL     OW13822   1.723   2.101   7.251
37272SOL    HW113823   1.675   2.100   7.169
37272SOL    HW213824   1.790 -19.910   7.239
37273SOL     OW13825   6.756   2.244   6.965
37273SOL    HW113826  -4.238  13.342   6.906
37273SOL    HW213827   6.668   2.237   6.929
37274SOL     OW13828   9.523   5.295  10.661
37274SOL    HW113829   9.442  16.285  10.649
37274SOL    HW213830   9.583   5.260  10.595
37275SOL     OW13831   5.317  10.303  10.245
37275SOL    HW113832   5.261  10.379  -0.808
37275SOL    HW213833   5.257  10.228 -11.844
37276SOL     OW13834   6.725  10.774   2.238
37276SOL    HW113835   6.746  10.796   2.329
37276SOL    HW213836   6.652  10.712   2.245
37277SOL     OW13837  -0.326   5.601   9.414
37277SOL    HW113838  10.669   5.587   9.331
37277SOL    HW213839  -0.393  -5.401  31.550
37278SOL     OW13840   1.787   2.287   2.060
37278SOL    HW113841   1.852   2.315   1.994
37278SOL    HW213842   1.730  -8.677   2.071
37279SOL     OW13843   7.551   7.142   8.585
37279SOL    HW113844   7.518   7.060  -2.493
37279SOL    HW213845  18.515   7.201  -2.456
37280SOL     OW13846   1.813   3.069   7.807
37280SOL    HW113847   1.866   3.030   7.877
37280SOL    HW213848   1.787   2.994   7.753
37281SOL     OW13849   5.166   4.655   9.761
37281SOL    HW113850   5.160   4.722   9.828
37281SOL    HW213851   5.078  -6.390   9.723
37282SOL     OW13852  11.294   9.275   0.377
37282SOL    HW113853 -21.736   9.251   0.403
37282SOL    HW213854  22.344   9.318   0.292
37283SOL     OW13855   2.078  -1.086   5.869
37283SOL    HW113856 -19.916  20.994   5.913
37283SOL    HW213857   2.098  -1.062   5.778
37284SOL     OW13858  10.158   0.661   2.641
37284SOL    HW113859  10.246 -10.407   2.667
37284SOL    HW213860  10.104   0.582   2.650
37285SOL     OW13861   6.528   4.068   5.955
37285SOL    HW113862   6.481   4.105 -27.239
37285SOL    HW213863  28.635   4.145   6.005
37286SOL     OW13864   3.119   6.489   6.222
37286SOL    HW113865  14.089 -26.574  -4.784
37286SOL    HW213866   3.176  28.552  17.336
37287SOL     OW13867   1.507   6.608   1.560
37287SOL    HW113868  12.592 -15.545  -9.440
37287SOL    HW213869   1.481  17.703   1.633
37288SOL     OW13870   4.853   5.891  10.066
37288SOL    HW113871 -17.138   5.852  10.069
37288SOL    HW213872  -6.210   5.888   9.974
37289SOL     OW13873   3.772   6.752   9.382
37289SOL    HW113874  14.907  17.787  20.416
37289SOL    HW213875   3.745   6.662   9.400
37290SOL     OW13876   2.636   5.083  10.067
37290SOL    HW113877   2.625   5.013  -1.037
37290SOL    HW213878   2.560  16.114  10.125
37291SOL     OW13879   2.700   5.467   8.523
37291SOL    HW113880   2.707  -5.504 -24.662
37291SOL    HW213881  24.794  27.465  19.515
37292SOL     OW13882   3.736   9.497   6.489
37292SOL    HW113883   3.701   9.540  -4.629
37292SOL    HW213884   3.786  20.462   6.455
37293SOL     OW13885   6.170   2.258  10.839
37293SOL    HW113886  39.245  13.382  10.834
37293SOL    HW213887   6.261 -19.800  10.862
37294SOL     OW13888   6.049   6.986   8.878
37294SOL    HW113889   6.043   6.901   8.919
37294SOL    HW213890  -5.029  -4.066   8.791
37295SOL     OW13891   2.186   2.206   6.071
37295SOL    HW113892  -8.777 -19.924   6.043
37295SOL    HW213893   2.223   2.281   6.118
37296SOL     OW13894   1.108   0.687   6.054
37296SOL    HW113895   1.016   0.714   6.062
37296SOL    HW213896   1.110   0.634   5.974
37297SOL     OW13897   6.552   1.384   5.505
37297SOL    HW113898   6.617  12.353 -27.614
37297SOL    HW213899  -4.436  -9.576 -16.580
37298SOL     OW13900   5.523   9.241  10.893
37298SOL    HW113901  -5.593   9.261  -0.094
37298SOL    HW213902   5.490  20.222  10.824
37299SOL     OW13903   3.705  11.532   4.661
37299SOL    HW113904   3.658   0.575   4.650
37299SOL    HW213905   3.691  11.484  15.619
37300SOL     OW13906   5.546  10.291   2.644
37300SOL    HW113907   5.620  10.253  13.730
37300SOL    HW213908  16.535  10.336   2.712
37301SOL     OW13909   8.786   6.933   4.558
37301SOL    HW113910   8.734  -4.172   4.512
37301SOL    HW213911   8.822 -15.193   4.634
37302SOL     OW13912   3.660   7.449  10.738
37302SOL    HW113913   3.618   7.375  10.694
37302SOL    HW213914   3.598   7.476  10.806
37303SOL     OW13915  10.748   6.090   9.812
37303SOL    HW113916  10.659   6.088   9.849
37303SOL    HW213917  10.794  -4.883  -1.175
37304SOL     OW13918   1.888  10.227  12.484
37304SOL    HW113919   1.907  10.285  -9.521
37304SOL    HW213920  -9.069  10.181  -9.610
37305SOL     OW13921  10.874   4.455  10.058
37305SOL    HW113922  10.809   4.472   9.990
37305SOL    HW213923  10.932   4.531  21.094
37306SOL     OW13924   2.863   5.948   2.888
37306SOL    HW113925   2.770   5.929   2.903
37306SOL    HW213926  13.925   5.897   2.810
37307SOL     OW13927  10.847   3.890   3.028
37307SOL    HW113928  10.827   3.979   2.999
37307SOL    HW213929  10.894   3.851   2.954
37308SOL     OW13930   4.582   4.599   6.067
37308SOL    HW113931   4.502  -6.483   6.100
37308SOL    HW213932   4.622   4.637   6.145
37309SOL     OW13933  10.896   9.790   9.954
37309SOL    HW113934  10.931  -1.307  10.022
37309SOL    HW213935  10.974   9.834 -12.161
37310SOL     OW13936   8.437   7.764   3.174
37310SOL    HW113937   8.512   7.711  -7.895
37310SOL    HW213938   8.389   7.784   3.094
37311SOL     OW13939   2.598  14.663  10.084
37311SOL    HW113940   2.567 -18.369  -0.979
37311SOL    HW213941  -8.480 -51.633 -34.140
37312SOL     OW13942  -0.134   9.289   4.976
37312SOL    HW113943  10.934   9.285   4.884
37312SOL    HW213944  -0.188   9.211   4.987
37313SOL     OW13945   9.889   6.398   5.148
37313SOL    HW113946   9.884  17.491   5.227
37313SOL    HW213947   9.809   6.346   5.150
37314SOL     OW13948   2.300   5.726   8.924
37314SOL    HW113949   2.234   5.743   8.857
37314SOL    HW213950  24.452   5.687  -2.164
37315SOL     OW13951  12.688   9.516   5.078
37315SOL    HW113952   1.688   9.456   5.142
37315SOL    HW213953 -20.476   9.459  27.096
37316SOL     OW13954   8.442   5.103   9.412
37316SOL    HW113955   8.473   5.035 -12.727
37316SOL    HW213956   8.522  -5.900   9.450
37317SOL     OW13957   3.821   5.741   1.681
37317SOL    HW113958   3.727   5.725   1.674
37317SOL    HW213959   3.862   5.665   1.639
37318SOL     OW13960  -1.124   8.317   6.946
37318SOL    HW113961  20.943   8.409  17.961
37318SOL    HW213962   9.928   8.272  39.981
37319SOL     OW13963   4.281   1.936   5.417
37319SOL    HW113964   4.304   2.029   5.409
37319SOL    HW213965   4.248   1.927   5.507
37320SOL     OW13966   9.196   6.719   7.469
37320SOL    HW113967  -1.904   6.729   7.542
37320SOL    HW213968  -1.803   6.633   7.483
37321SOL     OW13969   4.878   7.335   1.454
37321SOL    HW113970   4.855  -3.619  12.530
37321SOL    HW213971  -6.132   7.354   1.365
37322SOL     OW13972  -0.023   3.716   9.503
37322SOL    HW113973  -0.077   3.792   9.524
37322SOL    HW213974  10.988   3.648 -23.555
37323SOL     OW13975   2.722   6.240   3.619
37323SOL    HW113976   2.783   6.308   3.590
37323SOL    HW213977  13.786   6.163  -7.471
37324SOL     OW13978   8.955  10.559  10.809
37324SOL    HW113979   9.020  10.609  10.857
37324SOL    HW213980  19.911  10.583 -11.230
37325SOL     OW13981   5.777   2.598   8.975
37325SOL    HW113982   5.838   2.617   9.046
37325SOL    HW213983  -5.208  13.631   8.897
37326SOL     OW13984   8.138  10.949   8.314
37326SOL    HW113985   8.095  10.865   8.300
37326SOL    HW213986   8.103  -0.033   8.246
37327SOL     OW13987   5.583  -0.360   8.139
37327SOL    HW113988   5.494  -0.379   8.169
37327SOL    HW213989  -5.417  10.728  30.290
37328SOL     OW13990   4.616   8.486   4.125
37328SOL    HW113991  -6.489   8.557   4.121
37328SOL    HW213992  -6.407   8.475  15.258
37329SOL     OW13993   3.025   6.229   6.128
37329SOL    HW113994  -8.099   6.226   6.174
37329SOL    HW213995   3.055  17.359   6.139
37330SOL     OW13996   7.891  10.329   9.641
37330SOL    HW113997   7.797  10.318   9.654
37330SOL    HW213998 -14.148  10.295  31.800
37331SOL     OW13999   6.916   5.422   8.063
37331SOL    HW114000   6.938   5.448   7.974
37331SOL    HW214001  -4.065   5.348  41.201
37332SOL     OW14002   4.911   3.185   8.045
37332SOL    HW114003 -17.081   3.158   8.016
37332SOL    HW214004 -17.228   3.123 -14.076
37333SOL     OW14005   8.988   7.219  10.985
37333SOL    HW114006   9.049   7.160  10.940
37333SOL    HW214007  31.054   7.291  10.923
37334SOL     OW14008   8.019  -0.521  10.311
37334SOL    HW114009  -3.094  10.467  10.277
37334SOL    HW214010 -25.023  10.484  10.265
37335SOL     OW14011   9.509   0.305   6.575
37335SOL    HW114012   9.553   0.386  17.642
37335SOL    HW214013   9.475   0.326  17.527
37336SOL     OW14014   1.673   9.382   1.014
37336SOL    HW114015   1.710   9.325   1.082
37336SOL    HW214016   1.717   9.467   1.028
37337SOL     OW14017   1.701   2.475  10.529
37337SOL    HW114018   1.723  13.590  10.583
37337SOL    HW214019   1.612  24.572  10.498
37338SOL     OW14020  10.997   7.821   8.673
37338SOL    HW114021 -11.014   7.887  -2.381
37338SOL    HW214022  10.923 -14.228   8.621
37339SOL     OW14023   5.701   8.533   6.069
37339SOL    HW114024   5.783   8.486  -4.987
37339SOL    HW214025   5.713   8.618   6.025
37340SOL     OW14026   5.260   4.800   0.922
37340SOL    HW114027   5.302   4.787  23.086
37340SOL    HW214028   5.170  15.864   0.944
37341SOL     OW14029   0.056   7.008   5.975
37341SOL    HW114030   0.074   7.019   6.068
37341SOL    HW214031   0.039   7.097   5.943
37342SOL     OW14032   5.374  10.193   8.862
37342SOL    HW114033  16.332  10.209  19.854
37342SOL    HW214034   5.347  10.142   8.938
37343SOL     OW14035   8.849   9.016   4.611
37343SOL    HW114036   8.872   9.086   4.673
37343SOL    HW214037   8.832   9.062   4.529
37344SOL     OW14038   9.241   6.134   7.874
37344SOL    HW114039   9.295   6.212   7.886
37344SOL    HW214040  31.347  -4.940   7.789
37345SOL     OW14041   4.672   7.227   2.865
37345SOL    HW114042   4.578   7.210   2.862
37345SOL    HW214043 -17.399   7.320  24.925
37346SOL     OW14044  10.648   5.346   5.330
37346SOL    HW114045  10.711   5.416   5.313
37346SOL    HW214046  10.563   5.383   5.305
37347SOL     OW14047   6.771   2.868   0.206
37347SOL    HW114048   6.728  24.956 -10.919
37347SOL    HW214049   6.720  13.841  22.330
37348SOL     OW14050   0.248   7.079   3.246
37348SOL    HW114051   0.293   7.151  -7.750
37348SOL    HW214052   0.287   7.000   3.285
37349SOL     OW14053   1.558   7.643  11.779
37349SOL    HW114054   1.537  -3.488  11.760
37349SOL    HW214055  -9.450   7.679 -21.423
37350SOL     OW14056   4.922   2.254   7.160
37350SOL    HW114057 -17.075   2.303  -3.888
37350SOL    HW214058   4.894   2.241   7.069
37351SOL     OW14059   1.004   1.639   8.344
37351SOL    HW114060   1.016  23.700   8.251
37351SOL    HW214061   0.911  12.661   8.360
37352SOL     OW14062   4.664  11.260   2.535
37352SOL    HW114063   4.690 -21.797  24.546
37352SOL    HW214064   4.646   0.139   2.488
37353SOL     OW14065   6.261   3.808   5.396
37353SOL    HW114066   6.232   3.728  -5.686
37353SOL    HW214067   6.305  -7.181   5.327
37354SOL     OW14068   5.709   3.198   3.369
37354SOL    HW114069   5.768   3.159  -7.607
37354SOL    HW214070   5.635   3.230   3.420
37355SOL     OW14071   0.774  10.841   9.026
37355SOL    HW114072   0.686  10.826   9.062
37355SOL    HW214073   0.777 -11.293  19.987
37356SOL     OW14074  10.844  -0.243   1.550
37356SOL    HW114075  10.825  10.885   1.580
37356SOL    HW214076  -0.280  -0.277   1.518
37357SOL     OW14077  10.576   0.755  10.066
37357SOL    HW114078  10.585   0.845  -1.004
37357SOL    HW214079  10.665   0.720  -0.974
37358SOL     OW14080   6.040   9.261   0.981
37358SOL    HW114081   6.087   9.222   1.055
37358SOL    HW214082  17.119  -1.692 -10.069
37359SOL     OW14083  10.918   6.704   8.183
37359SOL    HW114084  10.937   6.795   8.160
37359SOL    HW214085  10.980 -15.396 -13.827
37360SOL     OW14086   7.716   6.509   1.678
37360SOL    HW114087   7.693   6.587   1.726
37360SOL    HW214088  29.887  -4.518  -9.385
37361SOL     OW14089   6.315   3.891   7.798
37361SOL    HW114090   6.304  37.091   7.848
37361SOL    HW214091 -15.676   3.897  18.801
37362SOL     OW14092   4.892  10.430   4.009
37362SOL    HW114093   4.797  -0.614   4.001
37362SOL    HW214094   4.917  21.547 -29.160
37363SOL     OW14095   2.209   6.498   4.175
37363SOL    HW114096   2.252  28.517   4.114
37363SOL    HW214097   2.261  50.736   4.171
37364SOL     OW14098   2.891   9.619   4.998
37364SOL    HW114099   2.983   9.616   4.972
37364SOL    HW214100   2.872   9.712   5.008
37365SOL     OW14101   5.347   6.886   8.362
37365SOL    HW114102  16.420  -4.073   8.402
37365SOL    HW214103  -5.633   6.869  30.368
37366SOL     OW14104   5.775   4.756   9.513
37366SOL    HW114105 -16.317   4.842   9.473
37366SOL    HW214106  -5.199  15.811 -45.616
37367SOL     OW14107   2.446   7.112   6.479
37367SOL    HW114108   2.471   7.111   6.571
37367SOL    HW214109   2.368  29.136   6.475
37368SOL     OW14110   6.418   0.943   6.189
37368SOL    HW114111   6.342  12.027   6.226
37368SOL    HW214112  28.513  56.068   6.250
37369SOL     OW14113   5.877   1.827   5.293
37369SOL    HW114114   5.904   1.914   5.323
37369SOL    HW214115   5.955   1.791   5.250
37370SOL     OW14116   3.681   5.535   9.454
37370SOL    HW114117   3.655   5.565   9.542
37370SOL    HW214118   3.666   5.441  20.496
37371SOL     OW14119   1.724   5.224   2.539
37371SOL    HW114120   1.646  -5.790   2.489
37371SOL    HW214121   1.746   5.302   2.589
37372SOL     OW14122   1.891   1.631   5.581
37372SOL    HW114123  24.049   1.652   5.632
37372SOL    HW214124   1.840   1.573   5.637
37373SOL     OW14125  11.392  -0.560   9.918
37373SOL    HW114126   0.318  10.544   9.979
37373SOL    HW214127  11.332  21.521   9.843
37374SOL     OW14128   3.654   2.639   5.688
37374SOL    HW114129 -18.468   2.700  -5.412
37374SOL    HW214130   3.747  13.686   5.668
37375SOL     OW14131   9.588   7.465  10.617
37375SOL    HW114132  20.656   7.393  10.673
37375SOL    HW214133   9.492   7.462  10.621
37376SOL     OW14134   8.288   3.460   0.737
37376SOL    HW114135   8.283  36.490   0.702
37376SOL    HW214136   8.372   3.493   0.707
37377SOL     OW14137   7.875   4.265   1.401
37377SOL    HW114138   7.801  15.253   1.370
37377SOL    HW214139  -3.198   4.315   1.475
37378SOL     OW14140   1.244   7.975  -1.031
37378SOL    HW114141   1.187  19.019  -1.107
37378SOL    HW214142   1.209 -14.176  21.100
37379SOL     OW14143   3.231   9.249   7.709
37379SOL    HW114144  -7.836 -12.800   7.622
37379SOL    HW214145   3.237  20.369   7.761
37380SOL     OW14146   7.398   0.301   2.184
37380SOL    HW114147   7.314   0.256  13.219
37380SOL    HW214148   7.463   0.233   2.169
37381SOL     OW14149   6.518   6.657   9.154
37381SOL    HW114150  17.601   6.708   9.223
37381SOL    HW214151   6.548   6.697   9.072
37382SOL     OW14152   2.413  10.074   5.127
37382SOL    HW114153   2.324  10.086   5.161
37382SOL    HW214154   2.468  10.128   5.183
37383SOL     OW14155   9.224   2.603   2.363
37383SOL    HW114156   9.190   2.561   2.442
37383SOL    HW214157   9.286   2.539   2.326
37384SOL     OW14158   6.361   8.501   4.593
37384SOL    HW114159  -4.663   8.512  15.726
37384SOL    HW214160   6.291   8.564  15.613
37385SOL     OW14161   6.098   7.953   9.130
37385SOL    HW114162   6.034   8.004   9.081
37385SOL    HW214163   6.128   8.013   9.199
37386SOL     OW14164   2.389  10.148  10.224
37386SOL    HW114165   2.416 -11.910  10.313
37386SOL    HW214166  13.355  43.206  -0.805
37387SOL     OW14167   3.640   9.749  10.942
37387SOL    HW114168  36.666   9.728  10.931
37387SOL    HW214169  -7.354   9.667  10.923
37388SOL     OW14170  10.373   7.699   3.539
37388SOL    HW114171  21.397  -3.425   3.582
37388SOL    HW214172  10.286   7.739   3.532
37389SOL     OW14173   7.473   7.307   3.089
37389SOL    HW114174   7.393   7.356   3.068
37389SOL    HW214175   7.503 -36.885  -8.035
37390SOL     OW14176   3.635   9.244   5.531
37390SOL    HW114177  -7.406  20.213   5.466
37390SOL    HW214178   3.712  20.265   5.585
37391SOL     OW14179  10.412   1.852   5.731
37391SOL    HW114180  10.486   1.901   5.769
37391SOL    HW214181  10.434   1.760  16.787
37392SOL     OW14182   7.038   9.820   7.645
37392SOL    HW114183  -3.921  -1.229  -3.345
37392SOL    HW214184   7.009   9.909   7.662
37393SOL     OW14185   6.820   1.175   9.793
37393SOL    HW114186 -15.342   1.150   9.832
37393SOL    HW214187   6.820   1.271  20.835
37394SOL     OW14188   1.396  -0.048   2.318
37394SOL    HW114189   1.459  11.062   2.304
37394SOL    HW214190  -9.629  10.964   2.409
37395SOL     OW14191   7.755   1.310   6.935
37395SOL    HW114192  18.850  23.355  -4.174
37395SOL    HW214193   7.700   1.236  -4.079
37396SOL     OW14194   4.372   2.260  11.013
37396SOL    HW114195   4.292   2.276  10.962
37396SOL    HW214196  15.385   2.271  11.104
37397SOL     OW14197   9.848   4.239   7.070
37397SOL    HW114198   9.787   4.177   7.110
37397SOL    HW214199   9.827  15.275   6.976
37398SOL     OW14200   8.619   2.760   3.009
37398SOL    HW114201  19.587   2.792   2.954
37398SOL    HW214202   8.688   2.826   2.998
37399SOL     OW14203   9.618  10.142   9.778
37399SOL    HW114204   9.667  10.089   9.716
37399SOL    HW214205   9.547  10.180  31.805
37400SOL     OW14206   7.597   0.822   4.688
37400SOL    HW114207   7.660   0.858   4.625
37400SOL    HW214208  18.564  11.924  15.725
37401SOL     OW14209  11.732   2.816   2.214
37401SOL    HW114210   0.718  -8.160  -8.759
37401SOL    HW214211 -10.345   2.864   2.131
37402SOL     OW14212   4.171   3.598  10.031
37402SOL    HW114213   4.198   3.532   9.967
37402SOL    HW214214   4.246   3.657  10.039
37403SOL     OW14215   2.209  -0.336   6.518
37403SOL    HW114216  -8.852  21.789   6.437
37403SOL    HW214217   2.125  10.672  17.591
37404SOL     OW14218  10.223   8.943   7.521
37404SOL    HW114219  10.211   8.861   7.473
37404SOL    HW214220  10.157   8.940  -3.449
37405SOL     OW14221   1.077   2.516   0.657
37405SOL    HW114222  -9.915  -8.601   0.685
37405SOL    HW214223   1.112   2.536  11.610
37406SOL     OW14224   4.112   3.643   6.914
37406SOL    HW114225   4.075   3.568   6.960
37406SOL    HW214226   4.193  -7.377   6.961
37407SOL     OW14227   5.958   4.551   9.950
37407SOL    HW114228   5.896   4.623   9.951
37407SOL    HW214229   5.943   4.505  10.033
37408SOL     OW14230   6.317  10.834   7.926
37408SOL    HW114231   6.372  10.808   7.853
37408SOL    HW214232   6.239  -0.261   7.917
37409SOL     OW14233   4.071   8.821   8.737
37409SOL    HW114234   3.984   8.826   8.700
37409SOL    HW214235 -17.951  -2.179   8.671
37410SOL     OW14236   6.893   8.542   7.478
37410SOL    HW114237   6.903   8.573   7.388
37410SOL    HW214238   6.896   8.447   7.471
37411SOL     OW14239   9.854   5.959  11.013
37411SOL    HW114240   9.941   5.983  11.044
37411SOL    HW214241   9.867 -16.147  10.922
37412SOL     OW14242   8.066   1.471   6.526
37412SOL    HW114243  -3.013   1.384   6.527
37412SOL    HW214244   7.991  -9.509   6.534
37413SOL     OW14245   4.380   8.108   6.106
37413SOL    HW114246 -17.668   8.184   6.057
37413SOL    HW214247  -6.719   8.064   6.046
37414SOL     OW14248   2.924   2.569   1.995
37414SOL    HW114249   2.877  -8.537  -8.994
37414SOL    HW214250  14.027  13.645   2.056
37415SOL     OW14251  10.908   5.528  10.120
37415SOL    HW114252 -11.245   5.569  10.166
37415SOL    HW214253 -11.203  38.560  21.137
37416SOL     OW14254   2.518   2.284   5.964
37416SOL    HW114255   2.572  -8.824   5.925
37416SOL    HW214256  13.494  -8.733   5.896
37417SOL     OW14257   6.076   5.197   4.886
37417SOL    HW114258   6.028   5.120  -6.184
37417SOL    HW214259 -16.052   5.226   4.963
37418SOL     OW14260   3.310   1.543   1.213
37418SOL    HW114261   3.340   1.629   1.183
37418SOL    HW214262   3.216   1.554   1.228
37419SOL     OW14263   4.165  10.114   9.515
37419SOL    HW114264  -6.931  10.047   9.478
37419SOL    HW214265  -6.933  10.187  31.613
37420SOL     OW14266   9.148   1.435  10.249
37420SOL    HW114267   9.125   1.509 -11.886
37420SOL    HW214268 -35.093   1.388  10.262
37421SOL     OW14269   2.478   0.572   0.144
37421SOL    HW114270   2.524  11.671   0.203
37421SOL    HW214271  13.426   0.601   0.147
37422SOL     OW14272   7.935   1.114   6.203
37422SOL    HW114273  30.051   1.051   6.141
37422SOL    HW214274  18.948   1.060   6.278
37423SOL     OW14275   9.796  10.197   1.232
37423SOL    HW114276  20.753  -0.890   1.242
37423SOL    HW214277   9.792  -0.806   1.144
37424SOL     OW14278  10.385   1.192   4.403
37424SOL    HW114279  21.505  23.222   4.381
37424SOL    HW214280  10.406   1.283 -17.697
37425SOL     OW14281  11.541   6.790   1.675
37425SOL    HW114282  11.469   6.848   1.651
37425SOL    HW214283   0.538   6.760   1.591
37426SOL     OW14284   7.481  10.620   6.854
37426SOL    HW114285  29.571 -11.364   6.858
37426SOL    HW214286   7.493  10.591   6.944
37427SOL     OW14287  11.040   7.427   0.595
37427SOL    HW114288  -0.004  18.393  22.735
37427SOL    HW214289  21.991 -25.682   0.562
37428SOL     OW14290   8.514   7.646   7.613
37428SOL    HW114291   8.503   7.605  18.567
37428SOL    HW214292   8.426   7.675  -3.403
37429SOL     OW14293   7.253   8.276   6.621
37429SOL    HW114294   7.270   8.230   6.539
37429SOL    HW214295   7.208   8.211  -4.364
37430SOL     OW14296  10.607   7.447   0.338
37430SOL    HW114297 -11.395  -3.644   0.360
37430SOL    HW214298  -0.461   7.485   0.421
37431SOL     OW14299   0.915   7.504   4.327
37431SOL    HW114300   0.883   7.446   4.258
37431SOL    HW214301  34.121  -3.509 -17.782
37432SOL     OW14302   7.798   6.928   3.428
37432SOL    HW114303   7.708   6.896  14.462
37432SOL    HW214304  18.858   6.926   3.522
37433SOL     OW14305   8.667  11.909   6.597
37433SOL    HW114306   8.694 -21.153   6.525
37433SOL    HW214307  -2.333   0.785  17.616
37434SOL     OW14308   9.734   9.695   9.279
37434SOL    HW114309   9.773   9.659   9.200
37434SOL    HW214310  -1.268 -12.297  20.326
37435SOL     OW14311  10.937   7.980   9.275
37435SOL    HW114312  10.947   7.895   9.232
37435SOL    HW214313  10.923   7.958   9.367
37436SOL     OW14314   9.047  -0.331   1.869
37436SOL    HW114315  -2.005  10.797  12.875
37436SOL    HW214316   9.136  21.747   1.902
37437SOL     OW14317   8.598  12.002   2.646
37437SOL    HW114318  30.603   0.995 -19.483
37437SOL    HW214319   8.591 -21.212   2.640
37438SOL     OW14320   0.801   7.168   7.633
37438SOL    HW114321   0.860  -3.934   7.591
37438SOL    HW214322 -10.302  -3.849  -3.475
37439SOL     OW14323   1.995   3.772   1.934
37439SOL    HW114324  -9.081   3.761   2.022
37439SOL    HW214325   2.086  -7.242  24.028
37440SOL     OW14326   4.121   5.266   5.276
37440SOL    HW114327   4.106   5.358   5.295
37440SOL    HW214328   4.216   5.255   5.285
37441SOL     OW14329   5.579   8.461   0.369
37441SOL    HW114330  16.679   8.390  11.387
37441SOL    HW214331  49.708   8.494 -10.755
37442SOL     OW14332   0.654  -0.685  -0.121
37442SOL    HW114333   0.660  10.380  55.168
37442SOL    HW214334   0.697  21.465  21.910
37443SOL     OW14335   2.251   7.791   4.076
37443SOL    HW114336   2.272  29.881  -6.871
37443SOL    HW214337   2.248   7.880   4.041
37444SOL     OW14338  10.075   5.763   6.930
37444SOL    HW114339  10.156  -5.313   6.965
37444SOL    HW214340  10.104   5.830   6.868
37445SOL     OW14341   6.135   2.578  10.929
37445SOL    HW114342   6.110  -8.429  -0.197
37445SOL    HW214343  17.126   2.633  10.990
37446SOL     OW14344   4.489   1.616   0.868
37446SOL    HW114345   4.505   1.641 -10.080
37446SOL    HW214346   4.575   1.617   0.827
37447SOL     OW14347   9.401   9.337   1.309
37447SOL    HW114348   9.455  20.431  23.331
37447SOL    HW214349   9.338   9.296  34.368
37448SOL     OW14350   0.180   2.803  -0.535
37448SOL    HW114351   0.273   2.786  -0.547
37448SOL    HW214352   0.141   2.788  10.419
37449SOL     OW14353   6.825   1.237   9.402
37449SOL    HW114354   6.755  12.240   9.348
37449SOL    HW214355  -4.150   1.166   9.409
37450SOL     OW14356  -0.080   6.795   3.038
37450SOL    HW114357  22.070  -4.263  25.055
37450SOL    HW214358  -0.061   6.883   3.071
37451SOL     OW14359   7.955   4.290   8.820
37451SOL    HW114360   7.951   4.376   8.778
37451SOL    HW214361   7.910   4.231  -2.280
37452SOL     OW14362   3.453   3.078   0.066
37452SOL    HW114363   3.502   3.094   0.147
37452SOL    HW214364   3.495   3.135   0.002
37453SOL     OW14365   5.743   2.499   2.684
37453SOL    HW114366 -16.383   2.455   2.755
37453SOL    HW214367  -5.365   2.521   2.621
37454SOL     OW14368   6.619   4.790   8.902
37454SOL    HW114369   6.580  -6.173  19.899
37454SOL    HW214370   6.665   4.744  -2.208
37455SOL     OW14371   9.703   7.368   0.024
37455SOL    HW114372   9.647   7.349   0.100
37455SOL    HW214373   9.706   7.464   0.021
37456SOL     OW14374  -0.739   7.221   8.290
37456SOL    HW114375  21.361   7.128   8.283
37456SOL    HW214376  -0.805   7.235 -24.897
37457SOL     OW14377   7.502   8.220   6.784
37457SOL    HW114378   7.427   8.163   6.800
37457SOL    HW214379   7.478   8.303   6.824
37458SOL     OW14380   9.917   4.817   0.057
37458SOL    HW114381  -1.048 -17.306   0.098
37458SOL    HW214382  20.928   4.881   0.122
37459SOL     OW14383   5.336  11.186   9.452
37459SOL    HW114384   5.403   0.083  20.513
37459SOL    HW214385   5.261  11.163   9.508
37460SOL     OW14386  10.704   8.595   6.312
37460SOL    HW114387  10.682   8.506  -4.754
37460SOL    HW214388  10.758   8.584 -26.728
37461SOL     OW14389   6.791   6.331   9.903
37461SOL    HW114390   6.786   6.236   9.894
37461SOL    HW214391   6.848   6.345  -1.061
37462SOL     OW14392   7.206   5.013   7.775
37462SOL    HW114393  18.155   5.043   7.783
37462SOL    HW214394  -3.793 -17.004  29.794
37463SOL     OW14395   4.869   4.963   4.089
37463SOL    HW114396  27.008   5.035   4.110
37463SOL    HW214397   4.782   4.998   4.110
37464SOL     OW14398   1.507   8.476   1.378
37464SOL    HW114399  -9.596  19.585  12.437
37464SOL    HW214400   1.551   8.460   1.461
37465SOL     OW14401   5.203   6.486   2.767
37465SOL    HW114402   5.118   6.496   2.725
37465SOL    HW214403   5.186   6.431  35.963
37466SOL     OW14404   8.360   4.370  10.958
37466SOL    HW114405   8.282   4.424  10.959
37466SOL    HW214406  -2.699  -6.741  11.019
37467SOL     OW14407   0.400   5.907  -1.583
37467SOL    HW114408   0.353  39.109  42.579
37467SOL    HW214409   0.338  27.925  -1.623
37468SOL     OW14410   9.852   6.561   3.069
37468SOL    HW114411   9.941   6.565   3.033
37468SOL    HW214412  -1.195   6.640  14.163
37469SOL     OW14413  10.860   9.927   3.134
37469SOL    HW114414  10.773   9.897   3.107
37469SOL    HW214415  10.888  -1.178  14.238
37470SOL     OW14416   1.427   4.532   2.418
37470SOL    HW114417   1.405 -17.640   2.421
37470SOL    HW214418  23.601 -28.584  -8.608
37471SOL     OW14419   0.732   8.245  10.106
37471SOL    HW114420 -21.440   8.235  -0.916
37471SOL    HW214421  11.782 -13.859  -1.026
37472SOL     OW14422  -0.214   9.020   0.276
37472SOL    HW114423  10.870   9.072   0.344
37472SOL    HW214424  -0.305   9.049   0.279
37473SOL     OW14425   4.651   3.056   5.586
37473SOL    HW114426   4.657   3.143  38.744
37473SOL    HW214427  15.752   3.002   5.637
37474SOL     OW14428  12.535   9.643   5.440
37474SOL    HW114429  12.518   9.560   5.394
37474SOL    HW214430 -31.555   9.622  -5.537
37475SOL     OW14431   9.999   5.030   5.620
37475SOL    HW114432   9.995  16.165   5.608
37475SOL    HW214433 -34.074   5.015   5.661
37476SOL     OW14434   0.472   1.334   1.277
37476SOL    HW114435  22.541  -9.645   1.350
37476SOL    HW214436   0.398   1.352  -9.820
37477SOL     OW14437   4.363   9.335  10.287
37477SOL    HW114438   4.305   9.265  10.318
37477SOL    HW214439   4.433   9.339  21.392
37478SOL     OW14440   2.868   1.357  -1.119
37478SOL    HW114441   2.871   1.335  10.014
37478SOL    HW214442  -8.210   1.279  20.919
37479SOL     OW14443   2.438   3.440   8.239
37479SOL    HW114444   2.509   3.415   8.179
37479SOL    HW214445   2.399   3.518  -2.841
37480SOL     OW14446   1.839   8.656   7.702
37480SOL    HW114447  12.929  -2.434   7.637
37480SOL    HW214448   1.885   8.642   7.784
37481SOL     OW14449   4.956   0.786   2.200
37481SOL    HW114450  27.122   0.766   2.235
37481SOL    HW214451  16.004   0.776  -8.934
37482SOL     OW14452   3.756   6.183   3.643
37482SOL    HW114453   3.809   6.248   3.689
37482SOL    HW214454  14.753  28.212  14.752
37483SOL     OW14455   8.674   2.642   6.556
37483SOL    HW114456   8.580  13.700  28.624
37483SOL    HW214457  19.724  13.593  39.639
37484SOL     OW14458   4.708  11.788   6.006
37484SOL    HW114459  15.837 -10.305  28.117
37484SOL    HW214460  15.692  11.753   6.075
37485SOL     OW14461   9.376   2.135   2.388
37485SOL    HW114462   9.411   2.221  13.453
37485SOL    HW214463   9.443   2.073  13.453
37486SOL     OW14464   7.609   6.004   0.617
37486SOL    HW114465   7.694   5.997 -10.379
37486SOL    HW214466   7.626   5.970  11.568
37487SOL     OW14467   9.761   1.432  -0.107
37487SOL    HW114468   9.678  -9.592  32.967
37487SOL    HW214469   9.766   1.499  -0.039
37488SOL     OW14470   9.670   7.544   7.291
37488SOL    HW114471  20.659   7.616   7.253
37488SOL    HW214472   9.755 -14.497  18.351
37489SOL     OW14473   7.662   4.063   0.931
37489SOL    HW114474   7.639  15.046   1.005
37489SOL    HW214475   7.747   4.100   0.955
37490SOL     OW14476  10.749   6.814   2.448
37490SOL    HW114477  10.768   6.801  13.581
37490SOL    HW214478  10.695   6.739   2.424
37491SOL     OW14479   4.685   2.013  10.160
37491SOL    HW114480  -6.350   2.031  10.066
37491SOL    HW214481  -6.264   2.022  10.190
37492SOL     OW14482  -1.049   5.116   4.734
37492SOL    HW114483   9.908   5.132  15.729
37492SOL    HW214484  32.103   5.034  37.815
37493SOL     OW14485   1.988   0.616   8.551
37493SOL    HW114486   1.983   0.636   8.644
37493SOL    HW214487   2.026   0.694   8.511
37494SOL     OW14488   5.185   4.135   2.725
37494SOL    HW114489  27.273  15.213   2.638
37494SOL    HW214490  16.203   4.043  13.748
37495SOL     OW14491   4.139   8.276   9.093
37495SOL    HW114492   4.134   8.235  20.046
37495SOL    HW214493   4.049  19.342  20.152
37496SOL     OW14494   0.616  -0.758   0.742
37496SOL    HW114495   0.556  21.361  11.718
37496SOL    HW214496   0.577  21.342   0.827
37497SOL     OW14497   2.662   1.218   8.809
37497SOL    HW114498  13.608   1.197  -2.233
37497SOL    HW214499   2.664   1.313 -24.299
37498SOL     OW14500   1.432   1.890   8.571
37498SOL    HW114501   1.350  12.882  30.658
37498SOL    HW214502   1.409   1.981 -35.569
37499SOL     OW14503   3.979   8.688   3.379
37499SOL    HW114504   3.928   8.697   3.460
37499SOL    HW214505   3.986   8.777   3.345
37500SOL     OW14506   0.811   8.734   7.027
37500SOL    HW114507   0.904   8.731   7.049
37500SOL    HW214508   0.773   8.660   7.075
37501SOL     OW14509   8.826   6.188   4.507
37501SOL    HW114510   8.874   6.266   4.533
37501SOL    HW214511  30.949   6.158   4.427
37502SOL     OW14512   8.635   3.445   8.390
37502SOL    HW114513  19.758   3.483   8.363
37502SOL    HW214514   8.642   3.439   8.486
37503SOL     OW14515   8.359   7.960   2.013
37503SOL    HW114516   8.447   7.998   2.008
37503SOL    HW214517   8.367   7.891   2.080
37504SOL     OW14518   9.319   0.417   6.733
37504SOL    HW114519   9.392   0.377  -4.354
37504SOL    HW214520 -12.718  22.560   6.792
37505SOL     OW14521   7.627  10.444   5.816
37505SOL    HW114522   7.611  10.378   5.749
37505SOL    HW214523   7.540  10.472  16.883
37506SOL     OW14524   9.797   1.531   7.632
37506SOL    HW114525   9.788  -9.602   7.610
37506SOL    HW214526   9.844   1.531   7.715
37507SOL     OW14527   5.733   3.310   7.897
37507SOL    HW114528   5.784   3.389   7.912
37507SOL    HW214529   5.658   3.317   7.957
37508SOL     OW14530   0.699  -0.211   5.178
37508SOL    HW114531   0.782  10.783 -38.992
37508SOL    HW214532 -10.352  -0.160  16.138
37509SOL     OW14533   1.233   4.508   1.082
37509SOL    HW114534   1.287   4.577   1.120
37509SOL    HW214535   1.260   4.428   1.127
37510SOL     OW14536   3.430   4.924  10.381
37510SOL    HW114537  14.480  -6.174  10.305
37510SOL    HW214538   3.485  15.925  10.449
37511SOL     OW14539   4.717   9.707   2.998
37511SOL    HW114540  26.817   9.675 -18.994
37511SOL    HW214541  -6.325   9.628   2.943
37512SOL     OW14542   6.475   9.622   8.471
37512SOL    HW114543   6.492   9.698  -2.625
37512SOL    HW214544  -4.650   9.589  -2.598
37513SOL     OW14545   8.009   2.562   6.442
37513SOL    HW114546   8.033  -8.459   6.533
37513SOL    HW214547   8.080   2.507   6.410
37514SOL     OW14548   3.293   8.808   8.502
37514SOL    HW114549   3.310  -2.220   8.408
37514SOL    HW214550   3.252  19.929   8.529
37515SOL     OW14551   6.166   9.701   6.339
37515SOL    HW114552   6.141  -1.347   6.248
37515SOL    HW214553   6.262   9.707   6.337
37516SOL     OW14554   7.686   7.990   6.447
37516SOL    HW114555  -3.382   7.979   6.537
37516SOL    HW214556 -14.326   7.924   6.435
37517SOL     OW14557   8.207   9.029   5.287
37517SOL    HW114558   8.191   8.992   5.200
37517SOL    HW214559   8.273  31.052  38.444
37518SOL     OW14560   3.653   4.004   8.215
37518SOL    HW114561   3.742   4.027   8.188
37518SOL    HW214562  14.677  15.095   8.294
37519SOL     OW14563   7.218   9.413   4.512
37519SOL    HW114564   7.198   9.437   4.422
37519SOL    HW214565   7.135   9.422   4.559
37520SOL     OW14566  10.372   0.092   1.963
37520SOL    HW114567  10.368   0.141   2.045
37520SOL    HW214568  10.282   0.063   1.949
37521SOL     OW14569  -0.303   9.582   6.318
37521SOL    HW114570  32.746  -1.507   6.273
37521SOL    HW214571  10.815  -1.511  39.423
37522SOL     OW14572   9.275   4.270  10.717
37522SOL    HW114573   9.318   4.198  10.672
37522SOL    HW214574   9.184   4.265  10.690
37523SOL     OW14575   4.948   6.720  -0.314
37523SOL    HW114576   5.012  28.868  10.706
37523SOL    HW214577  -6.065  39.765  -0.369
37524SOL     OW14578   6.675   5.240   1.996
37524SOL    HW114579   6.624 -27.957   2.015
37524SOL    HW214580   6.630 -27.838   1.921
37525SOL     OW14581   2.102   2.860   8.745
37525SOL    HW114582   2.029  13.900   8.683
37525SOL    HW214583   2.179  13.883   8.691
37526SOL     OW14584   4.494   1.558   7.555
37526SOL    HW114585   4.525   1.468  18.589
37526SOL    HW214586   4.501  23.660   7.647
37527SOL     OW14587   0.287   8.121   7.775
37527SOL    HW114588   0.329  19.245   7.795
37527SOL    HW214589   0.294  -2.968   7.857
37528SOL     OW14590  10.358  -0.209   3.402
37528SOL    HW114591 -11.707  54.997   3.308
37528SOL    HW214592 -11.811  10.799   3.410
37529SOL     OW14593   0.300   1.608   4.206
37529SOL    HW114594  11.298   1.693   4.199
37529SOL    HW214595   0.392   1.624   4.184
37530SOL     OW14596   9.612   4.312   7.504
37530SOL    HW114597   9.518  -6.721  -3.519
37530SOL    HW214598 -34.506  -6.673  29.651
37531SOL     OW14599   1.777   6.023   3.616
37531SOL    HW114600   1.856   6.066   3.649
37531SOL    HW214601   1.809   5.943   3.575
37532SOL     OW14602   8.242   9.861   3.950
37532SOL    HW114603  19.220   9.840   3.880
37532SOL    HW214604   8.290   9.937  -7.122
37533SOL     OW14605   7.690   7.998   5.714
37533SOL    HW114606   7.710   7.967  -5.237
37533SOL    HW214607   7.677   7.919  -5.377
37534SOL     OW14608   6.336  10.353  10.497
37534SOL    HW114609   6.367  10.273  10.455
37534SOL    HW214610   6.241  21.392 -11.596
37535SOL     OW14611   4.726   8.564   7.015
37535SOL    HW114612   4.677   8.527   7.088
37535SOL    HW214613   4.798  30.691   7.055
37536SOL     OW14614   9.330   9.644   8.751
37536SOL    HW114615   9.378   9.725   8.767
37536SOL    HW214616  -1.802   9.669   8.757
37537SOL     OW14617   7.793   2.245   8.508
37537SOL    HW114618   7.813   2.304   8.581
37537SOL    HW214619  29.810   2.183  30.625
37538SOL     OW14620   2.765   9.854   8.908
37538SOL    HW114621   2.860   9.858   8.897
37538SOL    HW214622  13.792   9.791   8.979
37539SOL     OW14623   0.935   4.930  10.795
37539SOL    HW114624   0.996   5.002  10.780
37539SOL    HW214625   0.891   4.918  10.711
37540SOL     OW14626   7.396   2.886   8.759
37540SOL    HW114627  29.491   2.927   8.844
37540SOL    HW214628   7.373   2.959   8.702
37541SOL     OW14629   9.588  10.923   5.382
37541SOL    HW114630   9.540  10.955   5.306
37541SOL    HW214631   9.606  10.831   5.363
37542SOL     OW14632   8.510   1.501   7.493
37542SOL    HW114633   8.473   1.417   7.464
37542SOL    HW214634  -2.446   1.507   7.446
37543SOL     OW14635   7.757   4.905   2.195
37543SOL    HW114636   7.829   4.847   2.169
37543SOL    HW214637   7.799   4.974  24.324
37544SOL     OW14638   3.049   4.514   5.340
37544SOL    HW114639   3.084   4.578   5.403
37544SOL    HW214640  -8.080   4.496   5.371
37545SOL     OW14641   1.620   3.711   1.401
37545SOL    HW114642 -20.466  25.751   1.488
37545SOL    HW214643   1.582  25.877   1.411
37546SOL     OW14644   9.688  -0.654   6.311
37546SOL    HW114645   9.656  21.357  17.291
37546SOL    HW214646   9.630  -0.579  -4.745
37547SOL     OW14647   8.372   1.292   2.109
37547SOL    HW114648   8.327   1.247   2.181
37547SOL    HW214649  -2.614  12.398  13.192
37548SOL     OW14650   7.303   0.412   4.863
37548SOL    HW114651   7.385   0.461  -6.183
37548SOL    HW214652   7.307   0.349   4.790
37549SOL     OW14653   9.147   3.731  11.037
37549SOL    HW114654   9.069  14.810  11.075
37549SOL    HW214655  42.293   3.793  10.969
37550SOL     OW14656   1.977   2.593   9.517
37550SOL    HW114657  -9.140  -8.494   9.550
37550SOL    HW214658 -20.032 -19.509   9.578
37551SOL     OW14659   5.161   4.869   9.969
37551SOL    HW114660   5.075  15.928  10.006
37551SOL    HW214661  -5.836  15.993 -12.116
37552SOL     OW14662  11.442   8.635   8.528
37552SOL    HW114663 -10.651  -2.413   8.623
37552SOL    HW214664  22.448   8.553   8.492
37553SOL     OW14665   8.059   4.636   4.265
37553SOL    HW114666   8.027   4.626   4.355
37553SOL    HW214667   7.982  15.704   4.216
37554SOL     OW14668   0.146   4.535   4.717
37554SOL    HW114669  11.166   4.601   4.784
37554SOL    HW214670  22.286  15.618   4.657
37555SOL     OW14671  10.750   5.319   3.340
37555SOL    HW114672  -0.214   5.350   3.389
37555SOL    HW214673  10.693   5.280  -7.633
37556SOL     OW14674   0.541  10.124   8.559
37556SOL    HW114675  11.663  10.172   8.567
37556SOL    HW214676   0.529  10.082   8.644
37557SOL     OW14677   5.855   3.433   9.124
37557SOL    HW114678  16.839   3.510   9.124
37557SOL    HW214679   5.858   3.404 -12.864
37558SOL     OW14680   1.678  10.453   6.373
37558SOL    HW114681   1.652  10.396   6.300
37558SOL    HW214682   1.662  10.400   6.451
37559SOL     OW14683   4.684   5.267   6.872
37559SOL    HW114684   4.662  -5.703   6.811
37559SOL    HW214685  -6.289   5.214   6.827
37560SOL     OW14686   4.050   7.618  10.663
37560SOL    HW114687   3.989   7.693  10.663
37560SOL    HW214688   4.135   7.657  -0.357
37561SOL     OW14689   3.076   8.372   3.894
37561SOL    HW114690  14.094   8.458   3.859
37561SOL    HW214691   3.011  19.397   3.963
37562SOL     OW14692  12.454   7.139   5.069
37562SOL    HW114693 -20.631   7.154   4.981
37562SOL    HW214694   1.342  18.240   5.078
37563SOL     OW14695   6.612   4.324  -2.718
37563SOL    HW114696   6.543   4.367  30.451
37563SOL    HW214697   6.621   4.238  19.402
37564SOL     OW14698   3.446   4.621   2.795
37564SOL    HW114699   3.403   4.648   2.876
37564SOL    HW214700  14.475   4.525   2.793
37565SOL     OW14701   1.237   5.804   0.610
37565SOL    HW114702  -9.877   5.840   0.658
37565SOL    HW214703   1.313 -27.281   0.657
37566SOL     OW14704   7.856   9.481   0.807
37566SOL    HW114705   7.774   9.516  11.813
37566SOL    HW214706   7.896   9.436   0.732
37567SOL     OW14707   1.463  10.525   6.168
37567SOL    HW114708   1.489  10.434   6.159
37567SOL    HW214709   1.543  10.575   6.150
37568SOL     OW14710   7.188   2.735   7.128
37568SOL    HW114711   7.116   2.710  18.226
37568SOL    HW214712  18.234   2.830   7.137
37569SOL     OW14713   9.442   4.464   7.033
37569SOL    HW114714   9.442   4.369   7.018
37569SOL    HW214715   9.535  -6.553  -4.005
37570SOL     OW14716   6.858   3.587   1.364
37570SOL    HW114717   6.776   3.584  -9.724
37570SOL    HW214718   6.888 -29.441   1.356
37571SOL     OW14719   5.451   1.317   4.604
37571SOL    HW114720   5.457   1.267   4.522
37571SOL    HW214721   5.510   1.272   4.664
37572SOL     OW14722   4.568   3.823   0.838
37572SOL    HW114723   4.660  -7.195   0.854
37572SOL    HW214724   4.571  -7.286   0.771
37573SOL     OW14725  10.074   9.207   8.636
37573SOL    HW114726  10.116   9.155   8.704
37573SOL    HW214727  10.022  20.183   8.586
37574SOL     OW14728   9.841   7.562   7.993
37574SOL    HW114729  20.812   7.615   7.950
37574SOL    HW214730   9.919   7.579  18.980
37575SOL     OW14731   9.056   5.002   7.663
37575SOL    HW114732   9.047   4.959   7.578
37575SOL    HW214733   8.996   4.954   7.720
37576SOL     OW14734   1.564   5.514   3.268
37576SOL    HW114735   1.657   5.507  14.287
37576SOL    HW214736   1.536   5.594  14.263
37577SOL     OW14737   5.883   8.676   7.854
37577SOL    HW114738   5.881   8.586   7.823
37577SOL    HW214739  28.035  -2.324  -3.232
37578SOL     OW14740   2.161   8.757   8.995
37578SOL    HW114741   2.205   8.674   8.976
37578SOL    HW214742  35.296   8.771   9.089
37579SOL     OW14743   1.357   6.443  11.034
37579SOL    HW114744   1.424  -4.555  11.088
37579SOL    HW214745 -20.805   6.468  11.073
37580SOL     OW14746   5.251   2.954   1.292
37580SOL    HW114747  -5.745  -8.122 -20.711
37580SOL    HW214748  -5.717 -19.093   1.236
37581SOL     OW14749   9.689   6.281   6.524
37581SOL    HW114750   9.675   6.203  17.616
37581SOL    HW214751   9.602   6.319   6.513
37582SOL     OW14752   8.630   1.574   1.400
37582SOL    HW114753   8.688  -9.390   1.397
37582SOL    HW214754  19.648  23.643   1.492
37583SOL     OW14755   9.006   2.460   5.922
37583SOL    HW114756   9.095   2.482   5.949
37583SOL    HW214757  -2.089   2.493  -5.047
37584SOL     OW14758   3.504   9.069   7.252
37584SOL    HW114759  14.634  -1.939   7.262
37584SOL    HW214760  14.490  -1.903 -14.786
37585SOL     OW14761   4.682   6.758   8.147
37585SOL    HW114762   4.626   6.707  -2.951
37585SOL    HW214763   4.770 -15.329  -2.929
37586SOL     OW14764   6.996   0.884   8.225
37586SOL    HW114765  -3.999  33.940   8.168
37586SOL    HW214766   7.055   0.894   8.300
37587SOL     OW14767   5.076   2.472   8.584
37587SOL    HW114768  27.211  13.480   8.655
37587SOL    HW214769  16.057   2.535   8.626
37588SOL     OW14770   1.615  10.800   5.619
37588SOL    HW114771  12.640  10.706   5.609
37588SOL    HW214772  -9.365  10.808   5.693
37589SOL     OW14773   4.650   4.201  10.598
37589SOL    HW114774   4.582   4.268 -33.573
37589SOL    HW214775   4.714  26.322  10.656
37590SOL     OW14776  10.202   3.980   9.127
37590SOL    HW114777  10.124   3.978   9.182
37590SOL    HW214778  21.315   3.979  42.307
37591SOL     OW14779  10.005   7.606   6.911
37591SOL    HW114780  10.025   7.574  -4.041
37591SOL    HW214781  10.002  -3.339   6.920
37592SOL     OW14782   2.974   4.632   4.656
37592SOL    HW114783  13.989  15.659  -6.476
37592SOL    HW214784  14.099   4.590   4.664
37593SOL     OW14785   8.483   6.622   8.125
37593SOL    HW114786   8.431   6.688   8.079
37593SOL    HW214787  -2.470  -4.414   8.084
37594SOL     OW14788   1.393   0.313   8.817
37594SOL    HW114789 -20.673  11.396   8.902
37594SOL    HW214790   1.300   0.287  -2.222
37595SOL     OW14791   9.728   3.317   8.073
37595SOL    HW114792   9.821  -7.730   8.094
37595SOL    HW214793   9.717  -7.631  -2.994
37596SOL     OW14794   2.042   4.897   9.629
37596SOL    HW114795   2.034  -6.094  -1.493
37596SOL    HW214796  -9.084 -17.177   9.669
37597SOL     OW14797   9.535   3.530   5.274
37597SOL    HW114798   9.591   3.602   5.247
37597SOL    HW214799  20.634   3.456   5.286
37598SOL     OW14800   7.090  10.368   2.376
37598SOL    HW114801   7.092 -11.806  -8.680
37598SOL    HW214802   7.182  -0.647   2.383
37599SOL     OW14803   7.354   9.420   1.634
37599SOL    HW114804   7.283  20.523   1.621
37599SOL    HW214805   7.345   9.359   1.561
37600SOL     OW14806   0.396   8.895  10.406
37600SOL    HW114807   0.321   8.948  10.379
37600SOL    HW214808   0.359   8.808  10.421
37601SOL     OW14809   0.710   1.100   2.417
37601SOL    HW114810   0.645   1.063   2.478
37601SOL    HW214811   0.663  12.212   2.374
37602SOL     OW14812   2.503   0.756  10.866
37602SOL    HW114813   2.597   0.747  10.852
37602SOL    HW214814   2.495   0.784  10.957
37603SOL     OW14815  10.763   7.669   6.738
37603SOL    HW114816  10.707  -3.380   6.816
37603SOL    HW214817  10.704   7.703   6.671
37604SOL     OW14818   7.153   8.534   6.734
37604SOL    HW114819 -15.017 -13.572  17.773
37604SOL    HW214820 -14.879  -2.575   6.687
37605SOL     OW14821   5.775   0.082   6.859
37605SOL    HW114822  27.769   0.125   6.851
37605SOL    HW214823  38.896   0.050   6.949
37606SOL     OW14824   2.345   6.539   2.092
37606SOL    HW114825   2.287  17.655  -8.950
37606SOL    HW214826 -19.729  -4.524   2.184
37607SOL     OW14827   5.686   3.696   5.104
37607SOL    HW114828  -5.353  -7.308   5.015
37607SOL    HW214829  -5.323   3.768   5.159
37608SOL     OW14830   4.199   8.072   0.803
37608SOL    HW114831 -17.853   8.164 -10.229
37608SOL    HW214832   4.127 -25.056   0.865
37609SOL     OW14833   8.303   4.647  10.667
37609SOL    HW114834   8.269   4.627  -0.459
37609SOL    HW214835  19.425  -6.442  10.672
37610SOL     OW14836   5.492   8.117   4.952
37610SOL    HW114837   5.572  41.255   4.903
37610SOL    HW214838   5.428   8.096  15.924
37611SOL     OW14839   9.947   9.095   4.453
37611SOL    HW114840  10.027  -1.933 -17.575
37611SOL    HW214841   9.964  -1.895   4.372
37612SOL     OW14842   0.500   7.884  10.200
37612SOL    HW114843   0.481   7.870  -0.746
37612SOL    HW214844  22.605   7.798  10.168
37613SOL     OW14845   0.466   2.170   7.158
37613SOL    HW114846   0.523 -19.933   7.086
37613SOL    HW214847   0.441   2.087  29.277
37614SOL     OW14848   2.078   7.058   5.791
37614SOL    HW114849   2.063  40.220   5.707
37614SOL    HW214850   2.151   6.999   5.775
37615SOL     OW14851   3.779   9.041   6.967
37615SOL    HW114852   3.754  42.108  18.083
37615SOL    HW214853  -7.184  -1.949   6.996
37616SOL     OW14854   0.610  10.099   1.118
37616SOL    HW114855  11.689  10.015   1.140
37616SOL    HW214856 -10.356  10.156   1.095
37617SOL     OW14857   5.564   8.876   6.183
37617SOL    HW114858   5.550  20.004   6.217
37617SOL    HW214859   5.478   8.835  17.225
37618SOL     OW14860   3.381   2.360   2.478
37618SOL    HW114861   3.469   2.368  13.553
37618SOL    HW214862   3.349  -8.764  13.551
37619SOL     OW14863   1.410  10.306   8.842
37619SOL    HW114864   1.455  10.389   8.856
37619SOL    HW214865   1.426  10.285   8.750
37620SOL     OW14866   4.933   5.704   4.508
37620SOL    HW114867   4.892   5.626   4.546
37620SOL    HW214868   4.988   5.670  -6.602
37621SOL     OW14869  10.232   8.190   4.300
37621SOL    HW114870  10.185  -2.770  15.365
37621SOL    HW214871  10.167  19.176   4.255
37622SOL     OW14872   4.282   6.504   6.165
37622SOL    HW114873 -17.772  17.627  17.165
37622SOL    HW214874   4.326   6.438  17.152
37623SOL     OW14875   0.841   8.011   6.145
37623SOL    HW114876  11.973  30.081   6.170
37623SOL    HW214877   0.796  18.983   6.196
37624SOL     OW14878   6.729   7.651   6.256
37624SOL    HW114879   6.683 -47.620   6.297
37624SOL    HW214880   6.813  -3.426   6.230
37625SOL     OW14881   2.700   5.760   7.856
37625SOL    HW114882  -8.409   5.791   7.798
37625SOL    HW214883   2.731   5.679   7.814
37626SOL     OW14884   0.197   7.033   3.757
37626SOL    HW114885  11.254  18.143   3.694
37626SOL    HW214886   0.194   7.077   3.842
37627SOL     OW14887  -0.579   9.114   0.686
37627SOL    HW114888  10.450   9.093   0.594
37627SOL    HW214889  10.526   9.052  11.757
37628SOL     OW14890   7.507   0.217   6.768
37628SOL    HW114891   7.476  11.225  28.932
37628SOL    HW214892   7.435   0.197  -4.332
37629SOL     OW14893   5.801   9.563   5.035
37629SOL    HW114894   5.862   9.624   5.076
37629SOL    HW214895   5.723   9.565   5.090
37630SOL     OW14896  10.304  11.555   1.129
37630SOL    HW114897  10.244 -10.512  -9.984
37630SOL    HW214898  21.421  11.605   1.105
37631SOL     OW14899   8.027   1.475  10.574
37631SOL    HW114900   8.018   1.505  10.664
37631SOL    HW214901   8.118   1.444  10.569
37632SOL     OW14902   1.638   1.675   2.574
37632SOL    HW114903  23.766   1.627  13.546
37632SOL    HW214904  -9.338   1.692  13.683
37633SOL     OW14905   8.493   7.238   2.964
37633SOL    HW114906  19.619   7.261   2.930
37633SOL    HW214907  19.548   7.168   3.026
37634SOL     OW14908   9.950   2.727   5.497
37634SOL    HW114909   9.997   2.733   5.414
37634SOL    HW214910 -12.113   2.638   5.527
37635SOL     OW14911   1.349  -3.550  13.008
37635SOL    HW114912  -9.596  40.601 -20.098
37635SOL    HW214913  23.403  51.567 -20.156
37636SOL     OW14914   9.032   6.371   7.946
37636SOL    HW114915   9.084  -4.712   8.014
37636SOL    HW214916   8.942   6.345   7.965
37637SOL     OW14917   1.360   2.587   1.874
37637SOL    HW114918   1.368   2.635  23.871
37637SOL    HW214919   1.276  13.655   1.910
37638SOL     OW14920  10.707   8.184   7.714
37638SOL    HW114921  -0.332   8.222   7.802
37638SOL    HW214922  10.800   8.169 -14.384
37639SOL     OW14923   3.673   8.017   3.768
37639SOL    HW114924   3.677  18.979  -7.326
37639SOL    HW214925   3.585   8.051  14.796
37640SOL     OW14926  12.810   2.387   9.575
37640SOL    HW114927  -9.309  13.455  20.697
37640SOL    HW214928   1.696   2.379   9.514
37641SOL     OW14929   6.812   0.398   9.695
37641SOL    HW114930  17.822   0.447 -12.308
37641SOL    HW214931  28.901  22.543   9.626
37642SOL     OW14932  12.147   9.618   9.617
37642SOL    HW114933  12.137   9.704   9.659
37642SOL    HW214934  -9.999  20.603   9.657
37643SOL     OW14935   2.842   7.164   8.963
37643SOL    HW114936   2.872   7.136  19.916
37643SOL    HW214937  13.791  18.171   8.968
37644SOL     OW14938   8.306   9.448  11.603
37644SOL    HW114939   8.273   9.493   0.486
37644SOL    HW214940   8.239  20.421  11.622
37645SOL     OW14941   8.821  10.996   1.120
37645SOL    HW114942   8.874  11.076   1.117
37645SOL    HW214943   8.851  -0.089   1.198
37646SOL     OW14944   6.105   0.745   4.243
37646SOL    HW114945   6.134   0.667   4.290
37646SOL    HW214946   6.126   0.727   4.151
37647SOL     OW14947   7.089   5.773   4.276
37647SOL    HW114948  -3.927   5.866  -6.762
37647SOL    HW214949  -3.942   5.745   4.367
37648SOL     OW14950   1.312   1.473   4.297
37648SOL    HW114951   1.307  -9.652   4.339
37648SOL    HW214952   1.317   1.535   4.370
37649SOL     OW14953   6.739   5.129   0.966
37649SOL    HW114954  28.878   5.164   0.901
37649SOL    HW214955  17.727  -5.835   0.996
37650SOL     OW14956   5.803  11.411   2.132
37650SOL    HW114957   5.760   0.325   2.204
37650SOL    HW214958  -5.257  11.359  13.094
37651SOL     OW14959   6.110   1.854   1.344
37651SOL    HW114960   6.060   1.936   1.348
37651SOL    HW214961   6.187  -9.163   1.292
37652SOL     OW14962   0.303  10.942   9.034
37652SOL    HW114963   0.284  -0.027  -1.944
37652SOL    HW214964   0.221  10.928 -13.093
37653SOL     OW14965   4.714   2.889   1.971
37653SOL    HW114966   4.736   2.898   1.879
37653SOL    HW214967   4.658   2.964   1.990
37654SOL     OW14968   1.353   5.676   9.404
37654SOL    HW114969   1.393  16.718   9.317
37654SOL    HW214970   1.334   5.583   9.418
37655SOL     OW14971   3.569   5.027   2.158
37655SOL    HW114972   3.644   4.987   2.203
37655SOL    HW214973  -7.467  16.031   2.070
37656SOL     OW14974   7.513   5.024   6.702
37656SOL    HW114975   7.485   5.026   6.793
37656SOL    HW214976   7.487   5.109   6.666
37657SOL     OW14977   7.318   2.106   8.585
37657SOL    HW114978   7.276   2.112  19.538
37657SOL    HW214979   7.255 -20.021   8.639
37658SOL     OW14980   5.696   9.003   8.544
37658SOL    HW114981 -16.392   9.054   8.463
37658SOL    HW214982 -27.356  31.016   8.523
37659SOL     OW14983   4.269   7.895   8.963
37659SOL    HW114984   4.247   7.829   8.897
37659SOL    HW214985   4.213   7.875   9.037
37660SOL     OW14986   9.298   7.019   6.597
37660SOL    HW114987   9.345   7.095 -15.450
37660SOL    HW214988  -1.828   7.052   6.571
37661SOL     OW14989   9.638   3.014   6.302
37661SOL    HW114990   9.721  14.005   6.295
37661SOL    HW214991   9.598   2.980   6.382
37662SOL     OW14992   9.138   8.851   0.304
37662SOL    HW114993   9.227  -2.190   0.267
37662SOL    HW214994   9.114   8.943   0.306
37663SOL     OW14995   0.179   4.329   1.243
37663SOL    HW114996   0.236   4.405   1.254
37663SOL    HW214997   0.099   4.352   1.291
37664SOL     OW14998   0.354   2.974   4.060
37664SOL    HW114999   0.377  24.986   4.125
37664SOL    HW215000   0.275  -8.025   4.095
37665SOL     OW15001   0.856   5.867   9.628
37665SOL    HW115002   0.863   5.917   9.547
37665SOL    HW215003   0.765   5.874  20.694
37666SOL     OW15004  -0.320   0.625   8.722
37666SOL    HW115005  -0.264   0.701  19.750
37666SOL    HW215006  10.773 -10.488   8.691
37667SOL     OW15007   4.177   2.205   1.703
37667SOL    HW115008  -6.833   2.284   1.748
37667SOL    HW215009  26.294  13.252 -20.464
37668SOL     OW15010   3.023   7.150  11.894
37668SOL    HW115011  25.039   7.222 -10.178
37668SOL    HW215012   3.108   7.193  11.889
37669SOL     OW15013  11.352   8.444   6.291
37669SOL    HW115014  11.371   8.476   6.203
37669SOL    HW215015   0.226   8.403   6.283
37670SOL     OW15016   6.208   1.145   2.719
37670SOL    HW115017   6.262  34.312   2.782
37670SOL    HW215018   6.179  12.251   2.657
37671SOL     OW15019   4.090   9.636   8.303
37671SOL    HW115020  15.221   9.610   8.287
37671SOL    HW215021  15.083  31.633   8.314
37672SOL     OW15022   4.693   5.643   1.047
37672SOL    HW115023  -6.366   5.597  12.169
37672SOL    HW215024 -17.291   5.650   1.045
37673SOL     OW15025   8.478   5.258  -0.427
37673SOL    HW115026   8.480   5.349  -0.457
37673SOL    HW215027   8.527  16.250  10.546
37674SOL     OW15028   0.029   2.279   6.211
37674SOL    HW115029  -0.054   2.230   6.212
37674SOL    HW215030   0.083   2.234   6.276
37675SOL     OW15031   8.414   5.407   1.566
37675SOL    HW115032   8.354  -5.631  -9.549
37675SOL    HW215033   8.501   5.403  -9.513
37676SOL     OW15034   6.431   6.031  10.542
37676SOL    HW115035   6.349   5.983  10.531
37676SOL    HW215036   6.461 -16.071  10.630
37677SOL     OW15037   9.804   5.618   7.643
37677SOL    HW115038  -1.281   5.592   7.724
37677SOL    HW215039  31.975   5.624   7.668
37678SOL     OW15040   7.249   6.045   3.137
37678SOL    HW115041  -3.869  -4.980   3.191
37678SOL    HW215042   7.276  28.212   3.110
37679SOL     OW15043   2.110   0.782   8.113
37679SOL    HW115044   2.021  11.795   8.135
37679SOL    HW215045   2.154   0.791   8.198
37680SOL     OW15046   0.737   7.226   5.209
37680SOL    HW115047 -10.242   7.298   5.190
37680SOL    HW215048   0.756   7.200   5.298
37681SOL     OW15049   3.305   8.109   9.767
37681SOL    HW115050   3.374   8.173  20.821
37681SOL    HW215051   3.234   8.136  -1.213
37682SOL     OW15052   7.177   1.204   9.041
37682SOL    HW115053   7.243  -9.855   8.975
37682SOL    HW215054   7.222   1.263   9.102
37683SOL     OW15055   1.019   6.651   1.703
37683SOL    HW115056   0.984   6.740  23.791
37683SOL    HW215057   0.949   6.594  23.815
37684SOL     OW15058  10.121   5.251   6.857
37684SOL    HW115059  -1.007   5.237   6.824
37684SOL    HW215060  10.110  -5.722   6.925
37685SOL     OW15061   5.618   1.988  13.148
37685SOL    HW115062   5.627   1.900  -8.893
37685SOL    HW215063   5.648   2.047 -30.941
37686SOL     OW15064   4.383  -0.267   6.883
37686SOL    HW115065  -6.727  -0.325  28.991
37686SOL    HW215066   4.447  10.714  17.882
37687SOL     OW15067   9.035   6.159   6.394
37687SOL    HW115068   8.962  28.300  -4.654
37687SOL    HW215069   9.043  17.159   6.307
37688SOL     OW15070   5.938  10.831   0.806
37688SOL    HW115071   6.022  10.876   0.818
37688SOL    HW215072   5.949  10.748   0.852
37689SOL     OW15073   1.978   9.154   8.823
37689SOL    HW115074   1.981   9.210   8.745
37689SOL    HW215075   1.885   9.143  -2.199
37690SOL     OW15076  10.134   7.008   8.443
37690SOL    HW115077  10.121   6.949   8.517
37690SOL    HW215078  21.249   6.971   8.397
37691SOL     OW15079  -1.235   6.789   1.046
37691SOL    HW115080  42.967   6.825   0.968
37691SOL    HW215081  -1.204   6.699   1.051
37692SOL     OW15082   5.216   3.809   7.697
37692SOL    HW115083   5.227  14.900   7.777
37692SOL    HW215084  16.344   3.784   7.672
37693SOL     OW15085   0.025  11.511   9.427
37693SOL    HW115086   0.075  11.430   9.434
37693SOL    HW215087  11.100   0.515  31.429
37694SOL     OW15088   1.765   2.009   6.362
37694SOL    HW115089  12.850  24.017  -4.632
37694SOL    HW215090   1.831   2.078   6.353
37695SOL     OW15091   7.848   2.442   3.816
37695SOL    HW115092   7.917   2.381   3.790
37695SOL    HW215093   7.873   2.525   3.776
37696SOL     OW15094   9.221  10.242   1.589
37696SOL    HW115095   9.264  10.281  12.704
37696SOL    HW215096   9.283  10.254   1.517
37697SOL     OW15097   7.004   3.629   0.748
37697SOL    HW115098   7.000  14.757 -10.254
37697SOL    HW215099   6.979   3.641  11.696
37698SOL     OW15100   1.890  11.613   1.595
37698SOL    HW115101  12.945 -10.378   1.630
37698SOL    HW215102   1.915  11.554   1.665
37699SOL     OW15103   3.130   3.866   4.501
37699SOL    HW115104   3.109   3.955   4.528
37699SOL    HW215105   3.224  -7.182   4.515
37700SOL     OW15106   8.937   7.476   8.113
37700SOL    HW115107   8.897   7.522   8.040
37700SOL    HW215108   8.877   7.404  19.171
37701SOL     OW15109   5.453   4.495  11.982
37701SOL    HW115110   5.401  26.549 -10.020
37701SOL    HW215111   5.389   4.510  11.913
37702SOL     OW15112  10.035   5.269   4.970
37702SOL    HW115113  10.129   5.279   4.988
37702SOL    HW215114  10.032   5.236  15.920
37703SOL     OW15115  10.102   7.653   5.960
37703SOL    HW115116  21.179   7.587   6.018
37703SOL    HW215117  -1.031   7.656   5.983
37704SOL     OW15118   6.031   8.758   6.712
37704SOL    HW115119  16.982   8.791  17.760
37704SOL    HW215120  -4.998   8.739  17.659
37705SOL     OW15121   8.197   0.209   6.799
37705SOL    HW115122   8.157  22.206 -26.289
37705SOL    HW215123  -2.915   0.260   6.764
37706SOL     OW15124  -0.584   3.284  11.126
37706SOL    HW115125  10.399   3.294  11.203
37706SOL    HW215126  -0.637  14.356   0.014
37707SOL     OW15127   9.854   8.256   8.422
37707SOL    HW115128   9.823   8.198   8.353
37707SOL    HW215129  20.927  30.412   8.375
37708SOL     OW15130   7.653   6.652   3.623
37708SOL    HW115131   7.629  17.635  -7.490
37708SOL    HW215132   7.583   6.717   3.627
37709SOL     OW15133   7.136  -2.612   2.483
37709SOL    HW115134   7.112  30.587   2.530
37709SOL    HW215135   7.082  41.478  24.600
37710SOL     OW15136   3.372   3.859   6.755
37710SOL    HW115137   3.327   3.866  17.879
37710SOL    HW215138   3.335   3.930  50.860
37711SOL     OW15139   5.194  10.730   3.765
37711SOL    HW115140   5.210  10.651   3.818
37711SOL    HW215141 -38.879  10.774   3.763
37712SOL     OW15142   9.168   2.150   9.308
37712SOL    HW115143 -23.882   2.161   9.242
37712SOL    HW215144 -35.030   2.066  31.366
37713SOL     OW15145   9.927   1.087   9.568
37713SOL    HW115146   9.965   1.012  -1.427
37713SOL    HW215147   9.835  12.102  -1.487
37714SOL     OW15148   1.510   1.405   4.013
37714SOL    HW115149   1.555   1.461   4.077
37714SOL    HW215150   1.439   1.459  15.019
37715SOL     OW15151   7.246   3.581   2.522
37715SOL    HW115152   7.327   3.589   2.572
37715SOL    HW215153  -3.787   3.496   2.479
37716SOL     OW15154   9.794  10.294   0.447
37716SOL    HW115155 -12.243  10.376   0.421
37716SOL    HW215156   9.734 -11.760  11.557
37717SOL     OW15157   6.521   6.156   6.730
37717SOL    HW115158   6.594  -4.933   6.766
37717SOL    HW215159   6.455   6.156   6.800
37718SOL     OW15160   5.730   4.047   2.748
37718SOL    HW115161   5.713   3.973   2.689
37718SOL    HW215162   5.666   4.113   2.723
37719SOL     OW15163   3.781   8.753   6.942
37719SOL    HW115164 -18.257  -2.371   6.928
37719SOL    HW215165  -7.242   8.773   7.034
37720SOL     OW15166   5.956   8.718   4.894
37720SOL    HW115167   5.968   8.720   4.799
37720SOL    HW215168   5.874   8.671   4.907
37721SOL     OW15169   5.337   0.841   2.968
37721SOL    HW115170   5.394   0.872   3.038
37721SOL    HW215171   5.248 -10.189  -8.037
37722SOL     OW15172   3.630   7.823   8.309
37722SOL    HW115173 -18.369   7.785   8.273
37722SOL    HW215174   3.563   7.755   8.297
37723SOL     OW15175   7.794   4.279   9.163
37723SOL    HW115176  -3.237  -6.794   9.252
37723SOL    HW215177   7.859  15.271   9.112
37724SOL     OW15178   9.745  11.891  10.587
37724SOL    HW115179   9.735   0.847  -0.357
37724SOL    HW215180   9.818 -10.128  10.574
37725SOL     OW15181   4.732   4.086   8.442
37725SOL    HW115182   4.666   4.093   8.374
37725SOL    HW215183  15.733   4.132   8.517
37726SOL     OW15184   6.834   9.021   3.836
37726SOL    HW115185   6.853  19.978   3.791
37726SOL    HW215186   6.918   9.067   3.836
37727SOL     OW15187   6.065   9.402   3.776
37727SOL    HW115188   6.144   9.454  14.832
37727SOL    HW215189  -5.002   9.427   3.688
37728SOL     OW15190   6.835  10.739   8.039
37728SOL    HW115191   6.798  10.717   7.954
37728SOL    HW215192   6.787  10.685  19.141
37729SOL     OW15193   8.176   2.496   1.015
37729SOL    HW115194   8.218  13.566   0.935
37729SOL    HW215195   8.095   2.455   0.985
37730SOL     OW15196   3.087   7.039   1.862
37730SOL    HW115197  14.181   7.085   1.798
37730SOL    HW215198   3.041  -4.067  -9.230
37731SOL     OW15199   7.606   5.673   7.456
37731SOL    HW115200  40.812   5.635  18.487
37731SOL    HW215201  -3.493   5.599  -3.590
37732SOL     OW15202   3.407   3.835   2.981
37732SOL    HW115203  14.381  -7.158   3.034
37732SOL    HW215204   3.447   3.773   3.041
37733SOL     OW15205   0.242   6.606  12.738
37733SOL    HW115206   0.287  17.730   1.689
37733SOL    HW215207   0.299   6.555  -9.283
37734SOL     OW15208   7.319   9.023   7.712
37734SOL    HW115209   7.345  20.077  18.843
37734SOL    HW215210   7.394  20.017  29.752
37735SOL     OW15211   7.239   1.150   8.762
37735SOL    HW115212   7.281   1.135   8.678
37735SOL    HW215213   7.174  -9.959   8.769
37736SOL     OW15214  10.686   3.415   5.970
37736SOL    HW115215  10.627   3.489   5.953
37736SOL    HW215216  10.772   3.456   5.982
37737SOL     OW15217   1.947   4.767   4.240
37737SOL    HW115218   1.904   4.758   4.325
37737SOL    HW215219 -20.115  15.900   4.232
37738SOL     OW15220   0.420   4.440   5.152
37738SOL    HW115221   0.370 -17.559  -5.902
37738SOL    HW215222   0.509   4.462   5.124
37739SOL     OW15223   1.320  10.845   0.619
37739SOL    HW115224   1.392  -0.166   0.675
37739SOL    HW215225   1.304  10.920   0.562
37740SOL     OW15226  10.154   8.799   4.481
37740SOL    HW115227  -0.799 -35.368   4.519
37740SOL    HW215228  10.099   8.741  15.572
37741SOL     OW15229   3.134   2.281  10.421
37741SOL    HW115230   3.158   2.371  10.446
37741SOL    HW215231   3.200  -8.813  10.463
37742SOL     OW15232   6.671   8.371   2.595
37742SOL    HW115233   6.760   8.391   2.567
37742SOL    HW215234   6.679  41.463   2.687
37743SOL     OW15235   6.222   5.060   9.684
37743SOL    HW115236  28.376  16.092   9.743
37743SOL    HW215237   6.161   5.118 -12.350
37744SOL     OW15238   9.797   3.566   5.658
37744SOL    HW115239   9.889   3.593  -5.384
37744SOL    HW215240   9.761   3.608  27.815
37745SOL     OW15241   8.705   2.973   4.818
37745SOL    HW115242  19.775   3.052   4.862
37745SOL    HW215243   8.654 -30.192   4.885
37746SOL     OW15244   3.030   4.150   5.223
37746SOL    HW115245  14.015   4.228 -16.869
37746SOL    HW215246   3.029   4.136 -38.840
37747SOL     OW15247   7.453   5.206   8.456
37747SOL    HW115248   7.440   5.279  -2.524
37747SOL    HW215249   7.396   5.224   8.381
37748SOL     OW15250   7.225   7.139  10.765
37748SOL    HW115251   7.129  -3.892  10.766
37748SOL    HW215252   7.254   7.184  10.845
37749SOL     OW15253   3.603   9.490   8.173
37749SOL    HW115254   3.677  -1.599   8.140
37749SOL    HW215255   3.641   9.555   8.232
37750SOL     OW15256   7.377   8.326   2.779
37750SOL    HW115257   7.294 -24.839   2.767
37750SOL    HW215258  40.503  -2.702   2.874
37751SOL     OW15259   0.627   8.145   6.481
37751SOL    HW115260   0.708  -2.945   6.476
37751SOL    HW215261   0.562   8.090   6.438
37752SOL     OW15262   1.249   7.470   4.725
37752SOL    HW115263  -9.828 -47.640   4.712
37752SOL    HW215264   1.220   7.420   4.650
37753SOL     OW15265  10.755   5.791   5.263
37753SOL    HW115266  10.845   5.792   5.295
37753SOL    HW215267  10.763   5.775  16.209
37754SOL     OW15268   9.667   1.508   1.677
37754SOL    HW115269   9.642   1.448   1.748
37754SOL    HW215270 -23.527   1.507   1.618
37755SOL     OW15271   8.544  10.941  10.678
37755SOL    HW115272 -35.550  10.907  10.616
37755SOL    HW215273   8.538  10.874  10.746
37756SOL     OW15274   1.613  -0.305   7.984
37756SOL    HW115275   1.686  -0.258   7.944
37756SOL    HW215276   1.627  10.745   8.079
37757SOL     OW15277   6.716  10.474   2.882
37757SOL    HW115278   6.643  10.533   2.865
37757SOL    HW215279  17.745  -0.590   2.974
37758SOL     OW15280  12.407   9.404   6.062
37758SOL    HW115281  12.403   9.478   6.002
37758SOL    HW215282 -31.658   9.392  17.120
37759SOL     OW15283   3.929   8.125   4.477
37759SOL    HW115284   3.989 -25.047   4.529
37759SOL    HW215285   3.962   8.215   4.487
37760SOL     OW15286   2.892   5.913  11.384
37760SOL    HW115287   2.813   5.968  11.379
37760SOL    HW215288   2.914   5.894   0.253
37761SOL     OW15289   7.621   4.680   1.567
37761SOL    HW115290   7.560   4.667  12.679
37761SOL    HW215291  -3.446   4.762   1.526
37762SOL     OW15292   9.073   9.655   3.201
37762SOL    HW115293  20.150  -1.467   3.234
37762SOL    HW215294   9.060   9.640 -41.050
37763SOL     OW15295   4.445   0.639   1.688
37763SOL    HW115296 -17.564 -10.457  34.842
37763SOL    HW215297   4.490   0.719  -9.378
37764SOL     OW15298   2.746  10.024  11.482
37764SOL    HW115299  35.862 -23.173 -21.691
37764SOL    HW215300   2.654  10.048  11.494
37765SOL     OW15301  -0.200   1.584   4.469
37765SOL    HW115302  21.829   1.653   4.511
37765SOL    HW215303 -11.158  12.667   4.443
37766SOL     OW15304  11.261   3.926   5.342
37766SOL    HW115305 -10.733   3.883   5.355
37766SOL    HW215306  11.281   4.020   5.345
37767SOL     OW15307   5.037   5.207  11.157
37767SOL    HW115308   5.079   5.225  11.241
37767SOL    HW215309   5.005   5.117   0.125
37768SOL     OW15310   2.063   5.856   4.174
37768SOL    HW115311   2.016  -5.102  -6.850
37768SOL    HW215312  13.081   5.801   4.249
37769SOL     OW15313   0.684   6.048   8.963
37769SOL    HW115314   0.775  -4.991  -2.046
37769SOL    HW215315   0.638   5.994   9.026
37770SOL     OW15316   0.276   8.548   9.521
37770SOL    HW115317   0.305   8.639  -1.506
37770SOL    HW215318   0.209   8.535   9.588
37771SOL     OW15319   5.380   2.533   6.931
37771SOL    HW115320   5.384   2.535   6.836
37771SOL    HW215321   5.471   2.540   6.959
37772SOL     OW15322   6.055   0.774   7.702
37772SOL    HW115323  17.144   0.852  18.715
37772SOL    HW215324 -15.982  11.785   7.783
37773SOL     OW15325   5.129   2.111  10.066
37773SOL    HW115326   5.108   2.025  10.101
37773SOL    HW215327   5.160   2.094  21.016
37774SOL     OW15328   9.435   8.213   6.044
37774SOL    HW115329   9.411   8.183  16.996
37774SOL    HW215330   9.354   8.250   6.080
37775SOL     OW15331   2.312   5.232   8.629
37775SOL    HW115332   2.235  16.214   8.632
37775SOL    HW215333 -19.719   5.204   8.551
37776SOL     OW15334   3.541  10.653   6.519
37776SOL    HW115335   3.513  10.742   6.495
37776SOL    HW215336   3.459 -11.472  28.618
37777SOL     OW15337   2.577  11.473   8.070
37777SOL    HW115338   2.524  11.445  -3.044
37777SOL    HW215339  24.595   0.479  19.167
37778SOL     OW15340   3.862   7.501   6.720
37778SOL    HW115341   3.914   7.464  17.831
37778SOL    HW215342   3.771   7.492   6.749
37779SOL     OW15343   2.332  10.816   0.898
37779SOL    HW115344  24.478  -0.261  11.995
37779SOL    HW215345   2.377  10.829   0.814
37780SOL     OW15346   1.447   6.733  -0.496
37780SOL    HW115347   1.434   6.664  10.479
37780SOL    HW215348   1.542 -37.411  -0.494
37781SOL     OW15349   0.445   7.703   6.925
37781SOL    HW115350  11.465   7.796 -15.166
37781SOL    HW215351 -10.651   7.675   6.997
37782SOL     OW15352  11.328   6.772  10.438
37782SOL    HW115353 -21.810   6.748  10.529
37782SOL    HW215354 -21.721   6.837  10.445
37783SOL     OW15355   5.403   8.784   2.190
37783SOL    HW115356   5.390   8.826   2.105
37783SOL    HW215357  16.499  19.748   2.172
37784SOL     OW15358   6.621   5.691   2.343
37784SOL    HW115359   6.541  27.752   2.391
37784SOL    HW215360 -15.440   5.610  -8.745
37785SOL     OW15361  12.389   4.016   4.493
37785SOL    HW115362   1.328  -6.935   4.463
37785SOL    HW215363  -9.598   4.022   4.520
37786SOL     OW15364   5.138  11.688   9.718
37786SOL    HW115365   5.138  11.614   9.779
37786SOL    HW215366  16.223 -21.463 -23.478
37787SOL     OW15367  10.239   2.229   4.848
37787SOL    HW115368  10.241 -30.929   4.761
37787SOL    HW215369  10.254   2.157  15.948
37788SOL     OW15370   0.961   9.446  12.158
37788SOL    HW115371   1.023  20.495  12.230
37788SOL    HW215372   0.935   9.535  -9.943
37789SOL     OW15373   7.636   1.881   1.008
37789SOL    HW115374   7.597   1.967   1.027
37789SOL    HW215375   7.719   1.881  12.096
37790SOL     OW15376   9.108   3.226   0.201
37790SOL    HW115377  20.138  25.393   0.237
37790SOL    HW215378 -24.100  14.237   0.184
37791SOL     OW15379   7.789   9.220   6.269
37791SOL    HW115380   7.719   9.173   6.315
37791SOL    HW215381   7.822  20.195   6.206
37792SOL     OW15382  10.478  11.878  -0.721
37792SOL    HW115383  10.556   0.784  10.311
37792SOL    HW215384  10.448   0.849  21.267
37793SOL     OW15385   8.607   8.237   3.809
37793SOL    HW115386 -13.564  19.285  14.873
37793SOL    HW215387  -2.417   8.142   3.808
37794SOL     OW15388   4.914   3.615   2.407
37794SOL    HW115389   4.991 -18.465   2.463
37794SOL    HW215390   4.947   3.644   2.322
37795SOL     OW15391   3.227   2.876   7.197
37795SOL    HW115392   3.236  -8.197   7.107
37795SOL    HW215393   3.292   2.945  18.243
37796SOL     OW15394   3.439   4.048  10.730
37796SOL    HW115395  -7.513   4.070  10.761
37796SOL    HW215396   3.453   4.013  10.642
37797SOL     OW15397   9.857   2.595   4.300
37797SOL    HW115398   9.878   2.573   4.391
37797SOL    HW215399   9.762   2.602   4.298
37798SOL     OW15400   6.509   5.016   9.848
37798SOL    HW115401   6.586   4.962   9.864
37798SOL    HW215402   6.542  -5.946  20.844
37799SOL     OW15403   5.228   3.594   2.002
37799SOL    HW115404  -5.797  58.697  -9.046
37799SOL    HW215405   5.314  36.752   1.990
37800SOL     OW15406   8.572   7.928   9.481
37800SOL    HW115407  -2.455   7.985   9.556
37800SOL    HW215408 -13.595  18.988   9.450
37801SOL     OW15409   4.530   9.195   1.814
37801SOL    HW115410   4.600   9.216   1.753
37801SOL    HW215411   4.451   9.231   1.774
37802SOL     OW15412   0.358   3.325   4.396
37802SOL    HW115413   0.414   3.393   4.358
37802SOL    HW215414   0.297  14.342  26.404
37803SOL     OW15415   3.009   2.656   5.510
37803SOL    HW115416  25.142   2.642   5.588
37803SOL    HW215417   2.928   2.694  16.583
37804SOL     OW15418   9.248   5.938   9.403
37804SOL    HW115419   9.242   5.893  -1.720
37804SOL    HW215420   9.294 -16.202   9.460
37805SOL     OW15421   4.754   9.558  10.906
37805SOL    HW115422  37.925   9.530  10.831
37805SOL    HW215423  26.744   9.565  10.872
37806SOL     OW15424   5.072   0.091   3.604
37806SOL    HW115425  -5.912   0.053   3.536
37806SOL    HW215426   5.119   0.075  14.725
37807SOL     OW15427  10.736   9.815   1.111
37807SOL    HW115428  10.742 -12.356  -9.903
37807SOL    HW215429  -0.397   9.830   1.097
37808SOL     OW15430   7.747   4.958   2.470
37808SOL    HW115431   7.840   4.977  -8.583
37808SOL    HW215432   7.726   4.999   2.554
37809SOL     OW15433   7.332   4.037   9.611
37809SOL    HW115434   7.421  -6.967   9.602
37809SOL    HW215435   7.343   3.961  20.707
37810SOL     OW15436  -2.629   1.496   5.834
37810SOL    HW115437  30.411   1.519   5.885
37810SOL    HW215438  19.522   1.509   5.896
37811SOL     OW15439   9.034   8.333   3.923
37811SOL    HW115440 -24.114   8.242  26.000
37811SOL    HW215441   9.012   8.367  14.876
37812SOL     OW15442   0.704   2.247  10.538
37812SOL    HW115443   0.758  -8.792  -0.580
37812SOL    HW215444   0.756   2.294  -0.436
37813SOL     OW15445   6.287  10.744   3.710
37813SOL    HW115446   6.193  10.746   3.728
37813SOL    HW215447   6.295  10.792   3.627
37814SOL     OW15448   9.482   0.949  10.543
37814SOL    HW115449   9.562  11.936  10.533
37814SOL    HW215450  -1.548   0.990  -0.410
37815SOL     OW15451  10.699   9.537   4.079
37815SOL    HW115452  10.699   9.632  15.102
37815SOL    HW215453  10.654  31.579  15.043
37816SOL     OW15454   5.858   2.012   7.420
37816SOL    HW115455   5.948   2.030   7.447
37816SOL    HW215456   5.829   1.941   7.477
37817SOL     OW15457   6.760   6.752  10.174
37817SOL    HW115458  -4.278   6.844  10.149
37817SOL    HW215459  17.741   6.748  10.249
37818SOL     OW15460   8.677   3.030   7.708
37818SOL    HW115461  -2.354  14.044   7.800
37818SOL    HW215462   8.767  -8.000   7.677
37819SOL     OW15463   3.198   3.701   5.917
37819SOL    HW115464   3.291   3.705   5.940
37819SOL    HW215465 -18.915 -18.291   5.937
37820SOL     OW15466  -0.561   4.876   9.945
37820SOL    HW115467  -0.543   4.970   9.947
37820SOL    HW215468  10.555   4.836   9.986
37821SOL     OW15469   4.228   3.373   1.356
37821SOL    HW115470   4.270 -29.709   1.434
37821SOL    HW215471  15.181  -7.695   1.387
37822SOL     OW15472   0.540   9.331   6.346
37822SOL    HW115473   0.467   9.288   6.390
37822SOL    HW215474   0.500   9.401   6.296
37823SOL     OW15475   9.828  -1.140   8.641
37823SOL    HW115476  -1.133  20.923   8.589
37823SOL    HW215477   9.757  -1.139  19.616
37824SOL     OW15478   8.201   5.589   8.553
37824SOL    HW115479   8.135   5.519   8.558
37824SOL    HW215480   8.151   5.670   8.560
37825SOL     OW15481   6.456   7.113   2.578
37825SOL    HW115482  -4.645  18.153   2.505
37825SOL    HW215483   6.541   7.095   2.537
37826SOL     OW15484  11.358   4.534   6.820
37826SOL    HW115485   0.329 -28.497   6.857
37826SOL    HW215486   0.384   4.481 -15.213
37827SOL     OW15487   0.021   6.716   5.990
37827SOL    HW115488   0.076  -4.246   5.982
37827SOL    HW215489  11.006   6.732   6.066
37828SOL     OW15490   5.075   3.805   7.969
37828SOL    HW115491   4.983   3.829  41.103
37828SOL    HW215492   5.072  -7.328   7.949
37829SOL     OW15493   4.603  10.685  -1.681
37829SOL    HW115494   4.648  -0.302  -1.748
37829SOL    HW215495   4.606  21.635  42.445
37830SOL     OW15496   7.421   9.254   5.555
37830SOL    HW115497   7.387   9.252   5.645
37830SOL    HW215498   7.384   9.177   5.513
37831SOL     OW15499   5.987   4.701   0.958
37831SOL    HW115500   6.016 -17.346  12.084
37831SOL    HW215501   5.933  -6.415   0.978
37832SOL     OW15502   8.978   9.754   5.398
37832SOL    HW115503  -2.001   9.783   5.331
37832SOL    HW215504   8.974   9.827   5.460
37833SOL     OW15505   6.246   8.200   0.751
37833SOL    HW115506   6.189  19.166   0.728
37833SOL    HW215507   6.289   8.173 -10.208
37834SOL     OW15508  10.664   5.831   8.960
37834SOL    HW115509  10.732  16.833  -2.135
37834SOL    HW215510  10.709   5.894  20.055
37835SOL     OW15511  10.449  10.574   9.550
37835SOL    HW115512  10.392  10.608  20.520
37835SOL    HW215513  10.445  10.479  20.580
37836SOL     OW15514   7.720   4.566  10.578
37836SOL    HW115515   7.668   4.517  10.514
37836SOL    HW215516   7.767   4.499  10.628
37837SOL     OW15517   9.357   3.773  -1.258
37837SOL    HW115518   9.315   3.696  31.901
37837SOL    HW215519   9.446   3.772  -1.225
37838SOL     OW15520   7.340   4.857   0.616
37838SOL    HW115521  29.355   4.852   0.545
37838SOL    HW215522   7.306  15.965   0.674
37839SOL     OW15523   6.542   3.314  10.857
37839SOL    HW115524   6.629  14.326  10.886
37839SOL    HW215525   6.548   3.409  10.850
37840SOL     OW15526   7.502   0.646   0.400
37840SOL    HW115527 -14.507   0.664   0.337
37840SOL    HW215528   7.545 -10.444   0.469
37841SOL     OW15529   9.655   1.458   6.831
37841SOL    HW115530   9.648   1.550 -15.272
37841SOL    HW215531   9.730   1.454  -4.149
37842SOL     OW15532   3.882   3.165   5.118
37842SOL    HW115533   3.976   3.174  -5.905
37842SOL    HW215534  14.888   3.255 -16.954
37843SOL     OW15535   0.077   8.188   4.605
37843SOL    HW115536  11.094   8.215   4.516
37843SOL    HW215537   0.107  -2.942   4.595
37844SOL     OW15538   9.149   6.105   4.828
37844SOL    HW115539  -1.868   6.154   4.907
37844SOL    HW215540   9.059   6.076  26.922
37845SOL     OW15541   6.701   4.246   8.648
37845SOL    HW115542 -15.443  26.364  -2.333
37845SOL    HW215543  -4.314  15.204   8.691
37846SOL     OW15544   9.373   3.047  10.001
37846SOL    HW115545   9.329   2.970  10.038
37846SOL    HW215546   9.455   3.012   9.964
37847SOL     OW15547  11.337   5.230   3.770
37847SOL    HW115548  11.414   5.246  -7.215
37847SOL    HW215549   0.301   5.298   3.703
37848SOL     OW15550   8.378   2.391   5.821
37848SOL    HW115551   8.421   2.427  -5.141
37848SOL    HW215552   8.296  -8.685   5.854
37849SOL     OW15553   8.146  11.511   7.785
37849SOL    HW115554   8.237   0.454  18.800
37849SOL    HW215555  19.187  11.523   7.880
37850SOL     OW15556   5.365  -0.360   7.658
37850SOL    HW115557   5.363  -0.330   7.567
37850SOL    HW215558   5.313  10.599  29.737
37851SOL     OW15559   1.070   7.781   5.666
37851SOL    HW115560   1.075   7.724  16.782
37851SOL    HW215561   1.138  -3.193  16.721
37852SOL     OW15562   4.068   0.415   1.368
37852SOL    HW115563   4.117   0.454   1.441
37852SOL    HW215564 -17.946   0.400   1.301
37853SOL     OW15565   7.070   0.469   3.184
37853SOL    HW115566 -15.044   0.490   3.271
37853SOL    HW215567   7.165   0.484  -7.847
37854SOL     OW15568  -0.207   3.174   1.647
37854SOL    HW115569  -0.177   3.248  -9.339
37854SOL    HW215570  21.868   3.209   1.558
37855SOL     OW15571   6.723   8.646   3.289
37855SOL    HW115572   6.811 -13.455   3.318
37855SOL    HW215573  17.706   8.614  25.438
37856SOL     OW15574   3.586   6.038   2.694
37856SOL    HW115575   3.658   6.095  -8.374
37856SOL    HW215576   3.574   5.978  -8.419
37857SOL     OW15577   1.390   7.362   9.237
37857SOL    HW115578   1.304   7.321  31.306
37857SOL    HW215579   1.452 -36.869   9.237
37858SOL     OW15580   6.480   9.859   1.848
37858SOL    HW115581   6.451   9.833  12.975
37858SOL    HW215582   6.444  -1.093  12.874
37859SOL     OW15583   3.056   0.029  12.845
37859SOL    HW115584   3.121  -0.010 -20.216
37859SOL    HW215585   3.034   0.112  12.887
37860SOL     OW15586   4.991   5.482   1.382
37860SOL    HW115587  -6.127   5.488   1.437
37860SOL    HW215588  -5.984   5.536   1.427
37861SOL     OW15589   1.581   4.497  10.951
37861SOL    HW115590   1.651   4.455  11.002
37861SOL    HW215591   1.611   4.490  -0.179
37862SOL     OW15592   0.885   7.819   2.339
37862SOL    HW115593   0.905   7.855   2.425
37862SOL    HW215594   0.792  18.837   2.343
37863SOL     OW15595  10.331  10.900  10.045
37863SOL    HW115596  10.301  10.904   9.954
37863SOL    HW215597  10.407  10.958  10.048
37864SOL     OW15598   7.493  10.104   4.230
37864SOL    HW115599  29.521  10.133   4.155
37864SOL    HW215600  29.648  10.162   4.230
37865SOL     OW15601   9.689  10.712   9.227
37865SOL    HW115602   9.600  10.710   9.262
37865SOL    HW215603   9.735  10.642   9.274
37866SOL     OW15604   8.889  10.985   7.589
37866SOL    HW115605  30.904  11.049  18.597
37866SOL    HW215606   8.838  10.925   7.644
37867SOL     OW15607   4.448   2.516   2.883
37867SOL    HW115608   4.422   2.606 -19.176
37867SOL    HW215609   4.365   2.468   2.881
37868SOL     OW15610  10.293   9.270   7.862
37868SOL    HW115611  21.405   9.333   7.869
37868SOL    HW215612  10.309   9.208  41.052
37869SOL     OW15613   6.189   8.429  12.345
37869SOL    HW115614   6.146  19.479  12.430
37869SOL    HW215615   6.270   8.480 -20.766
37870SOL     OW15616   9.164   3.324  -0.243
37870SOL    HW115617   9.236  36.385  21.862
37870SOL    HW215618 -12.931   3.303  -0.335
37871SOL     OW15619   9.845   5.358   9.824
37871SOL    HW115620   9.917   5.365   9.886
37871SOL    HW215621   9.888  -5.689  -1.301
37872SOL     OW15622   4.120  10.705   4.656
37872SOL    HW115623   4.111  10.760   4.733
37872SOL    HW215624  15.091  10.639 -28.454
37873SOL     OW15625   0.628   3.440   9.989
37873SOL    HW115626   0.577   3.382   9.933
37873SOL    HW215627   0.676   3.496   9.928
37874SOL     OW15628   6.947   5.211   6.681
37874SOL    HW115629   7.016  16.233   6.744
37874SOL    HW215630   6.915   5.298   6.703
37875SOL     OW15631  -2.570   7.333  11.757
37875SOL    HW115632  19.479   7.396  11.822
37875SOL    HW215633  30.544   7.248 -10.277
37876SOL     OW15634   3.574  11.476  10.057
37876SOL    HW115635   3.643   0.371  10.070
37876SOL    HW215636   3.494 -10.646 -23.031
37877SOL     OW15637  10.050   0.594  10.274
37877SOL    HW115638  10.146   0.598  21.311
37877SOL    HW215639  10.021   0.656  10.207
37878SOL     OW15640   7.785   6.798   6.392
37878SOL    HW115641  18.878   6.876   6.376
37878SOL    HW215642   7.842   6.740 -15.635
37879SOL     OW15643   1.385   1.859   6.846
37879SOL    HW115644   1.398  23.845   6.828
37879SOL    HW215645  23.399   1.861   6.916
37880SOL     OW15646   2.113   6.067  11.234
37880SOL    HW115647   2.185   6.105 -10.795
37880SOL    HW215648  -8.960  17.036  11.289
37881SOL     OW15649   4.130   0.728   4.001
37881SOL    HW115650  15.144   0.655   4.057
37881SOL    HW215651   4.061 -10.246  15.053
37882SOL     OW15652   4.328   1.543   2.651
37882SOL    HW115653   4.350   1.564   2.561
37882SOL    HW215654  15.294   1.600   2.672
37883SOL     OW15655   4.110   6.098   1.856
37883SOL    HW115656   4.189   6.072  -9.232
37883SOL    HW215657  15.171   6.079   1.947
37884SOL     OW15658   5.488   8.506   8.101
37884SOL    HW115659  16.609   8.556   8.094
37884SOL    HW215660   5.424   8.569  -2.905
37885SOL     OW15661   0.868  10.498   5.384
37885SOL    HW115662   0.798  -0.594   5.345
37885SOL    HW215663  11.970  -0.606  -5.623
37886SOL     OW15664  10.179   5.960   2.186
37886SOL    HW115665  -0.935   5.899 -19.894
37886SOL    HW215666  10.233   5.931   2.112
37887SOL     OW15667   9.863   5.890   4.651
37887SOL    HW115668  -1.171   5.974   4.696
37887SOL    HW215669   9.770  16.905   4.658
37888SOL     OW15670   3.531   7.351   4.279
37888SOL    HW115671   3.467   7.293   4.239
37888SOL    HW215672   3.575  -3.645  -6.834
37889SOL     OW15673   7.143   1.293   3.880
37889SOL    HW115674   7.116  23.411   3.963
37889SOL    HW215675   7.187  12.404   3.834
37890SOL     OW15676   5.214   8.595   1.849
37890SOL    HW115677   5.161  -2.393   1.788
37890SOL    HW215678  27.231   8.566   1.916
37891SOL     OW15679   8.835   2.757  10.367
37891SOL    HW115680   8.874   2.735  10.283
37891SOL    HW215681   8.907  13.787  10.430
37892SOL     OW15682   5.092   3.836   2.649
37892SOL    HW115683   5.078  14.781  24.723
37892SOL    HW215684   5.036  14.904   2.722
37893SOL     OW15685  -0.572   7.469   2.736
37893SOL    HW115686  -0.501  -3.511  13.799
37893SOL    HW215687  10.500   7.383  13.801
37894SOL     OW15688   9.439   4.919  12.251
37894SOL    HW115689   9.464   4.827  12.257
37894SOL    HW215690   9.444   4.951  -9.738
37895SOL     OW15691   9.307   2.214   8.540
37895SOL    HW115692   9.307   2.125   8.506
37895SOL    HW215693  20.285   2.262   8.485
37896SOL     OW15694   2.818  11.494   6.067
37896SOL    HW115695   2.727   0.444   6.094
37896SOL    HW215696  13.875   0.380   6.010
37897SOL     OW15697   4.085   7.700   2.630
37897SOL    HW115698   4.179   7.706   2.647
37897SOL    HW215699  -6.973   7.606   2.628
37898SOL     OW15700   6.286   9.335   4.287
37898SOL    HW115701  -4.765   9.250  15.285
37898SOL    HW215702   6.283   9.317   4.381
37899SOL     OW15703   8.619   7.148   4.512
37899SOL    HW115704 -24.433  18.122  15.571
37899SOL    HW215705   8.596  29.263   4.598
37900SOL     OW15706   1.224   9.112   0.946
37900SOL    HW115707   1.290   9.172  11.951
37900SOL    HW215708   1.201  31.135   0.872
37901SOL     OW15709   5.575  11.816   5.084
37901SOL    HW115710   5.545   0.865   5.061
37901SOL    HW215711   5.496   0.732  38.233
37902SOL     OW15712   0.436   4.975   6.773
37902SOL    HW115713   0.519   4.935   6.798
37902SOL    HW215714  22.522   4.987   6.678
37903SOL     OW15715   2.048   0.449   6.785
37903SOL    HW115716   1.953   0.455   6.794
37903SOL    HW215717   2.063   0.359  17.796
37904SOL     OW15718   7.626  10.991   0.685
37904SOL    HW115719   7.646  10.900   0.706
37904SOL    HW215720   7.552  11.013  11.781
37905SOL     OW15721   5.014   4.291   4.953
37905SOL    HW115722  16.096  -6.814   5.008
37905SOL    HW215723   5.025   4.257   4.864
37906SOL     OW15724   3.920   5.324   4.821
37906SOL    HW115725   3.917   5.247   4.764
37906SOL    HW215726   3.899  16.437   4.764
37907SOL     OW15727   3.067   9.802   9.924
37907SOL    HW115728  14.055   9.871   9.965
37907SOL    HW215729   3.052   9.725 -12.100
37908SOL     OW15730   9.583   8.563   8.946
37908SOL    HW115731   9.549  19.551   9.019
37908SOL    HW215732   9.575  30.733   8.976
37909SOL     OW15733  11.556   0.428   8.445
37909SOL    HW115734  11.503   0.352   8.422
37909SOL    HW215735 -10.569   0.466   8.521
37910SOL     OW15736   3.778   2.939   8.273
37910SOL    HW115737   3.809   2.989   8.349
37910SOL    HW215738   3.697  -8.057  -2.792
37911SOL     OW15739   5.113   8.628   6.313
37911SOL    HW115740   5.124   8.542 -37.886
37911SOL    HW215741 -16.880   8.670   6.303
37912SOL     OW15742  10.372   5.565   3.913
37912SOL    HW115743  10.287  16.562  14.963
37912SOL    HW215744  10.426   5.501  14.907
37913SOL     OW15745  -0.493   3.003   1.121
37913SOL    HW115746  21.513   3.007   1.182
37913SOL    HW215747  -0.447   2.922   1.144
37914SOL     OW15748   7.274   1.383   2.747
37914SOL    HW115749  -3.815  -9.625   2.822
37914SOL    HW215750  -3.681  -9.683   2.783
37915SOL     OW15751   0.049   4.623   7.629
37915SOL    HW115752   0.005  15.741  29.676
37915SOL    HW215753   0.086  15.620   7.551
37916SOL     OW15754  -1.707   2.808   9.063
37916SOL    HW115755  31.375   2.771   8.982
37916SOL    HW215756  -1.657   2.737   9.102
37917SOL     OW15757   6.615   8.635  10.876
37917SOL    HW115758  17.681   8.708  10.819
37917SOL    HW215759   6.682   8.631 -11.136
37918SOL     OW15760   9.244   4.445   5.829
37918SOL    HW115761   9.238 -17.617   5.923
37918SOL    HW215762   9.153  15.486   5.799
37919SOL     OW15763   2.377   6.111   4.299
37919SOL    HW115764   2.375   6.125   4.204
37919SOL    HW215765  -8.596  17.084  15.351
37920SOL     OW15766   4.433  11.001   2.639
37920SOL    HW115767   4.511  -0.046   2.584
37920SOL    HW215768   4.368  11.042   2.582
37921SOL     OW15769   7.440   2.267   8.186
37921SOL    HW115770   7.350   2.247  19.252
37921SOL    HW215771   7.470 -19.747   8.250
37922SOL     OW15772  10.830   5.394   8.945
37922SOL    HW115773 -22.275  -5.556   8.914
37922SOL    HW215774  -0.164   5.339   8.881
37923SOL     OW15775   3.011   7.572   2.370
37923SOL    HW115776   3.003   7.638   2.302
37923SOL    HW215777   3.088  -3.441   2.420
37924SOL     OW15778   7.762   3.926   5.076
37924SOL    HW115779   7.735  25.917  27.182
37924SOL    HW215780  18.795   3.978  16.196
37925SOL     OW15781   9.716   7.118  10.197
37925SOL    HW115782   9.806   7.140  10.222
37925SOL    HW215783   9.663   7.159  10.266
37926SOL     OW15784   1.686   6.555   3.221
37926SOL    HW115785   1.640   6.615   3.162
37926SOL    HW215786  -9.314   6.490   3.163
37927SOL     OW15787   8.063   9.503   1.474
37927SOL    HW115788 -47.056  -1.576   1.511
37927SOL    HW215789   8.009   9.525   1.550
37928SOL     OW15790   4.696   2.981   7.949
37928SOL    HW115791   4.709   2.892   7.983
37928SOL    HW215792  -6.324   2.975   7.856
37929SOL     OW15793   5.974  10.976   6.002
37929SOL    HW115794   5.904  -0.096   6.058
37929SOL    HW215795  -5.077 -11.150   5.919
37930SOL     OW15796   1.796   4.395   3.723
37930SOL    HW115797   1.875  -6.681   3.684
37930SOL    HW215798   1.787   4.481   3.683
37931SOL     OW15799   5.955   6.815   5.835
37931SOL    HW115800  -5.156  17.899   5.791
37931SOL    HW215801   6.011   6.783  27.843
37932SOL     OW15802   9.355   0.741   8.876
37932SOL    HW115803 -23.710   0.690   8.936
37932SOL    HW215804   9.418 -10.249   8.823
37933SOL     OW15805   6.567   8.850   8.495
37933SOL    HW115806   6.641  19.830   8.485
37933SOL    HW215807   6.600   8.921   8.550
37934SOL     OW15808   4.560   4.330   8.413
37934SOL    HW115809   4.501   4.299   8.344
37934SOL    HW215810   4.641   4.352  19.406
37935SOL     OW15811   5.777   4.043   5.726
37935SOL    HW115812  16.837   4.075   5.814
37935SOL    HW215813  -5.213  26.041   5.719
37936SOL     OW15814  10.038   5.709   3.888
37936SOL    HW115815 -11.967  16.791   3.930
37936SOL    HW215816  10.065   5.699   3.796
37937SOL     OW15817  10.304   0.289   2.792
37937SOL    HW115818  10.390  22.410 -30.324
37937SOL    HW215819 -11.812   0.304  -8.161
37938SOL     OW15820   3.947   7.437   8.085
37938SOL    HW115821   3.868   7.417  -2.904
37938SOL    HW215822   3.977   7.352  19.092
37939SOL     OW15823   0.088   4.853   2.837
37939SOL    HW115824   0.166  15.858   2.880
37939SOL    HW215825   0.107   4.946   2.824
37940SOL     OW15826  10.185   4.405   0.757
37940SOL    HW115827  10.277   4.420   0.739
37940SOL    HW215828  10.140   4.479   0.716
37941SOL     OW15829   9.813   3.452   2.611
37941SOL    HW115830   9.865   3.473  13.574
37941SOL    HW215831   9.724   3.476  13.627
37942SOL     OW15832   5.284   4.775   6.057
37942SOL    HW115833   5.326   4.808   6.136
37942SOL    HW215834  -5.735   4.682   6.056
37943SOL     OW15835   0.194   7.307   2.789
37943SOL    HW115836 -10.875   7.215   2.791
37943SOL    HW215837  11.324   7.302   2.758
37944SOL     OW15838   4.747   9.876  10.348
37944SOL    HW115839  -6.224   9.858  10.284
37944SOL    HW215840  -6.363   9.916  10.297
37945SOL     OW15841   7.861   8.336   6.686
37945SOL    HW115842   7.771  -2.677  39.786
37945SOL    HW215843   7.904  19.377   6.601
37946SOL     OW15844   6.683  11.111   3.954
37946SOL    HW115845   6.632   0.139   3.910
37946SOL    HW215846   6.647 -22.011  -6.997
37947SOL     OW15847   5.821   6.184   5.374
37947SOL    HW115848  -5.201   6.231   5.293
37947SOL    HW215849   5.908   6.161  16.447
37948SOL     OW15850   4.992   2.673   4.703
37948SOL    HW115851  -6.041  24.787   4.614
37948SOL    HW215852   5.033   2.587  26.777
37949SOL     OW15853   5.237  -0.060   1.986
37949SOL    HW115854 -16.776  11.032   1.941
37949SOL    HW215855   5.179  -0.091   1.917
37950SOL     OW15856   1.903   5.137   6.894
37950SOL    HW115857   1.812   5.148   6.921
37950SOL    HW215858   1.946   5.219  -4.122
37951SOL     OW15859   0.808   7.497   4.582
37951SOL    HW115860   0.736   7.531   4.528
37951SOL    HW215861 -10.155   7.499  -6.515
37952SOL     OW15862   9.141   5.279   5.436
37952SOL    HW115863   9.152   5.278   5.531
37952SOL    HW215864   9.100   5.194   5.416
37953SOL     OW15865  10.227   9.142   3.192
37953SOL    HW115866  10.239  31.251  25.362
37953SOL    HW215867  10.224   9.223   3.140
37954SOL     OW15868  12.738   9.685   8.099
37954SOL    HW115869  -9.337   9.687   8.194
37954SOL    HW215870   1.629   9.748  19.116
37955SOL     OW15871  11.039   2.028   0.225
37955SOL    HW115872  10.980 -31.050  33.281
37955SOL    HW215873  11.019   2.070   0.308
37956SOL     OW15874   4.371   9.349   0.892
37956SOL    HW115875   4.433   9.378   0.825
37956SOL    HW215876  37.418   9.412   0.887
37957SOL     OW15877   7.589   3.485   0.574
37957SOL    HW115878   7.585   3.572   0.535
37957SOL    HW215879   7.507   3.476   0.622
37958SOL     OW15880   2.745   8.285   0.145
37958SOL    HW115881   2.730   8.365   0.095
37958SOL    HW215882  13.702   8.270   0.192
37959SOL     OW15883   1.354   1.851   1.351
37959SOL    HW115884   1.380   1.803  -9.609
37959SOL    HW215885   1.262  34.947   1.339
37960SOL     OW15886   8.699   5.079   6.793
37960SOL    HW115887   8.608   5.092  17.857
37960SOL    HW215888   8.730   5.010   6.852
37961SOL     OW15889   3.423   1.316   8.645
37961SOL    HW115890   3.481  -9.797   8.626
37961SOL    HW215891   3.335  -9.758  -2.408
37962SOL     OW15892   2.816   2.748   5.699
37962SOL    HW115893   2.806   2.765   5.792
37962SOL    HW215894   2.761  -8.368   5.683
37963SOL     OW15895   4.212   8.538   5.814
37963SOL    HW115896  -6.804   8.617   5.863
37963SOL    HW215897 -17.923   8.569   5.743
37964SOL     OW15898   6.617   3.544   6.418
37964SOL    HW115899  17.619   3.584   6.496
37964SOL    HW215900  -4.434   3.610   6.350
37965SOL     OW15901   3.375   4.758   7.293
37965SOL    HW115902  -7.626  -6.354   7.343
37965SOL    HW215903   3.380   4.729   7.202
37966SOL     OW15904   6.608   7.290   7.624
37966SOL    HW115905   6.560   7.333   7.553
37966SOL    HW215906  -4.406  18.245  51.745
37967SOL     OW15907   1.521   8.906   8.940
37967SOL    HW115908  12.543   8.885   8.848
37967SOL    HW215909   1.500   8.999   8.948
37968SOL     OW15910   7.508   5.417   4.196
37968SOL    HW115911  -3.562   5.340 -28.874
37968SOL    HW215912  -3.485 -16.610  -6.778
37969SOL     OW15913   6.864   8.504   6.682
37969SOL    HW115914  17.876   8.594   6.700
37969SOL    HW215915   6.831   8.486  17.634
37970SOL     OW15916   2.712   7.570   6.075
37970SOL    HW115917   2.707   7.593   5.982
37970SOL    HW215918  -8.418   7.570   6.105
37971SOL     OW15919   7.494   5.915   3.841
37971SOL    HW115920   7.579   5.873   3.854
37971SOL    HW215921   7.439 -38.279  -7.130
37972SOL     OW15922   9.866   9.283   7.711
37972SOL    HW115923   9.818  20.305   7.792
37972SOL    HW215924   9.800   9.277  18.682
37973SOL     OW15925   9.268   4.697   3.198
37973SOL    HW115926   9.359   4.671   3.212
37973SOL    HW215927   9.225  37.797  14.321
37974SOL     OW15928   1.590  -0.835   0.503
37974SOL    HW115929   1.682  -0.819  22.561
37974SOL    HW215930   1.577  32.190   0.487
37975SOL     OW15931   6.327   9.648   3.594
37975SOL    HW115932   6.269  42.770   3.669
37975SOL    HW215933   6.303  -1.473  -7.491
37976SOL     OW15934   3.470   6.298   8.711
37976SOL    HW115935   3.511   6.383   8.704
37976SOL    HW215936   3.511   6.245  -2.397
37977SOL     OW15937   2.374   9.765   9.671
37977SOL    HW115938   2.455   9.722  31.780
37977SOL    HW215939   2.360  -1.205   9.735
37978SOL     OW15940   2.620   2.562   9.237
37978SOL    HW115941  -8.475   2.633   9.268
37978SOL    HW215942   2.704   2.576   9.281
37979SOL     OW15943   1.149   0.517   8.883
37979SOL    HW115944  23.218   0.430   8.843
37979SOL    HW215945  23.274  11.540   8.965
37980SOL     OW15946   7.402   9.827   4.596
37980SOL    HW115947   7.356   9.910   4.607
37980SOL    HW215948 -25.657   9.822   4.670
37981SOL     OW15949   1.442   0.633   8.536
37981SOL    HW115950   1.453   0.639   8.631
37981SOL    HW215951  -9.656   0.706  -2.526
37982SOL     OW15952  -1.379   9.330   8.690
37982SOL    HW115953   9.678  20.277  30.787
37982SOL    HW215954  20.614  -1.694   8.729
37983SOL     OW15955   6.235   5.069   8.437
37983SOL    HW115956   6.279   5.104  30.439
37983SOL    HW215957  17.201  -5.911   8.452
37984SOL     OW15958   9.141   9.047   4.342
37984SOL    HW115959  -1.819   9.076   4.297
37984SOL    HW215960   9.098   9.128   4.368
37985SOL     OW15961  10.334   2.026   7.356
37985SOL    HW115962 -11.830   2.060   7.326
37985SOL    HW215963  10.398   2.089   7.324
37986SOL     OW15964   1.884   3.198   2.469
37986SOL    HW115965   1.833  25.256   2.547
37986SOL    HW215966   1.846   3.143   2.400
37987SOL     OW15967   6.310   8.590   2.796
37987SOL    HW115968   6.402   8.579   2.818
37987SOL    HW215969  17.348   8.664  13.775
37988SOL     OW15970   4.341   4.551   0.146
37988SOL    HW115971  26.510   4.576   0.170
37988SOL    HW215972   4.290   4.563  11.266
37989SOL     OW15973   1.969   2.212   7.309
37989SOL    HW115974   2.007  35.392   7.372
37989SOL    HW215975   1.945   2.135   7.361
37990SOL     OW15976   5.247   9.835   7.278
37990SOL    HW115977  -5.770   9.825   7.186
37990SOL    HW215978   5.153   9.815   7.282
37991SOL     OW15979   6.668   9.174   0.768
37991SOL    HW115980   6.641   9.163   0.859
37991SOL    HW215981   6.744   9.232   0.772
37992SOL     OW15982   4.997   4.128   3.871
37992SOL    HW115983   4.917  -6.878   3.830
37992SOL    HW215984 -28.075  15.246  -7.140
37993SOL     OW15985   0.835   2.619   0.679
37993SOL    HW115986   0.853   2.712 -10.348
37993SOL    HW215987   0.921  -8.460   0.660
37994SOL     OW15988  10.020  -1.205   3.051
37994SOL    HW115989  10.083  31.986   3.057
37994SOL    HW215990   9.980  -1.210   3.137
37995SOL     OW15991   8.606   7.348   5.636
37995SOL    HW115992  19.678  -3.671   5.724
37995SOL    HW215993   8.651   7.410   5.579
37996SOL     OW15994   5.330   5.747   2.108
37996SOL    HW115995   5.255   5.797  13.179
37996SOL    HW215996   5.374  -5.322  24.268
37997SOL     OW15997   8.424   5.280   8.823
37997SOL    HW115998   8.350   5.330   8.857
37997SOL    HW215999  30.526  -5.716   8.741
37998SOL     OW16000   1.006   2.176   7.841
37998SOL    HW116001  23.010  -8.805   7.853
37998SOL    HW216002 -21.030   2.208 -14.317
37999SOL     OW16003   2.679   2.394  10.899
37999SOL    HW116004  -8.400   2.463  -0.087
37999SOL    HW216005  13.805   2.428  -0.164
38000SOL     OW16006   6.875   5.928   8.262
38000SOL    HW116007 -15.241  16.984   8.175
38000SOL    HW216008   6.925   5.847   8.252
38001SOL     OW16009   0.876  10.218   9.465
38001SOL    HW116010 -10.203 -11.777   9.489
38001SOL    HW216011  11.940  10.179   9.549
38002SOL     OW16012   2.621   1.451   5.276
38002SOL    HW116013   2.651   1.365   5.245
38002SOL    HW216014  -8.492  -9.567   5.218
38003SOL     OW16015   0.209   8.163   1.855
38003SOL    HW116016   0.190   8.227   1.923
38003SOL    HW216017  11.272  -2.957  12.942
38004SOL     OW16018   1.037   7.055   8.744
38004SOL    HW116019   1.047   6.989  30.891
38004SOL    HW216020   1.043  18.046   8.661
38005SOL     OW16021   3.096   0.788   9.642
38005SOL    HW116022   3.037 -10.197   9.591
38005SOL    HW216023   3.038   0.737   9.699
38006SOL     OW16024   4.648   0.334   0.126
38006SOL    HW116025   4.570   0.389   0.135
38006SOL    HW216026   4.652   0.313  22.112
38007SOL     OW16027  10.592   4.387   9.482
38007SOL    HW116028  10.645  -6.586   9.439
38007SOL    HW216029  10.654  -6.722  31.584
38008SOL     OW16030   2.957   4.469   8.303
38008SOL    HW116031   2.900   4.419   8.244
38008SOL    HW216032  58.243   4.451   8.272
38009SOL     OW16033   5.246   2.892   6.748
38009SOL    HW116034  16.375   2.887  -4.258
38009SOL    HW216035  16.238   2.942   6.814
38010SOL     OW16036   0.629   2.686   2.704
38010SOL    HW116037   0.660 -30.344  -8.356
38010SOL    HW216038  22.625   2.700  24.829
38011SOL     OW16039   3.509   6.940   5.965
38011SOL    HW116040   3.441   6.947   6.033
38011SOL    HW216041   3.471   6.881   5.900
38012SOL     OW16042   5.881   8.872   1.700
38012SOL    HW116043  -5.078  -2.129   1.666
38012SOL    HW216044   5.819   8.945   1.705
38013SOL     OW16045   7.825   4.480   9.748
38013SOL    HW116046   7.865   4.403   9.708
38013SOL    HW216047   7.779  15.562   9.676
38014SOL     OW16048   7.060   6.086   0.573
38014SOL    HW116049   6.990  -5.017   0.587
38014SOL    HW216050   7.078   6.121   0.660
38015SOL     OW16051   3.418   1.048   2.796
38015SOL    HW116052  -7.618  12.031   2.874
38015SOL    HW216053  -7.530   1.070   2.778
38016SOL     OW16054   2.407   7.819   2.052
38016SOL    HW116055   2.430  18.770   2.024
38016SOL    HW216056   2.443  -3.212   2.140
38017SOL     OW16057   4.676   8.601   9.099
38017SOL    HW116058   4.581  -2.441   9.102
38017SOL    HW216059   4.700   8.676   9.153
38018SOL     OW16060   7.069   2.721   3.810
38018SOL    HW116061  -4.035 -19.300   3.771
38018SOL    HW216062   7.021   2.640   3.828
38019SOL     OW16063   8.730   7.879   6.441
38019SOL    HW116064  -2.345  -3.076   6.470
38019SOL    HW216065   8.712   7.820   6.514
38020SOL     OW16066   7.506   7.471   1.140
38020SOL    HW116067   7.599   7.490   1.137
38020SOL    HW216068   7.477   7.472  23.128
38021SOL     OW16069   9.109   4.143   0.272
38021SOL    HW116070   9.042  -6.852   0.323
38021SOL    HW216071   9.119  -6.843  11.233
38022SOL     OW16072  10.609   4.679   7.509
38022SOL    HW116073  10.557   4.709  -3.606
38022SOL    HW216074  10.640   4.760 -36.609
38023SOL     OW16075   2.092   4.591   3.502
38023SOL    HW116076   2.049 -17.557   3.552
38023SOL    HW216077   2.066   4.575  14.451
38024SOL     OW16078   3.546   2.052   8.714
38024SOL    HW116079  -7.427   2.003   8.665
38024SOL    HW216080   3.537   2.005   8.797
38025SOL     OW16081  10.891   1.285   8.592
38025SOL    HW116082 -11.129   1.324   8.656
38025SOL    HW216083  33.004   1.197  -2.461
38026SOL     OW16084   9.698   3.797   2.269
38026SOL    HW116085  31.732   3.819   2.188
38026SOL    HW216086   9.740  14.918  13.336
38027SOL     OW16087   2.702  10.865   4.530
38027SOL    HW116088  13.666  10.824   4.571
38027SOL    HW216089   2.739  10.921   4.599
38028SOL     OW16090  10.769   5.625   5.893
38028SOL    HW116091  -0.365  16.663   5.883
38028SOL    HW216092  10.803  16.616   5.818
38029SOL     OW16093   3.079   0.743  11.008
38029SOL    HW116094   3.053   0.793  11.086
38029SOL    HW216095   3.122   0.808  10.952
38030SOL     OW16096   8.770   8.584   6.762
38030SOL    HW116097   8.822   8.639  -4.219
38030SOL    HW216098   8.722  19.686  17.747
38031SOL     OW16099   7.624   1.530   6.181
38031SOL    HW116100   7.608   1.502   6.271
38031SOL    HW216101  18.749   1.494   6.160
38032SOL     OW16102   3.113   9.806   4.827
38032SOL    HW116103   3.200  20.856  26.945
38032SOL    HW216104   3.095   9.889   4.785
38033SOL     OW16105  11.025  10.050  11.442
38033SOL    HW116106  11.073   9.981 -10.593
38033SOL    HW216107  10.933  10.033  11.464
38034SOL     OW16108   1.386   6.930   5.260
38034SOL    HW116109   1.393   7.012   5.211
38034SOL    HW216110   1.344   6.870   5.198
38035SOL     OW16111   0.824   9.469   1.652
38035SOL    HW116112   0.740   9.443   1.688
38035SOL    HW216113 -10.156   9.397 -20.406
38036SOL     OW16114   3.378   1.947  11.294
38036SOL    HW116115   3.435   2.022   0.236
38036SOL    HW216116   3.414   1.875  11.243
38037SOL     OW16117  12.262   7.119   5.381
38037SOL    HW116118  -9.741   7.060  16.419
38037SOL    HW216119  12.186   7.060  16.415
38038SOL     OW16120   7.192  10.335   9.189
38038SOL    HW116121   7.232 -11.660  -1.829
38038SOL    HW216122  18.248  10.280   9.265
38039SOL     OW16123   7.631   8.743   8.748
38039SOL    HW116124  -3.427   8.686   8.674
38039SOL    HW216125   7.547   8.755   8.791
38040SOL     OW16126   1.405   8.633   4.363
38040SOL    HW116127  23.426   8.649  15.328
38040SOL    HW216128 -20.663   8.538   4.366
38041SOL     OW16129   4.932   2.350   1.762
38041SOL    HW116130 -28.101   2.319   1.791
38041SOL    HW216131   4.951   2.428   1.709
38042SOL     OW16132   7.592   3.171   5.765
38042SOL    HW116133   7.589   3.260   5.801
38042SOL    HW216134  -3.441   3.114   5.841
38043SOL     OW16135   6.320  10.484   1.759
38043SOL    HW116136  17.366  10.562   1.814
38043SOL    HW216137   6.402  10.437  23.853
38044SOL     OW16138   2.471   8.412   5.464
38044SOL    HW116139   2.449  30.433   5.391
38044SOL    HW216140 -19.513   8.408   5.471
38045SOL     OW16141   4.927   9.813   6.813
38045SOL    HW116142   4.868   9.766   6.755
38045SOL    HW216143   5.011   9.814   6.766
38046SOL     OW16144   8.335   7.279   8.075
38046SOL    HW116145   8.354  18.364  19.033
38046SOL    HW216146  -2.644  -3.835   8.075
38047SOL     OW16147   1.684   2.636   8.381
38047SOL    HW116148   1.602 -41.571   8.371
38047SOL    HW216149  -9.330   2.621   8.472
38048SOL     OW16150   6.680   3.538   5.766
38048SOL    HW116151   6.668   3.562   5.674
38048SOL    HW216152   6.593   3.511  -5.245
38049SOL     OW16153  10.959   8.785   4.782
38049SOL    HW116154  10.959   8.790   4.878
38049SOL    HW216155  11.024  19.889   4.755
38050SOL     OW16156   9.561   5.715   6.353
38050SOL    HW116157   9.620  -5.301  39.543
38050SOL    HW216158   9.592   5.629   6.323
38051SOL     OW16159  10.461   6.636   3.288
38051SOL    HW116160  10.454   6.551  14.283
38051SOL    HW216161  -0.658   6.682   3.264
38052SOL     OW16162   4.987   1.359   6.902
38052SOL    HW116163  16.114   1.396   6.918
38052SOL    HW216164   4.998  23.344   6.914
38053SOL     OW16165   1.008   9.844  -0.169
38053SOL    HW116166   1.013   9.783  -0.095
38053SOL    HW216167   1.042   9.926  32.985
38054SOL     OW16168   7.773   2.810   3.541
38054SOL    HW116169   7.685   2.782   3.568
38054SOL    HW216170  -3.281   2.893  36.614
38055SOL     OW16171   7.203  10.836   3.621
38055SOL    HW116172  -3.818  10.912   3.566
38055SOL    HW216173   7.133  -0.249  -7.465
38056SOL     OW16174   0.348   0.214   7.476
38056SOL    HW116175   0.434   0.240   7.443
38056SOL    HW216176   0.286  11.294   7.415
38057SOL     OW16177   9.146   2.200   6.423
38057SOL    HW116178   9.212   2.206   6.492
38057SOL    HW216179   9.073  24.232  -4.575
38058SOL     OW16180   8.133   4.567   1.988
38058SOL    HW116181 -13.915  15.526   2.030
38058SOL    HW216182   8.169   4.638   2.043
38059SOL     OW16183   4.324   3.885  11.369
38059SOL    HW116184   4.312   3.976 -10.681
38059SOL    HW216185   4.418   3.870   0.338
38060SOL     OW16186   7.773   3.692   9.656
38060SOL    HW116187   7.678   3.693   9.647
38060SOL    HW216188 -14.283   3.599  20.701
38061SOL     OW16189   8.087   1.500   8.300
38061SOL    HW116190   8.047   1.522   8.384
38061SOL    HW216191   8.162   1.558  19.332
38062SOL     OW16192   4.850   7.738   9.512
38062SOL    HW116193  -6.201   7.807  -1.462
38062SOL    HW216194   4.812   7.660   9.553
38063SOL     OW16195   9.018   5.823   3.918
38063SOL    HW116196   8.926   5.836   3.892
38063SOL    HW216197  42.147 -16.351   3.921
38064SOL     OW16198   7.748   4.025   0.509
38064SOL    HW116199  18.790   4.115   0.542
38064SOL    HW216200  40.958   3.996   0.513
38065SOL     OW16201   3.196   8.357   8.970
38065SOL    HW116202   3.281   8.332   8.934
38065SOL    HW216203 -18.866   8.440  -2.025
38066SOL     OW16204  10.693   9.585  10.527
38066SOL    HW116205  10.689   9.648  10.599
38066SOL    HW216206  10.685  20.679  10.448
38067SOL     OW16207   6.025   9.768   1.356
38067SOL    HW116208 -15.973   9.749   1.403
38067SOL    HW216209  -5.050   9.682  -9.705
38068SOL     OW16210   8.800  10.637  10.288
38068SOL    HW116211   8.868  10.589 -11.838
38068SOL    HW216212   8.805  10.603  -0.662
38069SOL     OW16213   5.100   3.178   8.602
38069SOL    HW116214   5.117  -7.803   8.529
38069SOL    HW216215   5.141  -7.944   8.576
38070SOL     OW16216   9.560   7.692   1.667
38070SOL    HW116217   9.491   7.639   1.625
38070SOL    HW216218   9.517  -3.309   1.744
38071SOL     OW16219   8.638   2.162   2.988
38071SOL    HW116220  -2.448   2.194   3.065
38071SOL    HW216221  30.673   2.081  14.005
38072SOL     OW16222   9.383   4.203   3.814
38072SOL    HW116223   9.407   4.111   3.811
38072SOL    HW216224   9.287 -17.877   3.819
38073SOL     OW16225   8.810   3.456   4.102
38073SOL    HW116226   8.874  14.550   4.057
38073SOL    HW216227   8.859  14.417  26.206
38074SOL     OW16228   2.969   2.654   4.660
38074SOL    HW116229   2.953 -19.390   4.748
38074SOL    HW216230   2.951   2.727   4.601
38075SOL     OW16231   8.509   4.994   0.224
38075SOL    HW116232   8.519  26.978   0.224
38075SOL    HW216233   8.489  -6.024   0.315
38076SOL     OW16234   3.462   3.022   8.367
38076SOL    HW116235  14.536   3.054   8.284
38076SOL    HW216236   3.477  -7.946  19.469
38077SOL     OW16237   6.165   5.883  10.410
38077SOL    HW116238   6.111  16.844  -0.642
38077SOL    HW216239  -4.836   5.872  -0.543
38078SOL     OW16240   6.535   2.264   6.584
38078SOL    HW116241  -4.511   2.169   6.593
38078SOL    HW216242  -4.515   2.297  -4.367
38079SOL     OW16243   4.826   5.782   9.385
38079SOL    HW116244   4.795   5.745   9.467
38079SOL    HW216245  -6.261   5.735   9.317
38080SOL     OW16246   1.049   8.463   6.926
38080SOL    HW116247   1.056   8.556  17.988
38080SOL    HW216248  23.039   8.452   6.893
38081SOL     OW16249   0.495   8.347   3.589
38081SOL    HW116250   0.562   8.291   3.627
38081SOL    HW216251   0.543   8.425  -7.480
38082SOL     OW16252   8.290  -0.189   0.548
38082SOL    HW116253   8.347  -0.120   0.581
38082SOL    HW216254   8.226  10.896   0.493
38083SOL     OW16255   9.796   7.247  -0.577
38083SOL    HW116256  -1.249   7.343  -0.574
38083SOL    HW216257   9.872   7.229  21.446
38084SOL     OW16258   8.837   6.385   7.632
38084SOL    HW116259   8.745   6.369  -3.385
38084SOL    HW216260   8.881  17.342   7.653
38085SOL     OW16261  10.984   1.986   5.956
38085SOL    HW116262  10.922   1.953   6.021
38085SOL    HW216263 -11.018   2.012  17.046
38086SOL     OW16264   4.653   5.454   3.421
38086SOL    HW116265  15.710  16.466  -7.709
38086SOL    HW216266   4.708  16.571   3.433
38087SOL     OW16267   2.226   8.575   0.662
38087SOL    HW116268  13.313  19.562   0.727
38087SOL    HW216269   2.267   8.552   0.578
38088SOL     OW16270  10.060   8.948   7.206
38088SOL    HW116271  10.035   8.882   7.270
38088SOL    HW216272  10.056   8.903   7.121
38089SOL     OW16273   3.382   8.574   2.900
38089SOL    HW116274   3.472  30.672   2.927
38089SOL    HW216275  14.431   8.515  -8.214
38090SOL     OW16276   8.341   0.116  10.250
38090SOL    HW116277   8.324   0.202  10.290
38090SOL    HW216278  -2.783   0.087  10.219
38091SOL     OW16279  -0.257   1.713   3.941
38091SOL    HW116280  10.858  -9.277   3.972
38091SOL    HW216281  10.708  23.852   3.951
38092SOL     OW16282   6.254   2.940   1.916
38092SOL    HW116283   6.294   2.886   1.848
38092SOL    HW216284   6.328   2.974   1.967
38093SOL     OW16285   2.662   9.482  -2.502
38093SOL    HW116286  24.659  -1.546  41.608
38093SOL    HW216287   2.662   9.390  19.603
38094SOL     OW16288   1.320   2.707   2.258
38094SOL    HW116289   1.380  -8.377   2.318
38094SOL    HW216290  45.511   2.796   2.253
38095SOL     OW16291   6.269   8.928   5.732
38095SOL    HW116292  -4.782   8.950   5.640
38095SOL    HW216293   6.312  41.961   5.731
38096SOL     OW16294   8.480  12.691   8.612
38096SOL    HW116295   8.416 -20.377  -2.377
38096SOL    HW216296   8.564  12.729  -2.403
38097SOL     OW16297   2.968  10.564   8.980
38097SOL    HW116298  25.033  -0.404  30.997
38097SOL    HW216299  36.006  10.512   8.976
38098SOL     OW16300   9.330   8.052   0.123
38098SOL    HW116301   9.271   8.128   0.116
38098SOL    HW216302   9.372   8.046   0.037
38099SOL     OW16303   3.715   6.700   6.756
38099SOL    HW116304   3.798   6.674   6.796
38099SOL    HW216305   3.713 -15.425   6.672
38100SOL     OW16306   6.126  10.934  11.301
38100SOL    HW116307   6.061  10.864  11.300
38100SOL    HW216308   6.210 -11.190 -10.773
38101SOL     OW16309   9.609   7.405   0.492
38101SOL    HW116310   9.652   7.488   0.511
38101SOL    HW216311   9.621   7.392   0.398
38102SOL     OW16312   1.842   3.075   8.357
38102SOL    HW116313   1.786   3.142  19.359
38102SOL    HW216314   1.907   3.124   8.408
38103SOL     OW16315   1.008   6.626   8.965
38103SOL    HW116316   1.072  -4.411   9.037
38103SOL    HW216317   1.019   6.539   8.927
38104SOL     OW16318   6.662   0.048  10.697
38104SOL    HW116319   6.639  10.997  10.677
38104SOL    HW216320   6.679   0.088  10.612
38105SOL     OW16321   5.351   0.557   1.658
38105SOL    HW116322   5.326   0.563   1.566
38105SOL    HW216323  16.426  22.723   1.679
38106SOL     OW16324   9.187   6.281   2.698
38106SOL    HW116325   9.252   6.304  24.843
38106SOL    HW216326   9.201   6.343   2.626
38107SOL     OW16327   1.395   5.741   1.829
38107SOL    HW116328   1.316  -5.328   1.874
38107SOL    HW216329  -9.668   5.826   1.792
38108SOL     OW16330  12.303   8.174   0.900
38108SOL    HW116331   1.204  19.219   0.825
38108SOL    HW216332  -9.831   8.196   0.975
38109SOL     OW16333   4.097   4.706   6.257
38109SOL    HW116334   4.052   4.667   6.332
38109SOL    HW216335   4.146   4.779 -15.785
38110SOL     OW16336   3.155   8.063   4.403
38110SOL    HW116337 -18.834  19.134   4.400
38110SOL    HW216338   3.132   8.064   4.496
38111SOL     OW16339   8.698   0.256   9.122
38111SOL    HW116340   8.765   0.317   9.093
38111SOL    HW216341  19.753  22.326   9.216
38112SOL     OW16342   5.836   1.186   8.978
38112SOL    HW116343   5.856  12.194  20.106
38112SOL    HW216344  28.000   1.215  31.023
38113SOL     OW16345   7.944   8.306   3.242
38113SOL    HW116346   7.951   8.256  25.402
38113SOL    HW216347   7.949   8.398   3.269
38114SOL     OW16348   3.646   3.047   4.614
38114SOL    HW116349   3.699   3.104   4.670
38114SOL    HW216350  14.641   3.107   4.555
38115SOL     OW16351   5.080   2.086   0.174
38115SOL    HW116352  16.205   2.122   0.152
38115SOL    HW216353   5.059  24.204   0.259
38116SOL     OW16354   8.906   5.826   7.881
38116SOL    HW116355  -2.191   5.886   7.834
38116SOL    HW216356   8.900   5.744   7.833
38117SOL     OW16357   3.389   9.552   9.504
38117SOL    HW116358   3.298  31.652   9.483
38117SOL    HW216359   3.385   9.464  -1.497
38118SOL     OW16360   8.695   3.617   4.291
38118SOL    HW116361   8.723   3.566 -17.864
38118SOL    HW216362   8.750   3.695  -6.750
38119SOL     OW16363  10.221   0.471  11.853
38119SOL    HW116364  -0.723   0.462 -10.232
38119SOL    HW216365  10.189   0.439  11.769
38120SOL     OW16366   5.851   5.685   0.493
38120SOL    HW116367  -5.215  16.662  11.600
38120SOL    HW216368   5.919   5.638   0.443
38121SOL     OW16369   0.290   7.926   0.630
38121SOL    HW116370  11.391   7.894   0.565
38121SOL    HW216371   0.208   7.880 -10.429
38122SOL     OW16372   3.785   9.334   2.564
38122SOL    HW116373   3.848   9.265   2.590
38122SOL    HW216374   3.727   9.342 -19.439
38123SOL     OW16375   2.193   9.050   8.170
38123SOL    HW116376  -8.765   9.091   8.143
38123SOL    HW216377  13.166   9.117  30.232
38124SOL     OW16378   5.841  10.411   6.596
38124SOL    HW116379   5.846  10.490 -26.576
38124SOL    HW216380   5.810  10.343   6.535
38125SOL     OW16381   8.914   6.426   6.167
38125SOL    HW116382   8.971   6.369   6.219
38125SOL    HW216383   8.914   6.387   6.080
38126SOL     OW16384   6.517   7.745   2.632
38126SOL    HW116385   6.508  18.766   2.538
38126SOL    HW216386   6.504   7.840  -8.401
38127SOL     OW16387   6.395   8.688  11.032
38127SOL    HW116388   6.460  19.711 -11.115
38127SOL    HW216389   6.378   8.602  11.071
38128SOL     OW16390  10.798   1.909   9.377
38128SOL    HW116391  10.879 -20.145   9.333
38128SOL    HW216392 -33.430  -9.096   9.320
38129SOL     OW16393   4.978   4.649   2.735
38129SOL    HW116394  -6.036   4.607   2.653
38129SOL    HW216395   4.971   4.577  13.837
38130SOL     OW16396   2.485   2.976   1.640
38130SOL    HW116397   2.413  -8.017   1.683
38130SOL    HW216398   2.511   2.909   1.704
38131SOL     OW16399   5.931   2.892   1.824
38131SOL    HW116400   5.947   2.856  12.951
38131SOL    HW216401   5.988  -8.198   1.766
38132SOL     OW16402   3.997   1.353   7.243
38132SOL    HW116403   4.028   1.406   7.317
38132SOL    HW216404   4.047   1.385  18.208
38133SOL     OW16405   8.622   9.163   2.395
38133SOL    HW116406   8.624 -12.829  24.514
38133SOL    HW216407   8.706   9.156   2.348
38134SOL     OW16408   6.089   6.303   8.747
38134SOL    HW116409   6.132   6.241  -2.352
38134SOL    HW216410  -4.896   6.302   8.826
38135SOL     OW16411   5.825   9.890  10.351
38135SOL    HW116412   5.854 -12.224  -0.773
38135SOL    HW216413   5.863  21.017  10.355
38136SOL     OW16414   0.479   4.255   0.577
38136SOL    HW116415  11.458   4.312   0.626
38136SOL    HW216416 -10.491 -17.766   0.548
38137SOL     OW16417   5.292   4.069   7.578
38137SOL    HW116418  16.270   3.996   7.578
38137SOL    HW216419   5.352   4.049   7.650
38138SOL     OW16420   8.003   6.333   6.372
38138SOL    HW116421   8.021   6.274 -15.634
38138SOL    HW216422   7.913   6.314   6.347
38139SOL     OW16423   0.231   6.842   5.284
38139SOL    HW116424   0.221   6.871  38.312
38139SOL    HW216425  11.278  -4.116   5.335
38140SOL     OW16426   5.369   4.669   7.620
38140SOL    HW116427   5.336   4.754  18.632
38140SOL    HW216428  27.493   4.686  29.782
38141SOL     OW16429   8.276   0.154   7.960
38141SOL    HW116430   8.232   0.136  18.917
38141SOL    HW216431   8.369   0.141   7.941
38142SOL     OW16432   3.618  11.225   0.982
38142SOL    HW116433  25.710 -10.936   0.934
38142SOL    HW216434   3.687  11.225  -9.991
38143SOL     OW16435   1.263   0.240   6.871
38143SOL    HW116436  34.355   0.327   6.902
38143SOL    HW216437   1.275  22.330 -15.302
38144SOL     OW16438  10.929  12.591   0.500
38144SOL    HW116439  10.963  -9.489   0.590
38144SOL    HW216440  11.007  -9.492   0.445
38145SOL     OW16441   3.948  10.049   3.139
38145SOL    HW116442   4.034  21.091  14.137
38145SOL    HW216443   3.933   9.956  14.197
38146SOL     OW16444   2.464  10.734   9.818
38146SOL    HW116445  13.536  -0.225  20.898
38146SOL    HW216446 -19.698  21.799   9.777
38147SOL     OW16447   9.248   5.868   4.178
38147SOL    HW116448  20.275   5.917  15.299
38147SOL    HW216449   9.208 -16.297   4.196
38148SOL     OW16450   6.657   0.519   1.114
38148SOL    HW116451   6.650  11.463   1.120
38148SOL    HW216452   6.724   0.542   1.179
38149SOL     OW16453   3.277   1.688   7.916
38149SOL    HW116454   3.313   1.642   7.840
38149SOL    HW216455   3.348   1.689   7.980
38150SOL     OW16456   1.365  10.722   6.338
38150SOL    HW116457  23.461  10.691   6.249
38150SOL    HW216458  34.480  -0.398   6.391
38151SOL     OW16459   9.659   3.992   8.560
38151SOL    HW116460   9.672   4.012   8.652
38151SOL    HW216461   9.748 -18.085   8.523
38152SOL     OW16462   9.730   2.703  11.210
38152SOL    HW116463   9.639 -30.404   0.142
38152SOL    HW216464   9.781   2.715  11.129
38153SOL     OW16465  10.719   1.964  10.785
38153SOL    HW116466 -11.386   1.923  -0.337
38153SOL    HW216467  10.764   2.045  10.759
38154SOL     OW16468   6.909   1.089   6.295
38154SOL    HW116469   6.996   1.054   6.315
38154SOL    HW216470 -15.183   1.069   6.202
38155SOL     OW16471   3.248   3.233   1.033
38155SOL    HW116472  -7.799   3.138  23.117
38155SOL    HW216473  14.377   3.252   1.058
38156SOL     OW16474   1.844  -0.517  11.604
38156SOL    HW116475   1.834  10.547 -21.607
38156SOL    HW216476   1.849  21.646   0.610
38157SOL     OW16477   3.066   4.407   7.574
38157SOL    HW116478  -8.044  15.382   7.582
38157SOL    HW216479  -7.940   4.417 -36.496
38158SOL     OW16480   7.642   3.584   4.330
38158SOL    HW116481   7.721  25.627   4.290
38158SOL    HW216482   7.621   3.524 -17.678
38159SOL     OW16483   3.428   3.528   5.341
38159SOL    HW116484  14.393   3.573   5.380
38159SOL    HW216485  14.480   3.450   5.395
38160SOL     OW16486   8.045   5.172   4.025
38160SOL    HW116487   8.098   5.247  15.094
38160SOL    HW216488   8.000 -27.977   4.104
38161SOL     OW16489   0.985   5.458   3.149
38161SOL    HW116490  11.973  -5.629   3.214
38161SOL    HW216491   0.921   5.491  -7.953
38162SOL     OW16492  10.919   2.493   9.002
38162SOL    HW116493  10.916   2.402 -13.107
38162SOL    HW216494  10.915   2.487   9.097
38163SOL     OW16495   6.246   2.845  11.167
38163SOL    HW116496   6.197  13.836 -10.979
38163SOL    HW216497   6.180   2.901   0.168
38164SOL     OW16498   4.062   4.438   5.121
38164SOL    HW116499   4.112   4.421   5.041
38164SOL    HW216500   3.986   4.489  -5.947
38165SOL     OW16501   3.480   4.576   6.008
38165SOL    HW116502   3.539   4.578  -4.957
38165SOL    HW216503   3.486  -6.553   5.975
38166SOL     OW16504   0.619   5.777   2.422
38166SOL    HW116505 -10.371 -60.538   2.449
38166SOL    HW216506   0.564 -16.332   2.350
38167SOL     OW16507   1.645   6.067   5.110
38167SOL    HW116508  -9.369   6.159  -5.917
38167SOL    HW216509  -9.373   6.049   5.019
38168SOL     OW16510   2.724   4.696   7.708
38168SOL    HW116511   2.683   4.783   7.710
38168SOL    HW216512  -8.222   4.714  18.753
38169SOL     OW16513   8.822   6.305   6.464
38169SOL    HW116514   8.872   6.339 -37.620
38169SOL    HW216515  -2.277  17.415  -4.599
38170SOL     OW16516   2.803   3.080   4.307
38170SOL    HW116517   2.755 -18.939   4.250
38170SOL    HW216518   2.781 -18.972   4.396
38171SOL     OW16519   2.714   8.706   4.453
38171SOL    HW116520   2.795   8.654   4.450
38171SOL    HW216521   2.686   8.701   4.544
38172SOL     OW16522   5.952   6.293   1.609
38172SOL    HW116523   5.997 -15.846   1.549
38172SOL    HW216524   6.006   6.292 -20.391
38173SOL     OW16525   2.396   2.525   0.503
38173SOL    HW116526  24.420   2.603   0.497
38173SOL    HW216527   2.426   2.525  22.673
38174SOL     OW16528   4.995   6.376   9.726
38174SOL    HW116529   4.922   6.359   9.786
38174SOL    HW216530   5.058   6.425   9.778
38175SOL     OW16531   3.550   6.943   0.606
38175SOL    HW116532   3.497   6.883  11.698
38175SOL    HW216533   3.627  -4.079   0.660
38176SOL     OW16534   5.797   5.481   4.881
38176SOL    HW116535   5.767  -5.621  -6.224
38176SOL    HW216536   5.842 -16.652   4.947
38177SOL     OW16537   4.242   3.690   2.033
38177SOL    HW116538  15.256  -7.273   2.084
38177SOL    HW216539   4.164 -29.484   2.032
38178SOL     OW16540  12.880   6.166   2.206
38178SOL    HW116541 -20.183  17.271   2.247
38178SOL    HW216542  12.920   6.150   2.121
38179SOL     OW16543   5.074   4.802  11.137
38179SOL    HW116544   5.120   4.856   0.162
38179SOL    HW216545   5.131   4.805  11.060
38180SOL     OW16546   2.923   1.997   5.470
38180SOL    HW116547   2.858   1.950   5.522
38180SOL    HW216548   3.005 -31.130  16.560
38181SOL     OW16549   7.546   3.096   1.688
38181SOL    HW116550   7.608  -8.014   1.708
38181SOL    HW216551   7.506  -7.922   1.773
38182SOL     OW16552   6.115   5.718   7.310
38182SOL    HW116553   6.029   5.758   7.299
38182SOL    HW216554   6.102   5.626  -3.751
38183SOL     OW16555   5.676   7.580   2.407
38183SOL    HW116556  16.774   7.631  13.390
38183SOL    HW216557   5.629   7.522  35.465
38184SOL     OW16558   6.102   3.150   7.370
38184SOL    HW116559   6.092   3.245  -3.659
38184SOL    HW216560   6.119  14.157   7.458
38185SOL     OW16561   4.663   3.067   4.274
38185SOL    HW116562  15.766   3.034   4.211
38185SOL    HW216563   4.672  14.201 -17.809
38186SOL     OW16564   9.979   8.269   6.687
38186SOL    HW116565   9.930  19.325  -4.433
38186SOL    HW216566  10.066   8.305   6.671
38187SOL     OW16567   1.204   9.329   5.125
38187SOL    HW116568 -20.827  -1.783  -5.954
38187SOL    HW216569  12.152   9.313   5.100
38188SOL     OW16570   2.042   4.798   2.985
38188SOL    HW116571   2.037   4.874   3.043
38188SOL    HW216572  24.215   4.780  14.017
38189SOL     OW16573   5.159   2.264   8.334
38189SOL    HW116574  16.147   2.197   8.379
38189SOL    HW216575   5.209   2.306  -2.635
38190SOL     OW16576  -0.678   0.761   4.617
38190SOL    HW116577  -0.584 -10.266   4.600
38190SOL    HW216578  32.412   0.700  -6.490
38191SOL     OW16579   9.997   1.691   3.356
38191SOL    HW116580 -12.159   1.703   3.412
38191SOL    HW216581   9.988   1.758   3.288
38192SOL     OW16582   2.056   1.966   7.935
38192SOL    HW116583   2.003   1.896 -14.182
38192SOL    HW216584   2.100  24.005  -3.030
38193SOL     OW16585  -0.154   8.668   0.179
38193SOL    HW116586  22.020  19.697  33.292
38193SOL    HW216587  10.872   8.722  11.297
38194SOL     OW16588   1.341   3.457  10.696
38194SOL    HW116589   1.428   3.427  10.671
38194SOL    HW216590   1.352   3.491  10.785
38195SOL     OW16591   3.625   8.291   6.856
38195SOL    HW116592  14.740  19.383   6.829
38195SOL    HW216593  25.653  30.429   6.912
38196SOL     OW16594  10.276   9.999   8.317
38196SOL    HW116595  10.302   9.962   8.232
38196SOL    HW216596  10.185  10.023   8.306
38197SOL     OW16597   9.608  -0.399   3.507
38197SOL    HW116598   9.642  -0.315   3.538
38197SOL    HW216599   9.572  10.599  25.664
38198SOL     OW16600   0.160   7.223   1.480
38198SOL    HW116601   0.067  -3.793  -9.560
38198SOL    HW216602  11.226   7.230   1.388
38199SOL     OW16603   5.535   2.698   0.764
38199SOL    HW116604   5.563  13.718   0.854
38199SOL    HW216605   5.588   2.640 -10.330
38200SOL     OW16606  10.904   8.064   4.772
38200SOL    HW116607  10.816   8.062  -6.304
38200SOL    HW216608 -11.132  30.215   4.726
38201SOL     OW16609   7.322   8.466   7.758
38201SOL    HW116610   7.369  19.535   7.680
38201SOL    HW216611 -14.850  19.508   7.731
38202SOL     OW16612   3.175   3.467   3.929
38202SOL    HW116613   3.114   3.516  15.024
38202SOL    HW216614 -18.856  14.451   3.990
38203SOL     OW16615   6.879   2.386   3.600
38203SOL    HW116616  -4.134   2.447   3.532
38203SOL    HW216617   6.784   2.390   3.601
38204SOL     OW16618   9.533   9.357   6.610
38204SOL    HW116619  -1.492   9.265   6.632
38204SOL    HW216620   9.600  -1.662  17.585
38205SOL     OW16621   9.502   7.380  -1.986
38205SOL    HW116622  20.447  -3.650  31.146
38205SOL    HW216623   9.533  -3.569   9.042
38206SOL     OW16624  12.715   7.661   8.724
38206SOL    HW116625  12.673  -3.416   8.647
38206SOL    HW216626 -20.445   7.617   8.798
38207SOL     OW16627   2.587   1.747   2.303
38207SOL    HW116628   2.660   1.808  13.335
38207SOL    HW216629   2.509   1.803   2.311
38208SOL     OW16630   8.417   3.455   3.864
38208SOL    HW116631   8.324   3.477   3.867
38208SOL    HW216632   8.419   3.367   3.826
38209SOL     OW16633  -0.427   1.473   2.343
38209SOL    HW116634  21.590   1.446   2.275
38209SOL    HW216635  -0.347  -9.615  -8.716
38210SOL     OW16636   2.323   3.557   8.664
38210SOL    HW116637  35.432   3.652   8.657
38210SOL    HW216638   2.337   3.541  -2.282
38211SOL     OW16639   1.344   8.120   6.664
38211SOL    HW116640   1.308   8.050  17.758
38211SOL    HW216641  12.479  -2.933  -4.373
38212SOL     OW16642   4.961   5.118   2.163
38212SOL    HW116643  15.926   5.090   2.216
38212SOL    HW216644   4.931  -5.932  -8.967
38213SOL     OW16645   5.856   9.527   5.557
38213SOL    HW116646  16.939   9.553  16.677
38213SOL    HW216647   5.837   9.434   5.568
38214SOL     OW16648   7.745   2.931  12.812
38214SOL    HW116649  -3.267   2.901 -20.221
38214SOL    HW216650   7.781   2.867  12.751
38215SOL     OW16651   5.978   8.421   3.266
38215SOL    HW116652   5.897   8.466   3.246
38215SOL    HW216653   6.044   8.490  25.352
38216SOL     OW16654   0.060   0.236   8.448
38216SOL    HW116655  11.174  22.312   8.388
38216SOL    HW216656  -0.006 -21.790   8.402
38217SOL     OW16657   2.364   7.847   5.877
38217SOL    HW116658   2.318   7.925   5.907
38217SOL    HW216659  24.415   7.837   5.786
38218SOL     OW16660   6.055   4.275   4.479
38218SOL    HW116661   6.009   4.353   4.447
38218SOL    HW216662   6.147   4.294   4.464
38219SOL     OW16663   6.567   3.912   2.946
38219SOL    HW116664   6.637  -7.165   2.892
38219SOL    HW216665 -26.524 -18.077   2.962
38220SOL     OW16666   6.185   9.239   1.727
38220SOL    HW116667  17.245   9.212   1.817
38220SOL    HW216668   6.093   9.264   1.730
38221SOL     OW16669  10.734   5.024   9.996
38221SOL    HW116670 -22.341   4.992   9.917
38221SOL    HW216671  -0.330   4.945  10.045
38222SOL     OW16672   5.511   1.905   3.025
38222SOL    HW116673  16.528   1.891  -7.922
38222SOL    HW216674  16.490  13.011   2.995
38223SOL     OW16675   1.533   5.154   9.862
38223SOL    HW116676   1.469   5.216  20.867
38223SOL    HW216677  12.654   5.178 -23.301
38224SOL     OW16678   1.536   6.218  10.941
38224SOL    HW116679   1.506   6.270  11.016
38224SOL    HW216680  12.574   6.128  10.972
38225SOL     OW16681   8.072  -0.877   0.112
38225SOL    HW116682   8.052  10.248  22.152
38225SOL    HW216683   7.987  10.121 -10.915
38226SOL     OW16684   3.483   9.799   7.423
38226SOL    HW116685  14.513   9.880 -14.607
38226SOL    HW216686  14.453  20.842   7.357
38227SOL     OW16687   4.444   6.220  -1.134
38227SOL    HW116688  15.528   6.154  20.892
38227SOL    HW216689  15.392   6.194  -1.134
38228SOL     OW16690   8.356   5.081   4.344
38228SOL    HW116691   8.278  27.127   4.389
38228SOL    HW216692   8.348  16.086   4.254
38229SOL     OW16693   2.640  11.130  10.511
38229SOL    HW116694   2.669  11.115  10.601
38229SOL    HW216695   2.577   0.162  10.517
38230SOL     OW16696   8.634   2.683   3.708
38230SOL    HW116697   8.686  -8.436  36.836
38230SOL    HW216698   8.664 -19.356  14.666
38231SOL     OW16699  10.319   2.749   2.741
38231SOL    HW116700  10.309   2.694  24.742
38231SOL    HW216701  10.275   2.831  13.757
38232SOL     OW16702   6.300   1.772   3.272
38232SOL    HW116703  -4.799   1.790  14.239
38232SOL    HW216704   6.368   1.715  14.274
38233SOL     OW16705   0.325   4.080   0.854
38233SOL    HW116706   0.262  15.132 -10.115
38233SOL    HW216707   0.280   4.110   0.775
38234SOL     OW16708   2.501  -0.697   3.541
38234SOL    HW116709   2.428  21.340  -7.453
38234SOL    HW216710   2.528  10.280   3.474
38235SOL     OW16711   0.711  -0.764   5.358
38235SOL    HW116712 -10.299  21.258   5.287
38235SOL    HW216713   0.622  10.248   5.376
38236SOL     OW16714   8.263   0.876   0.576
38236SOL    HW116715   8.205   0.940 -10.421
38236SOL    HW216716   8.258   0.799  11.672
38237SOL     OW16717   1.389   6.474   7.850
38237SOL    HW116718   1.427   6.549  18.934
38237SOL    HW216719   1.449   6.402  18.907
38238SOL     OW16720  -1.610   4.061   2.234
38238SOL    HW116721  20.547  -6.953  13.323
38238SOL    HW216722   9.464   4.014   2.158
38239SOL     OW16723  12.171   2.175  10.573
38239SOL    HW116724 -20.965   2.100  -0.524
38239SOL    HW216725  12.112   2.161  10.648
38240SOL     OW16726   8.127  10.164   8.442
38240SOL    HW116727   8.206  10.199   8.484
38240SOL    HW216728   8.062  -0.879   8.512
38241SOL     OW16729   6.531   3.450  11.336
38241SOL    HW116730   6.584   3.462  11.415
38241SOL    HW216731 -15.583   3.361 -10.734
38242SOL     OW16732   0.975   2.572   2.430
38242SOL    HW116733   1.064  -8.486   2.462
38242SOL    HW216734  12.022   2.659   2.390
38243SOL     OW16735  12.417   9.412   1.474
38243SOL    HW116736  12.506   9.432   1.446
38243SOL    HW216737 -31.731   9.336   1.532
38244SOL     OW16738   6.428   7.513   8.640
38244SOL    HW116739   6.450  29.590   8.734
38244SOL    HW216740 -15.643   7.606  19.656
38245SOL     OW16741  10.515   2.928   0.864
38245SOL    HW116742  10.475   2.842  11.913
38245SOL    HW216743  10.520   2.963 -10.087
38246SOL     OW16744   6.390   4.680   3.186
38246SOL    HW116745   6.334   4.740   3.137
38246SOL    HW216746   6.432   4.735  14.292
38247SOL     OW16747   0.330   8.388   5.766
38247SOL    HW116748  11.452   8.431  -5.295
38247SOL    HW216749   0.356   8.307   5.812
38248SOL     OW16750  11.322   7.637   3.757
38248SOL    HW116751  11.329   7.731   3.740
38248SOL    HW216752 -10.732   7.627   3.849
38249SOL     OW16753   3.099   3.139   3.843
38249SOL    HW116754   3.042  14.107   3.816
38249SOL    HW216755  14.091   3.219  25.899
38250SOL     OW16756   7.343   0.867   8.468
38250SOL    HW116757   7.371   0.864   8.376
38250SOL    HW216758   7.424 -10.180   8.518
38251SOL     OW16759   2.438   2.759   7.102
38251SOL    HW116760  -8.622   2.820 -14.907
38251SOL    HW216761  -8.602  -8.367   7.145
38252SOL     OW16762   4.006   1.914   5.304
38252SOL    HW116763   4.069   1.984   5.285
38252SOL    HW216764   3.936   1.957   5.352
38253SOL     OW16765  -0.521   8.438   3.949
38253SOL    HW116766  -0.457   8.472  -7.027
38253SOL    HW216767  10.445   8.499   3.954
38254SOL     OW16768   9.146   9.481   9.289
38254SOL    HW116769   9.199   9.510   9.215
38254SOL    HW216770  20.250   9.447  -1.687
38255SOL     OW16771   7.293   7.011   8.676
38255SOL    HW116772   7.315   6.967   8.758
38255SOL    HW216773   7.247  18.130   8.701
38256SOL     OW16774  11.548   9.763  10.969
38256SOL    HW116775 -21.618  20.738  10.917
38256SOL    HW216776  11.484   9.833 -11.094
38257SOL     OW16777   4.565   8.894   3.864
38257SOL    HW116778   4.595   8.946   3.790
38257SOL    HW216779   4.477   8.927   3.882
38258SOL     OW16780   4.574   9.763   7.862
38258SOL    HW116781   4.610  20.722   7.823
38258SOL    HW216782  15.625   9.829   7.794
38259SOL     OW16783  10.700   8.136   0.377
38259SOL    HW116784  -0.321   8.217   0.330
38259SOL    HW216785  10.747   8.145   0.460
38260SOL     OW16786   8.439   9.653   0.758
38260SOL    HW116787   8.487   9.724  11.755
38260SOL    HW216788   8.397  -1.434 -10.354
38261SOL     OW16789   7.308   3.252   6.163
38261SOL    HW116790  18.375   3.169   6.201
38261SOL    HW216791   7.213   3.244   6.152
38262SOL     OW16792   2.320   8.916   0.695
38262SOL    HW116793   2.306  -2.212   0.659
38262SOL    HW216794   2.234   8.943   0.726
38263SOL     OW16795   3.272   3.878   6.123
38263SOL    HW116796   3.185  14.959  17.167
38263SOL    HW216797 -18.754   3.926   6.187
38264SOL     OW16798   3.665   5.160   9.176
38264SOL    HW116799   3.648   5.209   9.256
38264SOL    HW216800   3.741   5.105  -1.843
38265SOL     OW16801   6.484   0.832   8.832
38265SOL    HW116802 -15.686  11.886   8.808
38265SOL    HW216803   6.534   0.892   8.776
38266SOL     OW16804   8.911   9.423  11.357
38266SOL    HW116805   8.836  20.403  11.360
38266SOL    HW216806   8.965  20.437 -10.647
38267SOL     OW16807   9.981   5.958   2.638
38267SOL    HW116808  10.031  17.032  -8.476
38267SOL    HW216809   9.922  -5.010   2.662
38268SOL     OW16810   7.522   2.434   7.320
38268SOL    HW116811   7.598   2.477   7.361
38268SOL    HW216812   7.454  -8.538   7.319
38269SOL     OW16813   3.549  10.352   3.244
38269SOL    HW116814   3.470  21.407  -7.847
38269SOL    HW216815   3.612  10.316  -7.859
38270SOL     OW16816   8.534   7.022   5.852
38270SOL    HW116817   8.591  -4.095  16.890
38270SOL    HW216818   8.533   7.048   5.944
38271SOL     OW16819   6.561   5.509   2.137
38271SOL    HW116820   6.525   5.466  35.178
38271SOL    HW216821  17.635   5.437   2.190
38272SOL     OW16822   7.287   8.092   0.023
38272SOL    HW116823   7.225  -3.015  -0.004
38272SOL    HW216824   7.365  19.083   0.050
38273SOL     OW16825   1.319   0.354  11.932
38273SOL    HW116826   1.353   0.442 -10.129
38273SOL    HW216827  23.382   0.316   0.979
38274SOL     OW16828   3.933   5.792  -0.822
38274SOL    HW116829   3.854   5.756  21.296
38274SOL    HW216830  -7.074   5.722  -0.879
38275SOL     OW16831   9.042   6.891   0.487
38275SOL    HW116832   9.063   6.961  11.588
38275SOL    HW216833   8.967  -4.193  22.606
38276SOL     OW16834   7.311   2.755   2.275
38276SOL    HW116835   7.275  13.736  13.382
38276SOL    HW216836   7.254  13.782  13.239
38277SOL     OW16837   2.420   0.741   6.070
38277SOL    HW116838   2.437  11.736  17.026
38277SOL    HW216839  13.542   0.784   6.091
38278SOL     OW16840   1.475  12.731   4.717
38278SOL    HW116841   1.399  12.685  15.792
38278SOL    HW216842   1.448 -20.361   4.629
38279SOL     OW16843  11.239   1.570   6.621
38279SOL    HW116844   0.111   1.606   6.629
38279SOL    HW216845  11.255   1.529   6.706
38280SOL     OW16846   4.256   2.533  10.986
38280SOL    HW116847   4.284  -8.492  11.077
38280SOL    HW216848   4.219 -19.463  -0.081
38281SOL     OW16849   9.668  11.349   8.636
38281SOL    HW116850   9.690   0.301  -2.311
38281SOL    HW216851  20.616 -21.799  19.670
38282SOL     OW16852   6.493   6.695   5.804
38282SOL    HW116853   6.421   6.637   5.827
38282SOL    HW216854   6.495   6.760  27.953
38283SOL     OW16855   2.167   4.366   5.459
38283SOL    HW116856   2.073  -6.685   5.444
38283SOL    HW216857  -8.848 -28.827  16.554
38284SOL     OW16858   4.797   1.107   1.040
38284SOL    HW116859   4.729   1.166  -9.969
38284SOL    HW216860   4.788  12.146   0.945
38285SOL     OW16861   8.181   4.596   6.200
38285SOL    HW116862   8.235   4.589  -4.918
38285SOL    HW216863   8.227   4.660   6.255
38286SOL     OW16864   1.221   2.399  10.214
38286SOL    HW116865  23.301  24.384  10.194
38286SOL    HW216866   1.158  35.554  10.152
38287SOL     OW16867   9.349   8.093   7.779
38287SOL    HW116868   9.265   8.137  -3.247
38287SOL    HW216869   9.344   8.013  40.949
38288SOL     OW16870   1.822   1.385  11.336
38288SOL    HW116871   1.748   1.324   0.287
38288SOL    HW216872   1.867 -20.699  11.251
38289SOL     OW16873   3.109  10.232   7.235
38289SOL    HW116874   3.102  10.176  18.197
38289SOL    HW216875  14.161  10.320  -3.839
38290SOL     OW16876  -0.343   6.689  10.296
38290SOL    HW116877  10.705  17.813  10.252
38290SOL    HW216878  10.643  39.827  10.373
38291SOL     OW16879   8.152   4.881   8.183
38291SOL    HW116880   8.072   4.858  19.175
38291SOL    HW216881   8.124   4.884   8.275
38292SOL     OW16882   1.908   4.601   2.545
38292SOL    HW116883   1.952 -39.517  13.510
38292SOL    HW216884   1.944 -28.471  -8.418
38293SOL     OW16885   7.075   2.073   4.609
38293SOL    HW116886   7.019   2.017   4.662
38293SOL    HW216887   7.041   2.162   4.623
38294SOL     OW16888   5.126  10.025   3.493
38294SOL    HW116889   5.066  -0.964  14.478
38294SOL    HW216890   5.079 -12.136  -7.530
38295SOL     OW16891   5.732   3.436   2.071
38295SOL    HW116892   5.805   3.488   2.105
38295SOL    HW216893   5.718   3.470  13.022
38296SOL     OW16894   9.626   5.186   1.224
38296SOL    HW116895   9.611  16.153   1.285
38296SOL    HW216896   9.550  16.225   1.167
38297SOL     OW16897   3.139   1.556  10.398
38297SOL    HW116898   3.180  -9.438  10.325
38297SOL    HW216899 -18.907   1.600  10.476
38298SOL     OW16900   2.556   1.411   0.374
38298SOL    HW116901   2.543  12.488   0.461
38298SOL    HW216902   2.651   1.413   0.360
38299SOL     OW16903   9.398  11.244   1.255
38299SOL    HW116904   9.419  22.371   1.222
38299SOL    HW216905   9.483 -10.874   1.275
38300SOL     OW16906  11.738   3.823   1.779
38300SOL    HW116907 -10.422   3.774   1.765
38300SOL    HW216908   0.742   3.823  -9.346
38301SOL     OW16909   5.807   9.523  10.121
38301SOL    HW116910   5.774  -1.599  -0.883
38301SOL    HW216911   5.745  -1.451  -0.887
38302SOL     OW16912  -0.593  13.446   7.474
38302SOL    HW116913  21.560 -19.613 -14.613
38302SOL    HW216914  32.537   2.344 -14.677
38303SOL     OW16915   2.257   4.124   5.552
38303SOL    HW116916   2.338   4.076  38.685
38303SOL    HW216917   2.188   4.066  27.663
38304SOL     OW16918   1.859   9.677   4.047
38304SOL    HW116919   1.819   9.591   4.034
38304SOL    HW216920   1.936  20.717   3.990
38305SOL     OW16921   2.533   0.923   8.961
38305SOL    HW116922  -8.544   0.987 -13.179
38305SOL    HW216923  13.534   0.944  -1.994
38306SOL     OW16924   2.120   1.238   4.734
38306SOL    HW116925   2.093   1.327   4.711
38306SOL    HW216926   2.201  -9.790   4.784
38307SOL     OW16927   1.622  12.640  11.594
38307SOL    HW116928   1.684 -20.550   0.543
38307SOL    HW216929   1.640  12.674  11.682
38308SOL     OW16930  12.013   1.904   0.698
38308SOL    HW116931  23.025  -9.225   0.718
38308SOL    HW216932 -21.153   1.958  11.800
38309SOL     OW16933   4.496   4.954   6.294
38309SOL    HW116934  15.458   4.931  -4.694
38309SOL    HW216935  15.512  15.972   6.204
38310SOL     OW16936   6.765   7.503   6.639
38310SOL    HW116937 -15.338   7.579  17.732
38310SOL    HW216938 -15.324   7.428   6.698
38311SOL     OW16939   7.924   3.035   3.780
38311SOL    HW116940   7.931   3.012   3.688
38311SOL    HW216941   7.847   3.091   3.786
38312SOL     OW16942   7.716   4.152   6.672
38312SOL    HW116943   7.685   4.103   6.596
38312SOL    HW216944  -3.246  -6.841   6.642
38313SOL     OW16945   9.244  10.669   7.206
38313SOL    HW116946   9.290  10.585   7.208
38313SOL    HW216947 -12.914  10.652   7.154
38314SOL     OW16948   7.626   4.017   9.315
38314SOL    HW116949  -3.397   3.973   9.232
38314SOL    HW216950  -3.374   3.959   9.381
38315SOL     OW16951   3.990   6.869   8.619
38315SOL    HW116952   3.905  -4.169  19.704
38315SOL    HW216953   4.025 -15.122   8.631
38316SOL     OW16954  -0.191   4.711   0.643
38316SOL    HW116955  -0.238  -6.259   0.596
38316SOL    HW216956  10.883 -17.424   0.573
38317SOL     OW16957   3.008   8.244   4.189
38317SOL    HW116958  -8.067  -2.824   4.273
38317SOL    HW216959 -30.036  -2.740   4.211
38318SOL     OW16960   8.873  11.032   3.900
38318SOL    HW116961   8.853  11.122   3.874
38318SOL    HW216962   8.962  11.036   3.936
38319SOL     OW16963   0.861   3.175  10.825
38319SOL    HW116964   0.876   3.265  10.796
38319SOL    HW216965   0.788   3.144  10.772
38320SOL     OW16966  10.302   5.355   7.479
38320SOL    HW116967  10.382   5.408   7.484
38320SOL    HW216968  10.333   5.268   7.452
38321SOL     OW16969   9.376   1.302  -0.175
38321SOL    HW116970   9.301   1.243  -0.180
38321SOL    HW216971   9.358  12.399  33.018
38322SOL     OW16972  11.015   8.281   4.355
38322SOL    HW116973  10.934  -2.795  15.360
38322SOL    HW216974  10.989  -2.677   4.396
38323SOL     OW16975   6.466   4.496   3.602
38323SOL    HW116976  17.450  -6.542  14.564
38323SOL    HW216977  28.567   4.588  14.657
38324SOL     OW16978  11.038   6.858  10.054
38324SOL    HW116979 -22.170   6.889  10.066
38324SOL    HW216980  11.090   6.938  10.044
38325SOL     OW16981   3.200   3.010   3.116
38325SOL    HW116982   3.270  -7.975   3.153
38325SOL    HW216983   3.141  14.034   3.189
38326SOL     OW16984   7.679   4.436   2.587
38326SOL    HW116985   7.692  26.608  13.643
38326SOL    HW216986  40.703  15.466   2.575
38327SOL     OW16987  10.186   8.700   0.213
38327SOL    HW116988  10.169   8.609  11.228
38327SOL    HW216989  21.271   8.695   0.297
38328SOL     OW16990   7.934   8.809   3.309
38328SOL    HW116991   7.842   8.831   3.297
38328SOL    HW216992   7.935   8.716   3.332
38329SOL     OW16993   5.543  10.498   5.689
38329SOL    HW116994   5.590  -0.617   5.653
38329SOL    HW216995   5.463  10.461   5.727
38330SOL     OW16996   4.705  10.474   1.296
38330SOL    HW116997   4.639  10.444   1.233
38330SOL    HW216998  15.694  10.501   1.373
38331SOL     OW16999   6.428   9.028   8.277
38331SOL    HW117000   6.442   9.026  30.451
38331SOL    HW217001   6.499  -2.066 -13.837
38332SOL     OW17002   8.562   1.624   6.651
38332SOL    HW117003  30.548   1.641 -26.478
38332SOL    HW217004   8.590   1.678   6.725
38333SOL     OW17005  -0.271   9.614   8.291
38333SOL    HW117006  -0.197   9.660   8.251
38333SOL    HW217007  10.802 -12.552   8.310
38334SOL     OW17008   7.761   6.911   2.269
38334SOL    HW117009   7.727   6.897   2.357
38334SOL    HW217010   7.708   6.853   2.213
38335SOL     OW17011   9.592   8.108   0.290
38335SOL    HW117012  20.623   8.134  11.421
38335SOL    HW217013   9.517   8.051   0.273
38336SOL     OW17014   1.739   5.321   4.603
38336SOL    HW117015   1.726  -5.683   4.691
38336SOL    HW217016   1.742   5.226   4.615
38337SOL     OW17017  10.761   5.971   8.432
38337SOL    HW117018  10.832   5.954  19.533
38337SOL    HW217019  10.724   6.055  19.501
38338SOL     OW17020   4.518   6.391   8.825
38338SOL    HW117021   4.556   6.468  19.821
38338SOL    HW217022   4.426 -26.725   8.800
38339SOL     OW17023   3.128   1.120   8.206
38339SOL    HW117024  14.260  12.142   8.224
38339SOL    HW217025  14.151   1.205   8.246
38340SOL     OW17026   3.270   7.932  11.873
38340SOL    HW117027  14.403  30.030 -10.203
38340SOL    HW217028   3.230   7.996 -10.147
38341SOL     OW17029   1.943   3.689   5.610
38341SOL    HW117030   1.926   3.603  27.650
38341SOL    HW217031 -20.158   3.678 -16.377
38342SOL     OW17032  11.532   3.131  10.935
38342SOL    HW117033   0.521   3.163  10.849
38342SOL    HW217034 -10.613   3.065  10.915
38343SOL     OW17035   3.647   8.080   9.931
38343SOL    HW117036  25.759   8.076  10.021
38343SOL    HW217037  69.918  30.079   9.890
38344SOL     OW17038   9.779   7.329   4.722
38344SOL    HW117039   9.825   7.247  -6.298
38344SOL    HW217040  31.766   7.305   4.723
38345SOL     OW17041   2.467   8.238   7.948
38345SOL    HW117042  24.507   8.206   7.866
38345SOL    HW217043   2.450   8.168   8.011
38346SOL     OW17044   4.910   5.518   7.113
38346SOL    HW117045  -6.211   5.470   7.114
38346SOL    HW217046   4.978   5.451   7.101
38347SOL     OW17047   1.979   5.663   6.351
38347SOL    HW117048   2.072 -27.472   6.367
38347SOL    HW217049   1.935   5.586   6.388
38348SOL     OW17050   9.620   1.519   3.326
38348SOL    HW117051   9.529   1.537  -7.689
38348SOL    HW217052  31.744   1.501  -7.631
38349SOL     OW17053   5.231   0.890   2.282
38349SOL    HW117054  16.333   0.917  -8.825
38349SOL    HW217055  16.323   0.880  24.440
38350SOL     OW17056   2.314   5.938   8.532
38350SOL    HW117057   2.245   5.872   8.525
38350SOL    HW217058   2.356   5.938   8.447
38351SOL     OW17059   3.847   8.411   0.871
38351SOL    HW117060  25.887   8.493 -10.197
38351SOL    HW217061   3.870   8.425   0.963
38352SOL     OW17062   0.082   3.377   6.507
38352SOL    HW117063   0.115  14.487   6.563
38352SOL    HW217064  11.192 -29.807 -26.611
38353SOL     OW17065   5.798   2.702   0.428
38353SOL    HW117066  -5.251   2.779   0.483
38353SOL    HW217067 -27.377  13.758   0.353
38354SOL     OW17068   6.908   6.262   6.899
38354SOL    HW117069   6.939   6.351   6.919
38354SOL    HW217070   6.857   6.236   6.976
38355SOL     OW17071   8.474   9.729   4.112
38355SOL    HW117072   8.492   9.711   4.019
38355SOL    HW217073   8.378   9.732   4.118
38356SOL     OW17074   3.888   3.339   6.964
38356SOL    HW117075   3.983   3.348   6.972
38356SOL    HW217076   3.854   3.427  18.016
38357SOL     OW17077   5.926   0.489   4.237
38357SOL    HW117078   5.915   0.570   4.187
38357SOL    HW217079 -16.068   0.455  -6.829
38358SOL     OW17080  -0.750   4.570   6.018
38358SOL    HW117081  21.327   4.661   6.049
38358SOL    HW217082  -0.657  -6.485   5.998
38359SOL     OW17083   5.434   5.083   0.397
38359SOL    HW117084   5.507  16.070   0.362
38359SOL    HW217085  -5.576  -5.929   0.484
38360SOL     OW17086   4.050   1.092   4.995
38360SOL    HW117087 -51.086  23.099  27.061
38360SOL    HW217088  -6.950   1.144   5.065
38361SOL     OW17089  10.411   1.367   5.828
38361SOL    HW117090  10.426   1.443 -16.307
38361SOL    HW217091  10.451 -20.785 -27.338
38362SOL     OW17092   2.360   0.260   1.708
38362SOL    HW117093   2.365   0.355  12.749
38362SOL    HW217094 -19.704  11.273   1.799
38363SOL     OW17095   5.881  10.852  -0.436
38363SOL    HW117096 -16.293  -0.203  10.604
38363SOL    HW217097   5.890 -22.176  21.614
38364SOL     OW17098   2.682   1.174   2.856
38364SOL    HW117099   2.776   1.185  -8.200
38364SOL    HW217100   2.674   1.183   2.951
38365SOL     OW17101  12.349   6.469   6.499
38365SOL    HW117102  -9.819  17.484   6.526
38365SOL    HW217103   1.300   6.560  28.549
38366SOL     OW17104   9.396   1.995  10.440
38366SOL    HW117105 -12.644   1.912  10.413
38366SOL    HW217106   9.435   2.060  10.382
38367SOL     OW17107   8.221   8.477   4.747
38367SOL    HW117108  -2.884   8.464   4.679
38367SOL    HW217109   8.171  19.523 -17.251
38368SOL     OW17110   4.292   2.095  -0.419
38368SOL    HW117111   4.211  13.163  -0.459
38368SOL    HW217112   4.305  13.046  10.588
38369SOL     OW17113   6.726   8.749   0.799
38369SOL    HW117114   6.721   8.826   0.855
38369SOL    HW217115   6.660   8.689   0.834
38370SOL     OW17116   6.418   2.746   9.977
38370SOL    HW117117   6.513  -8.278   9.975
38370SOL    HW217118   6.406   2.670  -1.119
38371SOL     OW17119   5.448  11.556   8.663
38371SOL    HW117120   5.373   0.575   8.674
38371SOL    HW217121   5.432  11.485   8.725
38372SOL     OW17122   4.130   2.517   9.775
38372SOL    HW117123   4.211  24.552  20.841
38372SOL    HW217124   4.062   2.450   9.784
38373SOL     OW17125   7.942  10.516   1.323
38373SOL    HW117126  -3.010 -11.556   1.287
38373SOL    HW217127   7.906  -0.435  23.396
38374SOL     OW17128  11.133   6.755   8.673
38374SOL    HW117129  11.224   6.723   8.667
38374SOL    HW217130   0.041   6.680   8.646
38375SOL     OW17131   5.913   7.839   6.660
38375SOL    HW117132 -16.233  29.927   6.727
38375SOL    HW217133  -5.070   7.769   6.692
38376SOL     OW17134   5.284   8.550   3.398
38376SOL    HW117135   5.314   8.605  -7.570
38376SOL    HW217136   5.290   8.461  14.472
38377SOL     OW17137   0.716  10.417   4.656
38377SOL    HW117138   0.635  -0.659   4.618
38377SOL    HW217139 -10.329  10.395   4.749
38378SOL     OW17140  -0.427  10.710   4.243
38378SOL    HW117141  -0.469  10.645  15.226
38378SOL    HW217142  32.630  10.783   4.245
38379SOL     OW17143   3.375   6.469   1.424
38379SOL    HW117144  -7.661  -4.602  -9.525
38379SOL    HW217145   3.430   6.548  -9.616
38380SOL     OW17146   3.246   1.794   8.739
38380SOL    HW117147   3.326   1.773   8.692
38380SOL    HW217148   3.178   1.744  30.774
38381SOL     OW17149   5.494   0.128   0.144
38381SOL    HW117150  16.514   0.125  22.130
38381SOL    HW217151  16.457  11.207  33.303
38382SOL     OW17152   1.420   9.813   2.264
38382SOL    HW117153   1.360   9.791  24.272
38382SOL    HW217154   1.373   9.788  13.383
38383SOL     OW17155   1.356   2.971  10.532
38383SOL    HW117156  -9.735  25.088  10.461
38383SOL    HW217157  23.409  14.061  10.610
38384SOL     OW17158   7.171   2.410   2.861
38384SOL    HW117159   7.108   2.395  -8.249
38384SOL    HW217160   7.240   2.463   2.820
38385SOL     OW17161   5.384   1.311   6.803
38385SOL    HW117162   5.435   1.238   6.768
38385SOL    HW217163   5.449   1.372   6.839
38386SOL     OW17164   3.785  -0.344   4.845
38386SOL    HW117165   3.752  -0.317  -6.109
38386SOL    HW217166 -29.250  10.742   4.836
38387SOL     OW17167   0.765   4.357   1.122
38387SOL    HW117168   0.781  15.431   1.210
38387SOL    HW217169   0.795   4.426   1.063
38388SOL     OW17170   5.272   9.230   3.427
38388SOL    HW117171  16.378  20.306  -7.671
38388SOL    HW217172   5.206   9.299  36.552
38389SOL     OW17173   9.115   7.795   8.537
38389SOL    HW117174   9.100  -3.245  30.521
38389SOL    HW217175   9.107 -14.376   8.563
38390SOL     OW17176   8.828   2.042   0.198
38390SOL    HW117177   8.820  -9.025   0.289
38390SOL    HW217178  -2.245 -19.948   0.197
38391SOL     OW17179  10.336   1.977  11.397
38391SOL    HW117180  10.408   2.012  11.344
38391SOL    HW217181  -0.710   1.886   0.331
38392SOL     OW17182   3.468   9.855   1.932
38392SOL    HW117183   3.521  20.968  -9.140
38392SOL    HW217184   3.522   9.816   2.000
38393SOL     OW17185   9.910   7.984   3.624
38393SOL    HW117186 -34.331   7.938   3.635
38393SOL    HW217187   9.955   7.975   3.708
38394SOL     OW17188   7.212   1.304   1.649
38394SOL    HW117189   7.282   1.259  12.641
38394SOL    HW217190   7.190   1.246   1.721
38395SOL     OW17191   5.792  11.005  10.323
38395SOL    HW117192   5.866  22.032  10.264
38395SOL    HW217193   5.815   0.044  10.374
38396SOL     OW17194   3.445  10.256   6.484
38396SOL    HW117195   3.390  10.191   6.439
38396SOL    HW217196 -18.680  10.339  39.589
38397SOL     OW17197   1.192  10.456  11.273
38397SOL    HW117198   1.129  10.394   0.269
38397SOL    HW217199   1.274  10.434  11.317
38398SOL     OW17200   4.131   7.528   3.422
38398SOL    HW117201   4.112  -3.472  25.416
38398SOL    HW217202   4.212   7.479   3.409
38399SOL     OW17203  10.524   3.557   1.172
38399SOL    HW117204  10.465   3.590   1.104
38399SOL    HW217205  10.596   3.621  -9.866
38400SOL     OW17206   4.842   9.507   3.805
38400SOL    HW117207  15.960   9.452  14.847
38400SOL    HW217208   4.860   9.577   3.869
38401SOL     OW17209   9.917   1.732   8.657
38401SOL    HW117210   9.965  12.842   8.613
38401SOL    HW217211   9.898   1.669  19.627
38402SOL     OW17212   8.130  12.771   2.888
38402SOL    HW117213  -2.922 -20.381   2.977
38402SOL    HW217214   8.068   1.680   2.835
38403SOL     OW17215   0.888   9.853   0.827
38403SOL    HW117216   0.956   9.840 -10.279
38403SOL    HW217217   0.858   9.943   0.814
38404SOL     OW17218  10.581   5.257   1.008
38404SOL    HW117219  10.659   5.244   0.953
38404SOL    HW217220  10.595   5.199   1.083
38405SOL     OW17221   9.726   7.283  10.792
38405SOL    HW117222  -1.298   7.309  10.883
38405SOL    HW217223  31.737  18.255 -22.321
38406SOL     OW17224   9.675   4.200   6.095
38406SOL    HW117225   9.587 -17.848   6.073
38406SOL    HW217226   9.709  -6.775  -4.883
38407SOL     OW17227  10.176   3.741   5.119
38407SOL    HW117228  21.239  14.863   5.075
38407SOL    HW217229  10.237  14.716   5.084
38408SOL     OW17230   8.193   6.757   1.238
38408SOL    HW117231  19.150  17.831   1.273
38408SOL    HW217232  19.208   6.675  12.235
38409SOL     OW17233   6.049   7.920   8.047
38409SOL    HW117234  -4.999 -14.229  30.191
38409SOL    HW217235  39.078 -14.134  -3.013
38410SOL     OW17236   4.468   6.015   3.002
38410SOL    HW117237  26.544   5.936   3.056
38410SOL    HW217238  26.638   6.023   2.976
38411SOL     OW17239   6.391  10.314   7.167
38411SOL    HW117240   6.388  10.373   7.242
38411SOL    HW217241   6.349  10.362   7.096
38412SOL     OW17242   2.435   1.999   6.004
38412SOL    HW117243   2.511 -20.052  -5.087
38412SOL    HW217244   2.472  -9.066   6.088
38413SOL     OW17245   3.654  10.800   5.508
38413SOL    HW117246   3.626  10.720   5.462
38413SOL    HW217247 -18.341  -0.263  27.627
38414SOL     OW17248   3.032   9.769   8.929
38414SOL    HW117249   3.063   9.701   8.989
38414SOL    HW217250   3.012   9.722  19.888
38415SOL     OW17251   3.818   6.596   4.465
38415SOL    HW117252   3.786  -4.411   4.549
38415SOL    HW217253  25.831  -4.506  -6.604
38416SOL     OW17254   3.712   0.575   3.745
38416SOL    HW117255   3.789   0.572   3.688
38416SOL    HW217256  -7.364   0.486   3.741
38417SOL     OW17257   2.430   9.036   3.194
38417SOL    HW117258   2.402   8.945  14.234
38417SOL    HW217259   2.349  -1.953   3.181
38418SOL     OW17260   9.658   4.322   4.979
38418SOL    HW117261   9.697   4.395   4.930
38418SOL    HW217262   9.564   4.338   4.975
38419SOL     OW17263   3.651   2.465   3.763
38419SOL    HW117264  14.674  -8.485   3.732
38419SOL    HW217265   3.598  13.497   3.842
38420SOL     OW17266   4.706  -0.406   1.961
38420SOL    HW117267   4.651  10.555  12.998
38420SOL    HW217268  15.744  10.660  13.093
38421SOL     OW17269   8.655   7.550   5.119
38421SOL    HW117270   8.665   7.614   5.048
38421SOL    HW217271   8.576   7.501  16.135
38422SOL     OW17272   1.334  10.951   3.360
38422SOL    HW117273   1.385  11.031   3.370
38422SOL    HW217274  12.405  10.913   3.278
38423SOL     OW17275   5.399   8.943   4.859
38423SOL    HW117276   5.429   9.003 -17.152
38423SOL    HW217277   5.333   8.889  -6.137
38424SOL     OW17278   3.752  -0.307   2.911
38424SOL    HW117279  14.702  -0.277   2.891
38424SOL    HW217280  14.780  10.651   2.959
38425SOL     OW17281   7.607   7.105   3.606
38425SOL    HW117282  -3.389   7.126   3.688
38425SOL    HW217283   7.555  18.067  -7.415
38426SOL     OW17284   4.945  -0.533   9.760
38426SOL    HW117285   4.978  -0.446   9.735
38426SOL    HW217286  15.928  21.520  20.727
38427SOL     OW17287  11.351   9.968   2.926
38427SOL    HW117288   0.238  10.013   2.969
38427SOL    HW217289  11.313   9.932  -8.193
38428SOL     OW17290   2.150   1.923  12.566
38428SOL    HW117291   2.223   1.958 -42.580
38428SOL    HW217292   2.072   1.950  -9.464
38429SOL     OW17293   2.879   3.569  12.169
38429SOL    HW117294   2.957   3.522   1.156
38429SOL    HW217295   2.905   3.661   1.128
38430SOL     OW17296   3.480   5.308  10.487
38430SOL    HW117297  25.508  27.307  10.502
38430SOL    HW217298   3.565  16.317  10.458
38431SOL     OW17299  10.981   5.853   3.239
38431SOL    HW117300  -0.039   5.860  14.185
38431SOL    HW217301  11.067  -5.199   3.280
38432SOL     OW17302   5.674   1.144   4.682
38432SOL    HW117303  16.802   1.128   4.649
38432SOL    HW217304   5.617   1.100   4.619
38433SOL     OW17305   0.020   9.698   6.243
38433SOL    HW117306  10.987   9.725   6.300
38433SOL    HW217307   0.020  31.681   6.248
38434SOL     OW17308  10.417  -0.329   5.417
38434SOL    HW117309  10.508  21.776   5.397
38434SOL    HW217310  10.376  -0.248   5.447
38435SOL     OW17311   1.665   4.624   1.865
38435SOL    HW117312   1.696  15.687   1.952
38435SOL    HW217313 -20.445   4.707  12.867
38436SOL     OW17314   3.638   5.294   6.317
38436SOL    HW117315  25.622   5.285   6.306
38436SOL    HW217316  14.687   5.339   6.401
38437SOL     OW17317   3.622   8.827   1.850
38437SOL    HW117318   3.678   8.904  12.877
38437SOL    HW217319   3.534  19.898   1.830
38438SOL     OW17320  -1.806  10.059   6.326
38438SOL    HW117321  31.361  10.095   6.251
38438SOL    HW217322  -1.769  10.105  17.441
38439SOL     OW17323   3.938   7.598   1.962
38439SOL    HW117324  15.011   7.660   1.897
38439SOL    HW217325  14.890  18.615  -9.110
38440SOL     OW17326   0.812   1.061   1.386
38440SOL    HW117327   0.906   1.071   1.402
38440SOL    HW217328  11.819   1.012   1.462
38441SOL     OW17329   1.500   4.417   3.515
38441SOL    HW117330   1.521   4.370   3.596
38441SOL    HW217331 -20.587   4.509  -7.496
38442SOL     OW17332   9.683   4.832  -0.848
38442SOL    HW117333  -1.444   4.821  -0.811
38442SOL    HW217334 -23.392   4.748  32.288
38443SOL     OW17335   4.256   5.371   6.173
38443SOL    HW117336  -6.718   5.427   6.131
38443SOL    HW217337   4.245   5.298  17.151
38444SOL     OW17338   1.070   9.040   6.924
38444SOL    HW117339   1.047  31.188   6.986
38444SOL    HW217340   1.139  20.029   6.967
38445SOL     OW17341   9.507   6.026   1.512
38445SOL    HW117342   9.536  17.132   1.574
38445SOL    HW217343   9.474   5.955   1.566
38446SOL     OW17344   4.571   4.375  -0.696
38446SOL    HW117345  -6.530  26.448  21.311
38446SOL    HW217346  37.635   4.373  21.462
38447SOL     OW17347   4.913   3.550   9.324
38447SOL    HW117348   4.848   3.605   9.280
38447SOL    HW217349  15.902  -7.541   9.387
38448SOL     OW17350   6.884  12.159   4.152
38448SOL    HW117351   6.905 -20.929   4.064
38448SOL    HW217352  17.992   1.056  -6.866
38449SOL     OW17353   8.120   2.954   1.769
38449SOL    HW117354   8.052   3.005  12.853
38449SOL    HW217355   8.165  14.056   1.713
38450SOL     OW17356   5.481   3.985   6.853
38450SOL    HW117357   5.465  -7.142   6.818
38450SOL    HW217358  -5.530   4.037   6.777
38451SOL     OW17359   7.139   6.884   1.823
38451SOL    HW117360  -3.947   6.966  -9.202
38451SOL    HW217361   7.075   6.826   1.784
38452SOL     OW17362  11.409   8.047   9.136
38452SOL    HW117363   0.305   8.049   9.207
38452SOL    HW217364  11.487  30.169   9.172
38453SOL     OW17365   0.662   6.348   6.399
38453SOL    HW117366   0.753  28.399   6.406
38453SOL    HW217367   0.666   6.431  -4.689
38454SOL     OW17368   9.417   2.048   6.835
38454SOL    HW117369   9.448   2.124   6.885
38454SOL    HW217370   9.488   2.030   6.773
38455SOL     OW17371   0.564   6.277   2.107
38455SOL    HW117372   0.627   6.218  -8.973
38455SOL    HW217373   0.479 -15.834  -8.962
38456SOL     OW17374   4.157  12.773   0.568
38456SOL    HW117375  15.232   1.645   0.577
38456SOL    HW217376  37.321  -9.255   0.634
38457SOL     OW17377   6.925   2.148   5.376
38457SOL    HW117378  -4.083   2.164   5.287
38457SOL    HW217379  -4.067   2.211   5.430
38458SOL     OW17380   7.908  11.039   5.595
38458SOL    HW117381   7.888  21.998   5.642
38458SOL    HW217382   7.978  -0.025   5.535
38459SOL     OW17383  10.229   5.114   1.192
38459SOL    HW117384  -0.834   5.025   1.219
38459SOL    HW217385  21.321   5.102   1.113
38460SOL     OW17386  -0.080   8.409   2.622
38460SOL    HW117387  11.040   8.455   2.600
38460SOL    HW217388  -0.150   8.471   2.603
38461SOL     OW17389   5.141   4.164  11.355
38461SOL    HW117390   5.112   4.251 -10.753
38461SOL    HW217391   5.149 -17.966  11.275
38462SOL     OW17392   1.250   4.269   6.623
38462SOL    HW117393   1.331   4.222  17.683
38462SOL    HW217394   1.230  -6.795   6.532
38463SOL     OW17395   1.689   5.912   8.185
38463SOL    HW117396   1.599 -27.234   8.170
38463SOL    HW217397   1.683   5.982  -2.790
38464SOL     OW17398   0.349   6.411  12.907
38464SOL    HW117399   0.376   6.475  12.972
38464SOL    HW217400  11.326 -15.724 -31.205
38465SOL     OW17401  10.332   7.989   4.907
38465SOL    HW117402  10.413 -36.180   4.956
38465SOL    HW217403  10.310   7.901  15.917
38466SOL     OW17404   5.293   7.887   9.973
38466SOL    HW117405 -16.777  -3.186   9.884
38466SOL    HW217406   5.225   7.953   9.967
38467SOL     OW17407   4.767   1.012   6.813
38467SOL    HW117408   4.695   1.036   6.871
38467SOL    HW217409  -6.194   1.044 -15.223
38468SOL     OW17410  11.852   7.708   9.939
38468SOL    HW117411  11.900   7.709  10.022
38468SOL    HW217412 -10.160   7.693   9.872
38469SOL     OW17413  -0.483   8.898   5.843
38469SOL    HW117414  10.643  -2.118  16.849
38469SOL    HW217415  -0.521  -2.058   5.870
38470SOL     OW17416   2.074   0.176   0.190
38470SOL    HW117417   2.100   0.120   0.263
38470SOL    HW217418   2.040   0.256   0.231
38471SOL     OW17419  10.592   1.896   5.062
38471SOL    HW117420  10.568   1.813   5.021
38471SOL    HW217421  10.678   1.917   5.027
38472SOL     OW17422   4.761   6.667   8.954
38472SOL    HW117423   4.736   6.598   8.892
38472SOL    HW217424  15.795   6.748 -13.175
38473SOL     OW17425   3.759   4.729   5.880
38473SOL    HW117426   3.766   4.824  -5.152
38473SOL    HW217427  25.884  15.735   5.957
38474SOL     OW17428   1.817   7.993   2.814
38474SOL    HW117429   1.897   7.985   2.763
38474SOL    HW217430   1.784   7.903   2.823
38475SOL     OW17431   1.080   1.795   1.355
38475SOL    HW117432   1.020   1.820  23.504
38475SOL    HW217433   1.064   1.701  -9.698
38476SOL     OW17434   2.739   3.410   5.807
38476SOL    HW117435  -8.269  14.498   5.731
38476SOL    HW217436   2.646  14.434  27.867
38477SOL     OW17437   0.112   4.720   4.900
38477SOL    HW117438   0.031  26.804  27.030
38477SOL    HW217439   0.102   4.787   4.832
38478SOL     OW17440   5.580  10.980   5.360
38478SOL    HW117441   5.669  10.968   5.327
38478SOL    HW217442   5.583  10.945   5.449
38479SOL     OW17443   4.153  10.187   8.507
38479SOL    HW117444 -28.974  10.269   8.459
38479SOL    HW217445   4.087  10.193   8.576
38480SOL     OW17446   9.842   8.220   8.154
38480SOL    HW117447 -12.273  -2.881  30.169
38480SOL    HW217448   9.834   8.305  -2.928
38481SOL     OW17449   2.522   5.723  13.827
38481SOL    HW117450   2.447   5.692  -8.302
38481SOL    HW217451   2.587   5.653 -30.340
38482SOL     OW17452  -1.104   9.185   1.991
38482SOL    HW117453  -1.044   9.254   2.019
38482SOL    HW217454  20.975 -12.957   2.064
38483SOL     OW17455   4.343   4.467   3.080
38483SOL    HW117456   4.248   4.461   3.077
38483SOL    HW217457 -17.706   4.376  -7.951
38484SOL     OW17458   3.888   0.001  10.113
38484SOL    HW117459   3.957  11.107  10.109
38484SOL    HW217460  14.972 -11.117  10.144
38485SOL     OW17461   6.037   2.345   4.495
38485SOL    HW117462  -5.039   2.285   4.560
38485SOL    HW217463  28.098   2.303   4.410
38486SOL     OW17464   8.856   4.409   7.620
38486SOL    HW117465   8.785   4.346   7.630
38486SOL    HW217466   8.881   4.404   7.528
38487SOL     OW17467   7.197   6.674   7.851
38487SOL    HW117468   7.222  -4.275   7.833
38487SOL    HW217469  18.261  28.705  18.811
38488SOL     OW17470   1.057   8.912   3.555
38488SOL    HW117471   1.151   8.907   3.574
38488SOL    HW217472   1.042   9.003   3.529
38489SOL     OW17473  10.181   8.544   2.044
38489SOL    HW117474  10.273   8.550  24.096
38489SOL    HW217475  21.224  30.623   2.140
38490SOL     OW17476   5.664   0.647   5.721
38490SOL    HW117477   5.694 -10.340  16.687
38490SOL    HW217478   5.569   0.654   5.718
38491SOL     OW17479   6.620   1.518   7.808
38491SOL    HW117480  -4.373   1.508   7.891
38491SOL    HW217481   6.549  12.495   7.811
38492SOL     OW17482   5.612   0.379   8.074
38492SOL    HW117483   5.593   0.470   8.094
38492SOL    HW217484   5.535   0.331  -2.935
38493SOL     OW17485   2.023   7.474   4.378
38493SOL    HW117486   2.032   7.383  15.390
38493SOL    HW217487   2.072   7.524   4.312
38494SOL     OW17488   9.898  -0.202  11.640
38494SOL    HW117489   9.975  -0.154   0.631
38494SOL    HW217490  20.938  10.756  11.691
38495SOL     OW17491   8.154   6.562  10.153
38495SOL    HW117492   8.184   6.631  10.094
38495SOL    HW217493 -14.007   6.596  10.190
38496SOL     OW17494   7.104   7.700   7.508
38496SOL    HW117495   7.049   7.638   7.556
38496SOL    HW217496   7.060   7.712   7.424
38497SOL     OW17497  10.346   1.881   9.379
38497SOL    HW117498  -0.760  -9.101   9.417
38497SOL    HW217499  10.300   1.834   9.309
38498SOL     OW17500   8.832   1.038   3.455
38498SOL    HW117501 -13.295  23.106   3.537
38498SOL    HW217502  -2.211   0.951   3.414
38499SOL     OW17503  -1.159   4.022   2.661
38499SOL    HW117504  20.943   3.931  13.717
38499SOL    HW217505  20.909   4.061   2.748
38500SOL     OW17506   4.683   7.996  11.246
38500SOL    HW117507  -6.449   8.019 -10.817
38500SOL    HW217508   4.680   7.905   0.178
38501SOL     OW17509   8.218   0.101   7.680
38501SOL    HW117510   8.127   0.093   7.707
38501SOL    HW217511  19.260   0.063   7.592
38502SOL     OW17512   3.610   4.196   1.110
38502SOL    HW117513   3.624   4.180 -10.023
38502SOL    HW217514   3.529   4.150   1.131
38503SOL     OW17515   1.051   7.044   4.223
38503SOL    HW117516   1.014   6.994   4.150
38503SOL    HW217517  -9.954   7.123   4.182
38504SOL     OW17518  11.001   3.533   7.154
38504SOL    HW117519  11.006   3.457   7.212
38504SOL    HW217520  10.912 -18.513  18.205
38505SOL     OW17521   0.892  10.456   7.042
38505SOL    HW117522   0.885 -22.590  -3.935
38505SOL    HW217523   0.985  10.434 -15.038
38506SOL     OW17524   3.861   0.467   1.647
38506SOL    HW117525   3.850   0.375   1.670
38506SOL    HW217526   3.774  11.536   1.620
38507SOL     OW17527   9.528  -0.366   0.723
38507SOL    HW117528   9.458  -0.343   0.785
38507SOL    HW217529   9.608  10.673  11.816
38508SOL     OW17530   9.567   5.553  11.381
38508SOL    HW117531   9.578   5.492 -10.771
38508SOL    HW217532   9.523   5.629 -10.736
38509SOL     OW17533  -1.093   6.115   3.727
38509SOL    HW117534  20.903   6.072   3.706
38509SOL    HW217535  -1.058   6.141   3.642
38510SOL     OW17536   0.434   8.603   6.914
38510SOL    HW117537   0.369  19.599  -4.069
38510SOL    HW217538   0.463 -24.584   6.854
38511SOL     OW17539   5.936   2.176   0.613
38511SOL    HW117540   6.011   2.118   0.624
38511SOL    HW217541   5.898  13.190   0.529
38512SOL     OW17542   5.829   1.845   1.548
38512SOL    HW117543  -5.209   1.936   1.519
38512SOL    HW217544   5.768 -20.277   1.488
38513SOL     OW17545   7.024   8.481   4.587
38513SOL    HW117546   6.974   8.552  -6.494
38513SOL    HW217547   7.068   8.523  -6.379
38514SOL     OW17548   6.672  -0.706   8.163
38514SOL    HW117549   6.620  32.356   8.219
38514SOL    HW217550   6.683  10.414   8.215
38515SOL     OW17551  10.142  10.132   3.084
38515SOL    HW117552  10.068  10.155 -19.052
38515SOL    HW217553  10.219  21.194   3.033
38516SOL     OW17554   3.942   0.033   8.168
38516SOL    HW117555   3.924  -0.053   8.207
38516SOL    HW217556 -18.048   0.053   8.195
38517SOL     OW17557   2.383   4.097   1.603
38517SOL    HW117558   2.377   4.167  12.708
38517SOL    HW217559   2.319   4.032   1.631
38518SOL     OW17560   6.421   0.823   9.485
38518SOL    HW117561   6.396   0.862   9.402
38518SOL    HW217562   6.456   0.737  -1.578
38519SOL     OW17563   6.563   1.839  11.225
38519SOL    HW117564   6.619   1.799   0.252
38519SOL    HW217565   6.595   1.804 -21.976
38520SOL     OW17566   1.742   4.147   4.182
38520SOL    HW117567  23.855 -17.892   4.102
38520SOL    HW217568   1.647   4.145   4.170
38521SOL     OW17569   6.426   8.555   1.264
38521SOL    HW117570   6.520   8.570  12.295
38521SOL    HW217571   6.393   8.560 -20.905
38522SOL     OW17572   6.582   7.031   5.579
38522SOL    HW117573  17.533   7.002  -5.442
38522SOL    HW217574   6.628   7.025   5.662
38523SOL     OW17575   2.130  10.879   6.346
38523SOL    HW117576   2.159  10.888   6.255
38523SOL    HW217577 -19.989  10.964   6.367
38524SOL     OW17578   9.646   0.978   9.972
38524SOL    HW117579   9.656   0.883  -1.068
38524SOL    HW217580   9.661   1.004  -1.158
38525SOL     OW17581   2.814   6.668   8.094
38525SOL    HW117582   2.902   6.683   8.129
38525SOL    HW217583  24.907   6.629   8.008
38526SOL     OW17584   2.206  10.079   2.572
38526SOL    HW117585   2.274  -0.949   2.639
38526SOL    HW217586  13.170  -0.913  -8.433
38527SOL     OW17587   1.104   8.268   4.650
38527SOL    HW117588  45.299  19.388  15.653
38527SOL    HW217589   1.009  19.318  -6.402
38528SOL     OW17590   3.408  -0.244   7.425
38528SOL    HW117591   3.361  -0.162 -14.639
38528SOL    HW217592  14.458  10.791  -3.709
38529SOL     OW17593   6.661   3.503   2.334
38529SOL    HW117594   6.630  36.697  13.324
38529SOL    HW217595   6.590   3.438 -19.753
38530SOL     OW17596   4.314   6.061   5.357
38530SOL    HW117597   4.331 -16.057   5.271
38530SOL    HW217598   4.336   6.154   5.346
38531SOL     OW17599   8.171   2.848   5.799
38531SOL    HW117600   8.096   2.848  16.779
38531SOL    HW217601   8.142  13.838  16.915
38532SOL     OW17602   2.259   9.658   6.816
38532SOL    HW117603   2.307  -1.435   6.879
38532SOL    HW217604   2.167   9.646  -4.200
38533SOL     OW17605   8.931  10.594   5.183
38533SOL    HW117606  -2.014  10.596   5.171
38533SOL    HW217607  19.947  10.502  27.259
38534SOL     OW17608   7.231   1.042   9.411
38534SOL    HW117609   7.300   0.984   9.442
38534SOL    HW217610   7.224   1.022  20.357
38535SOL     OW17611  12.214   2.570   4.186
38535SOL    HW117612  12.196   2.664  15.227
38535SOL    HW217613 -20.956   2.534   4.258
38536SOL     OW17614  10.318  -0.190   3.042
38536SOL    HW117615  21.340  -0.225   2.955
38536SOL    HW217616  10.250  10.917   3.055
38537SOL     OW17617   0.487   5.294   5.912
38537SOL    HW117618   0.452   5.378   5.883
38537SOL    HW217619   0.572   5.288   5.870
38538SOL     OW17620   4.441   3.153   7.140
38538SOL    HW117621   4.432  14.238   7.056
38538SOL    HW217622  15.390   3.134   7.167
38539SOL     OW17623   8.405   9.687   1.668
38539SOL    HW117624  -2.655   9.731   1.585
38539SOL    HW217625 -13.582 -12.370  23.763
38540SOL     OW17626   8.226   8.876  10.819
38540SOL    HW117627   8.163   8.883  10.891
38540SOL    HW217628 -24.825   8.817 -22.266
38541SOL     OW17629  -0.564   5.959   0.091
38541SOL    HW117630  -0.541  17.007  -0.002
38541SOL    HW217631  32.615   6.019  22.214
38542SOL     OW17632   9.917   7.714   1.333
38542SOL    HW117633   9.988   7.743   1.275
38542SOL    HW217634   9.941  -3.415   1.356
38543SOL     OW17635   2.314   4.402   1.364
38543SOL    HW117636   2.263   4.439  12.331
38543SOL    HW217637 -19.805   4.440   1.443
38544SOL     OW17638   5.450   2.910  11.427
38544SOL    HW117639  16.446   2.857  11.360
38544SOL    HW217640  -5.620 -19.205   0.471
38545SOL     OW17641  10.115   4.835   7.195
38545SOL    HW117642  10.116   4.783   7.115
38545SOL    HW217643  10.025  15.907  40.320
38546SOL     OW17644   6.737  10.233   2.244
38546SOL    HW117645  -4.377  10.273   2.289
38546SOL    HW217646 -15.309  10.168  35.424
38547SOL     OW17647   4.458   9.521   1.401
38547SOL    HW117648   4.475   9.467   1.324
38547SOL    HW217649  -6.674  -1.495  -9.646
38548SOL     OW17650   2.062   3.566   9.307
38548SOL    HW117651   2.001  25.692  31.444
38548SOL    HW217652   2.067   3.478   9.343
38549SOL     OW17653   5.387   9.729   4.742
38549SOL    HW117654   5.456   9.668   4.717
38549SOL    HW217655   5.391   9.733  26.917
38550SOL     OW17656  11.004   2.449  10.188
38550SOL    HW117657  10.953   2.367  10.192
38550SOL    HW217658  11.080   2.427  10.134
38551SOL     OW17659   0.894   4.034   8.827
38551SOL    HW117660  11.861  26.155   8.873
38551SOL    HW217661   0.905   3.950  19.911
38552SOL     OW17662   8.555   5.611   2.831
38552SOL    HW117663  -2.554   5.595  13.935
38552SOL    HW217664   8.611  16.716   2.872
38553SOL     OW17665   4.939   5.147   1.658
38553SOL    HW117666  27.021   5.172   1.751
38553SOL    HW217667   4.846 -39.022   1.639
38554SOL     OW17668   6.295   3.844   3.933
38554SOL    HW117669  28.346   3.851  14.881
38554SOL    HW217670   6.388  14.906   3.931
38555SOL     OW17671   3.326   8.113   6.851
38555SOL    HW117672   3.266  -2.915   6.777
38555SOL    HW217673 -18.756   8.020   6.870
38556SOL     OW17674   4.782   5.890   8.964
38556SOL    HW117675   4.822  -5.085   8.906
38556SOL    HW217676  37.945   5.904 -13.031
38557SOL     OW17677   4.809   1.703  10.502
38557SOL    HW117678  -6.229   1.612  10.533
38557SOL    HW217679  -6.203   1.755 -11.502
38558SOL     OW17680   8.410   4.309   2.607
38558SOL    HW117681   8.410   4.216   2.583
38558SOL    HW217682   8.389   4.355  -8.514
38559SOL     OW17683  10.243   8.151   9.605
38559SOL    HW117684  10.254   8.242   9.630
38559SOL    HW217685  -0.707   8.117   9.601
38560SOL     OW17686   9.892   8.676   5.962
38560SOL    HW117687   9.912  -2.275  16.971
38560SOL    HW217688   9.828   8.690   6.033
38561SOL     OW17689  10.177   3.855   2.749
38561SOL    HW117690  21.307   3.886  13.787
38561SOL    HW217691  10.173   3.790   2.678
38562SOL     OW17692   4.518   0.305   9.430
38562SOL    HW117693   4.544   0.276 -56.720
38562SOL    HW217694   4.515   0.225 -23.741
38563SOL     OW17695   8.392   1.104   2.949
38563SOL    HW117696  30.378  12.158   2.931
38563SOL    HW217697  -2.602  -9.876   2.890
38564SOL     OW17698   0.953   5.802   5.837
38564SOL    HW117699   0.993   5.749   5.906
38564SOL    HW217700   0.988  16.930 -16.227
38565SOL     OW17701   3.231   4.535   4.889
38565SOL    HW117702   3.270  26.597   4.975
38565SOL    HW217703  36.297   4.614   4.903
38566SOL     OW17704   1.961   7.861   3.511
38566SOL    HW117705   2.000  30.027   3.512
38566SOL    HW217706  -9.019   7.807  14.604
38567SOL     OW17707   7.653   6.064   2.732
38567SOL    HW117708   7.646  -5.071 -19.341
38567SOL    HW217709  -3.453   6.088   2.667
38568SOL     OW17710   8.158   9.954   8.259
38568SOL    HW117711   8.135  10.018 -24.793
38568SOL    HW217712   8.076   9.908   8.241
38569SOL     OW17713   9.853   8.059  10.126
38569SOL    HW117714   9.943   8.050  10.096
38569SOL    HW217715  -1.236   7.997  10.072
38570SOL     OW17716   9.229   9.712   7.918
38570SOL    HW117717   9.264  20.839   7.902
38570SOL    HW217718   9.166   9.723  30.068
38571SOL     OW17719  -0.323   3.268   0.057
38571SOL    HW117720  -0.418  -7.771   0.073
38571SOL    HW217721  10.732   3.346   0.004
38572SOL     OW17722   6.623   4.445  11.415
38572SOL    HW117723   6.698   4.465  11.471
38572SOL    HW217724   6.548  -6.594   0.435
38573SOL     OW17725   7.628   5.000   0.645
38573SOL    HW117726   7.716   5.036   0.647
38573SOL    HW217727   7.571   5.077  11.680
38574SOL     OW17728   3.922   9.035  -0.381
38574SOL    HW117729  15.025   8.965  10.646
38574SOL    HW217730   3.974   9.115  10.659
38575SOL     OW17731   8.105   8.230   5.034
38575SOL    HW117732  30.134  30.388  27.090
38575SOL    HW217733   8.169   8.221   4.963
38576SOL     OW17734   6.387   7.136   9.579
38576SOL    HW117735   6.415   7.105   9.665
38576SOL    HW217736  39.575   7.196  20.591
38577SOL     OW17737   3.421   5.934   4.767
38577SOL    HW117738  14.531   5.872   4.783
38577SOL    HW217739   3.395   5.919   4.677
38578SOL     OW17740   0.433   4.333   0.976
38578SOL    HW117741   0.405  -6.730   1.065
38578SOL    HW217742   0.410  -6.783  23.003
38579SOL     OW17743  10.668   5.006   1.568
38579SOL    HW117744 -44.439   5.020   1.542
38579SOL    HW217745  -0.397   5.089   1.610
38580SOL     OW17746   2.032   2.322   4.332
38580SOL    HW117747   1.976   2.381   4.382
38580SOL    HW217748   2.085  -8.763  -6.642
38581SOL     OW17749   4.009   8.320   3.908
38581SOL    HW117750   3.946   8.322   3.837
38581SOL    HW217751  -7.044   8.403   3.955
38582SOL     OW17752   3.985   3.624   2.714
38582SOL    HW117753   4.038   3.605   2.637
38582SOL    HW217754   3.962   3.537  -8.290
38583SOL     OW17755   2.828   9.581   3.406
38583SOL    HW117756  13.961   9.562   3.416
38583SOL    HW217757  24.880   9.530   3.330
38584SOL     OW17758   1.385   0.191   7.126
38584SOL    HW117759   1.430   0.111   7.099
38584SOL    HW217760  -9.696   0.223   7.046
38585SOL     OW17761   2.297   9.109   0.025
38585SOL    HW117762   2.363  -1.996   0.048
38585SOL    HW217763   2.316  20.170  22.013
38586SOL     OW17764   6.663   1.096   2.991
38586SOL    HW117765  28.647  -9.942   2.984
38586SOL    HW217766  17.725   1.173   3.044
38587SOL     OW17767  10.034   4.175   0.756
38587SOL    HW117768  10.084  26.181  11.832
38587SOL    HW217769  21.139  37.364   0.748
38588SOL     OW17770   6.555   9.240   7.871
38588SOL    HW117771  17.599  20.309   7.780
38588SOL    HW217772   6.469   9.199   7.879
38589SOL     OW17773   1.818   6.177   5.952
38589SOL    HW117774   1.879   6.106  16.969
38589SOL    HW217775  12.880   6.199   6.042
38590SOL     OW17776   1.718   1.547   1.079
38590SOL    HW117777   1.665   1.493   1.021
38590SOL    HW217778   1.658   1.575   1.148
38591SOL     OW17779   2.458   0.754   4.690
38591SOL    HW117780   2.410   0.767   4.609
38591SOL    HW217781   2.444   0.662   4.713
38592SOL     OW17782   4.727   8.403   2.480
38592SOL    HW117783   4.749   8.458  13.444
38592SOL    HW217784   4.706   8.465   2.550
38593SOL     OW17785   1.817   4.919   9.251
38593SOL    HW117786   1.894   4.911   9.307
38593SOL    HW217787 -20.226   4.936   9.163
38594SOL     OW17788   2.563   5.042   7.476
38594SOL    HW117789   2.525   5.004  -3.485
38594SOL    HW217790   2.567   4.970   7.413
38595SOL     OW17791   9.229  10.932   5.331
38595SOL    HW117792  -1.880  10.870   5.311
38595SOL    HW217793   9.270  10.898   5.410
38596SOL     OW17794   5.287   4.973  10.325
38596SOL    HW117795  -5.802 -17.025  10.338
38596SOL    HW217796   5.359   4.998  10.267
38597SOL     OW17797   1.809   8.019   5.703
38597SOL    HW117798  12.940 -36.121   5.679
38597SOL    HW217799  -9.281   8.044   5.626
38598SOL     OW17800   8.382   6.647   3.015
38598SOL    HW117801   8.394  17.767   2.964
38598SOL    HW217802  -2.585   6.590  36.107
38599SOL     OW17803   5.052   2.965   9.967
38599SOL    HW117804  16.075   2.945  10.059
38599SOL    HW217805  16.004   2.977   9.929
38600SOL     OW17806  10.348   6.861   9.711
38600SOL    HW117807  10.422   6.893 -12.317
38600SOL    HW217808  10.277   6.852 -12.304
38601SOL     OW17809  10.912   5.824   2.958
38601SOL    HW117810  10.931   5.809   2.865
38601SOL    HW217811  10.880   5.914  14.001
38602SOL     OW17812   3.294   7.036   6.484
38602SOL    HW117813  25.286 -15.014   6.512
38602SOL    HW217814  25.433  -3.938  28.599
38603SOL     OW17815   0.289   9.978   7.912
38603SOL    HW117816   0.200   9.985   7.879
38603SOL    HW217817   0.287 -23.216   7.971
38604SOL     OW17818   3.257   6.593  10.457
38604SOL    HW117819   3.332   6.562  10.406
38604SOL    HW217820   3.268   6.552  10.543
38605SOL     OW17821   3.981   2.918   6.542
38605SOL    HW117822   3.943   2.985   6.599
38605SOL    HW217823   4.041  14.005   6.485
38606SOL     OW17824  10.209   2.981   7.018
38606SOL    HW117825  10.161   2.924   7.078
38606SOL    HW217826  10.142   3.013  40.076
38607SOL     OW17827   7.241   7.579   1.940
38607SOL    HW117828   7.281   7.492  12.982
38607SOL    HW217829   7.158   7.565  12.935
38608SOL     OW17830  10.844   0.597   0.741
38608SOL    HW117831  -0.221   0.611   0.649
38608SOL    HW217832 -22.283   0.683   0.781
38609SOL     OW17833   3.699   2.668   8.287
38609SOL    HW117834   3.772   2.640 -24.887
38609SOL    HW217835   3.707   2.764   8.289
38610SOL     OW17836   7.150   8.482   8.494
38610SOL    HW117837   7.101   8.455   8.416
38610SOL    HW217838   7.230   8.430   8.491
38611SOL     OW17839   3.913   7.940   1.580
38611SOL    HW117840   4.005   7.953   1.601
38611SOL    HW217841   3.892   7.853   1.615
38612SOL     OW17842   7.816   2.409   4.069
38612SOL    HW117843   7.808   2.429   3.976
38612SOL    HW217844  41.006   2.466   4.099
38613SOL     OW17845   6.419   8.465   9.533
38613SOL    HW117846   6.511 -35.677   9.554
38613SOL    HW217847   6.371   8.534   9.579
38614SOL     OW17848   8.253  -1.824   5.815
38614SOL    HW117849   8.274  31.279   5.907
38614SOL    HW217850   8.202  -1.901  -5.251
38615SOL     OW17851   3.962   8.303  -0.020
38615SOL    HW117852  15.026   8.264  10.936
38615SOL    HW217853   3.908   8.379  -0.044
38616SOL     OW17854  11.077   5.140   4.765
38616SOL    HW117855  11.110   5.204   4.829
38616SOL    HW217856 -11.055  -5.847  59.902
38617SOL     OW17857   6.773   1.456   9.834
38617SOL    HW117858   6.710  12.568   9.836
38617SOL    HW217859  39.951  12.513   9.907
38618SOL     OW17860   6.756   3.023   7.572
38618SOL    HW117861  39.801   3.063   7.619
38618SOL    HW217862  39.915  14.005   7.637
38619SOL     OW17863   8.595   5.724   8.949
38619SOL    HW117864  19.723   5.734   8.983
38619SOL    HW217865  30.617  -5.288  -2.019
38620SOL     OW17866   7.899   8.163   1.938
38620SOL    HW117867   7.950   8.202   1.867
38620SOL    HW217868   7.868   8.080   1.903
38621SOL     OW17869   5.926   5.879   1.376
38621SOL    HW117870   5.918  -5.211  -9.583
38621SOL    HW217871  16.941 -16.262   1.307
38622SOL     OW17872   6.135   9.654   7.379
38622SOL    HW117873  17.226   9.735  18.415
38622SOL    HW217874   6.118  -1.400  18.511
38623SOL     OW17875   7.068   6.692   6.841
38623SOL    HW117876  18.081   6.634  28.848
38623SOL    HW217877  18.116   6.634   6.917
38624SOL     OW17878   5.099   0.149   2.915
38624SOL    HW117879   5.190  11.210  13.972
38624SOL    HW217880  16.142  11.103  13.910
38625SOL     OW17881  10.513  10.173   5.530
38625SOL    HW117882  10.556  10.128   5.602
38625SOL    HW217883 -11.559  10.266   5.551
38626SOL     OW17884  10.906   6.088   4.882
38626SOL    HW117885  10.814   6.071   4.861
38626SOL    HW217886  10.954   6.063   4.803
38627SOL     OW17887   1.147   8.952   0.719
38627SOL    HW117888   1.104  -2.025  33.779
38627SOL    HW217889  -9.815 -24.195   0.670
38628SOL     OW17890   9.652   7.201   8.723
38628SOL    HW117891   9.740  -3.856  30.767
38628SOL    HW217892   9.643  -3.744   8.718
38629SOL     OW17893   7.161  10.357   4.715
38629SOL    HW117894   7.097  10.426   4.730
38629SOL    HW217895   7.183  10.325   4.802
38630SOL     OW17896   2.297   7.372   5.277
38630SOL    HW117897   2.298  40.551 -16.728
38630SOL    HW217898  13.365  -3.751   5.314
38631SOL     OW17899   5.567   4.449   3.839
38631SOL    HW117900   5.622  15.478  36.881
38631SOL    HW217901   5.518   4.530  -7.216
38632SOL     OW17902   4.429   8.885   1.540
38632SOL    HW117903   4.491   8.815   1.519
38632SOL    HW217904   4.460   8.921   1.623
38633SOL     OW17905   7.191   1.167   6.145
38633SOL    HW117906 -36.933   1.177  28.313
38633SOL    HW217907   7.156   1.254  17.163
38634SOL     OW17908   6.211   2.911  -0.575
38634SOL    HW117909  -4.762   2.890  21.570
38634SOL    HW217910   6.133   2.933 -11.564
38635SOL     OW17911   7.960   7.240   5.681
38635SOL    HW117912  19.079  -3.841  27.792
38635SOL    HW217913   7.889   7.193   5.726
38636SOL     OW17914  10.670   8.931   5.574
38636SOL    HW117915  10.758   8.894   5.578
38636SOL    HW217916  10.616   8.868   5.621
38637SOL     OW17917  10.065   8.352   4.466
38637SOL    HW117918   9.992  19.437   4.508
38637SOL    HW217919  10.080  19.315   4.521
38638SOL     OW17920   5.837   1.399   3.599
38638SOL    HW117921  -5.199   1.309   3.568
38638SOL    HW217922  27.824   1.423  -7.445
38639SOL     OW17923   3.405   8.088   2.933
38639SOL    HW117924  14.426   8.049   3.018
38639SOL    HW217925   3.467 -14.051  24.970
38640SOL     OW17926   6.994   9.678  10.130
38640SOL    HW117927   6.898   9.682 -11.946
38640SOL    HW217928   7.014   9.659  10.039
38641SOL     OW17929   0.803   2.133  10.949
38641SOL    HW117930   0.806   2.131  11.044
38641SOL    HW217931   0.847   2.215  10.925
38642SOL     OW17932   6.854  11.568   6.064
38642SOL    HW117933 -15.211  11.486   6.016
38642SOL    HW217934  17.861   0.500  17.189
38643SOL     OW17935   5.492   8.395   3.041
38643SOL    HW117936   5.477   8.409   2.948
38643SOL    HW217937  16.619   8.355   3.045
38644SOL     OW17938  10.419   7.431   7.832
38644SOL    HW117939  10.419   7.519   7.795
38644SOL    HW217940  10.344   7.430  -3.148
38645SOL     OW17941   8.786   6.540   4.119
38645SOL    HW117942   8.712   6.523   4.062
38645SOL    HW217943   8.811   6.631   4.099
38646SOL     OW17944   1.023   3.491  10.957
38646SOL    HW117945   0.933   3.515  10.936
38646SOL    HW217946   1.049  14.471  10.886
38647SOL     OW17947  -0.553   4.493   4.519
38647SOL    HW117948  10.491   4.459   4.609
38647SOL    HW217949  -0.468   4.536   4.506
38648SOL     OW17950   9.933   3.697   8.754
38648SOL    HW117951 -23.161   3.685   8.846
38648SOL    HW217952   9.951   3.612   8.713
38649SOL     OW17953   2.202   6.417   8.734
38649SOL    HW117954   2.158   6.343  -2.263
38649SOL    HW217955   2.239   6.467  19.846
38650SOL     OW17956   7.627   3.429   8.549
38650SOL    HW117957   7.700   3.405  19.646
38650SOL    HW217958  18.589   3.414   8.602
38651SOL     OW17959   0.381   9.763   7.688
38651SOL    HW117960   0.304 -12.295 -25.377
38651SOL    HW217961  11.483  20.763   7.750
38652SOL     OW17962   8.194  10.948   9.845
38652SOL    HW117963   8.112  10.962   9.893
38652SOL    HW217964  30.301  11.036 -23.299
38653SOL     OW17965   5.550   0.482   7.819
38653SOL    HW117966   5.496   0.553  40.972
38653SOL    HW217967   5.595   0.447   7.896
38654SOL     OW17968   8.147   3.778   4.983
38654SOL    HW117969   8.216  36.851  16.071
38654SOL    HW217970  52.318 -18.329   4.892
38655SOL     OW17971  -0.752   8.811  10.243
38655SOL    HW117972  10.286   8.907  10.247
38655SOL    HW217973  10.198   8.785  10.266
38656SOL     OW17974   8.231   5.623  -0.238
38656SOL    HW117975  19.344  27.706  21.780
38656SOL    HW217976   8.158   5.587  -0.290
38657SOL     OW17977   5.527   5.897   2.967
38657SOL    HW117978   5.456   5.858   3.019
38657SOL    HW217979   5.488   5.913  -8.158
38658SOL     OW17980  11.117  10.598   3.676
38658SOL    HW117981  11.051  10.529   3.667
38658SOL    HW217982   0.161  10.552   3.674
38659SOL     OW17983   9.249   5.402   0.544
38659SOL    HW117984   9.187  16.501   0.587
38659SOL    HW217985   9.317  27.467   0.609
38660SOL     OW17986  10.359   4.122   8.232
38660SOL    HW117987  10.419  -6.876   8.170
38660SOL    HW217988  10.293  -6.960  19.217
38661SOL     OW17989  10.708   5.028   5.725
38661SOL    HW117990  10.765   5.021   5.801
38661SOL    HW217991  10.694   5.122   5.714
38662SOL     OW17992   8.144   3.919   7.370
38662SOL    HW117993   8.122  37.107   7.307
38662SOL    HW217994   8.087  14.886  18.386
38663SOL     OW17995   2.215   3.728   0.550
38663SOL    HW117996   2.133 -18.353   0.500
38663SOL    HW217997   2.266  -7.240   0.510
38664SOL     OW17998  10.571   2.302   9.404
38664SOL    HW117999  10.490  -8.686  -1.632
38664SOL    HW218000  10.543   2.215  -1.662
38665SOL     OW18001   2.321   1.171   9.686
38665SOL    HW118002  13.434  12.272 -12.401
38665SOL    HW218003   2.349  12.149   9.753
38666SOL     OW18004   6.933   2.778  10.862
38666SOL    HW118005   7.018   2.817  10.840
38666SOL    HW218006 -15.163  13.757  10.790
38667SOL     OW18007   2.414   9.039   1.450
38667SOL    HW118008   2.438 -35.212   1.448
38667SOL    HW218009   2.442  -1.966  23.444
38668SOL     OW18010   7.703   7.672   2.872
38668SOL    HW118011  -3.312   7.618   2.947
38668SOL    HW218012  18.776   7.623  24.876
38669SOL     OW18013   6.581   5.224   2.829
38669SOL    HW118014   6.617   5.295 -30.237
38669SOL    HW218015   6.486   5.233   2.839
38670SOL     OW18016   3.931   7.040   5.422
38670SOL    HW118017  25.943   7.009   5.361
38670SOL    HW218018   3.979   6.961   5.445
38671SOL     OW18019   6.739  -0.751   3.393
38671SOL    HW118020  17.783  -0.839   3.431
38671SOL    HW218021  28.729  32.396   3.412
38672SOL     OW18022  10.111   7.294   4.600
38672SOL    HW118023  10.192   7.273   4.646
38672SOL    HW218024  10.072   7.209   4.579
38673SOL     OW18025   2.765   0.342  -0.473
38673SOL    HW118026 -19.260   0.369  10.642
38673SOL    HW218027   2.710  11.458  -0.491
38674SOL     OW18028  10.711   8.910   5.282
38674SOL    HW118029  10.699 -13.146  16.413
38674SOL    HW218030  -0.249   8.955  16.295
38675SOL     OW18031   3.825   6.187   6.560
38675SOL    HW118032   3.791   6.217   6.476
38675SOL    HW218033   3.802   6.257   6.622
38676SOL     OW18034   3.339   5.418   3.962
38676SOL    HW118035   3.404   5.449   4.025
38676SOL    HW218036   3.288   5.496 -18.140
38677SOL     OW18037   0.173   3.461   5.472
38677SOL    HW118038   0.221   3.443   5.553
38677SOL    HW218039   0.082   3.469   5.499
38678SOL     OW18040   4.802   8.233   9.580
38678SOL    HW118041   4.837  19.191  31.695
38678SOL    HW218042   4.707   8.225   9.591
38679SOL     OW18043   4.798   5.691   3.405
38679SOL    HW118044  -6.224   5.725   3.493
38679SOL    HW218045   4.870  16.764  14.391
38680SOL     OW18046   6.845   0.253   5.477
38680SOL    HW118047   6.795   0.303  27.621
38680SOL    HW218048  17.865   0.296   5.394
38681SOL     OW18049   9.966   7.838   8.562
38681SOL    HW118050   9.921  29.945   8.482
38681SOL    HW218051 -12.044   7.779   8.531
38682SOL     OW18052   4.041   5.990  10.098
38682SOL    HW118053 -17.946   5.998  10.123
38682SOL    HW218054   4.013  -5.134  21.173
38683SOL     OW18055   7.968  10.024   4.962
38683SOL    HW118056   8.058  10.031  15.969
38683SOL    HW218057  18.964  10.101  15.966
38684SOL     OW18058   4.849   9.563   9.297
38684SOL    HW118059   4.841   9.470   9.321
38684SOL    HW218060   4.880   9.605   9.377
38685SOL     OW18061   3.845   9.177   8.818
38685SOL    HW118062   3.831   9.256  -2.169
38685SOL    HW218063 -29.181  20.195   8.831
38686SOL     OW18064   3.106   3.638   6.808
38686SOL    HW118065  -7.961  14.600   6.857
38686SOL    HW218066   3.147   3.603  28.807
38687SOL     OW18067   2.758   8.684   1.148
38687SOL    HW118068   2.803  30.684   1.119
38687SOL    HW218069   2.677   8.686   1.098
38688SOL     OW18070   8.712  10.890   4.459
38688SOL    HW118071   8.646  10.849   4.514
38688SOL    HW218072   8.781  10.917   4.520
38689SOL     OW18073   1.143   3.417   0.785
38689SOL    HW118074   1.084   3.401   0.711
38689SOL    HW218075   1.212   3.473   0.748
38690SOL     OW18076   6.260   7.159   6.195
38690SOL    HW118077  17.285  18.269   6.258
38690SOL    HW218078   6.208   7.086   6.228
38691SOL     OW18079   4.623  -0.380   9.869
38691SOL    HW118080   4.582 -22.416  20.834
38691SOL    HW218081   4.715  32.764   9.863
38692SOL     OW18082   0.156   9.640   8.621
38692SOL    HW118083   0.098   9.653   8.695
38692SOL    HW218084   0.179   9.729   8.593
38693SOL     OW18085   4.875   8.459   3.112
38693SOL    HW118086   4.943   8.507  14.104
38693SOL    HW218087   4.866   8.506   3.195
38694SOL     OW18088   5.194   2.563   2.454
38694SOL    HW118089   5.274   2.540   2.503
38694SOL    HW218090   5.226   2.602   2.373
38695SOL     OW18091  10.104   8.460  12.415
38695SOL    HW118092  10.017   8.486  -9.694
38695SOL    HW218093  -0.899   8.539 -53.782
38696SOL     OW18094   5.490   6.251   1.747
38696SOL    HW118095  27.599  17.200   1.756
38696SOL    HW218096 -16.512  28.383   1.767
38697SOL     OW18097   5.444   1.896   9.583
38697SOL    HW118098   5.359   1.853   9.588
38697SOL    HW218099  16.485   1.937  20.536
38698SOL     OW18100   9.369   6.977   2.504
38698SOL    HW118101   9.297   7.037   2.520
38698SOL    HW218102   9.406   7.005   2.420
38699SOL     OW18103   0.491   7.212   3.528
38699SOL    HW118104   0.397   7.205  -7.496
38699SOL    HW218105  11.539   7.213  -7.607
38700SOL     OW18106   5.504   3.701   2.026
38700SOL    HW118107   5.481 -18.288   2.048
38700SOL    HW218108   5.551   3.669  -8.937
38701SOL     OW18109   9.607  10.267   4.772
38701SOL    HW118110   9.607  10.191  37.833
38701SOL    HW218111   9.520  10.306   4.760
38702SOL     OW18112   4.628   8.488   6.154
38702SOL    HW118113   4.561  -2.571   6.220
38702SOL    HW218114   4.708   8.447   6.189
38703SOL     OW18115  13.179   9.062   4.796
38703SOL    HW118116  -8.893  20.179   4.853
38703SOL    HW218117  -8.909   9.098   4.708
38704SOL     OW18118   9.271   5.993   7.109
38704SOL    HW118119  -1.696  28.082  18.087
38704SOL    HW218120   9.210  17.103  18.126
38705SOL     OW18121   4.358   7.931   4.219
38705SOL    HW118122   4.339   7.973  48.460
38705SOL    HW218123  26.504   7.986  59.376
38706SOL     OW18124   2.908   7.238   2.412
38706SOL    HW118125   2.841  -3.738   2.437
38706SOL    HW218126   2.982   7.292   2.384
38707SOL     OW18127   6.959   8.575  10.468
38707SOL    HW118128   7.023  41.683  10.539
38707SOL    HW218129   7.000   8.534  10.392
38708SOL     OW18130   1.348   6.305   9.660
38708SOL    HW118131   1.350   6.210   9.671
38708SOL    HW218132   1.301   6.338  -1.303
38709SOL     OW18133   3.972   1.656   3.975
38709SOL    HW118134   3.978   1.600   3.897
38709SOL    HW218135  26.111   1.614  -7.002
38710SOL     OW18136  10.124   3.078   5.055
38710SOL    HW118137  10.118  14.176 -16.948
38710SOL    HW218138  10.106  25.214   4.980
38711SOL     OW18139   4.101   4.807   5.854
38711SOL    HW118140  -6.985   4.730   5.887
38711SOL    HW218141 -18.041  26.958   5.864
38712SOL     OW18142   6.106   1.883   4.696
38712SOL    HW118143   6.095  13.015   4.673
38712SOL    HW218144   6.016 -20.229   4.705
38713SOL     OW18145   4.781   9.198   7.151
38713SOL    HW118146   4.787   9.113  18.148
38713SOL    HW218147  15.836   9.179   7.244
38714SOL     OW18148   3.532  -1.716   1.682
38714SOL    HW118149   3.606  20.333   1.630
38714SOL    HW218150   3.556  20.452  -9.330
38715SOL     OW18151   9.907   0.734   6.772
38715SOL    HW118152   9.833   0.719   6.712
38715SOL    HW218153   9.902   0.662   6.834
38716SOL     OW18154   3.131   5.816   6.084
38716SOL    HW118155   3.131  -5.212   6.179
38716SOL    HW218156   3.160  -5.139   6.049
38717SOL     OW18157   2.182   8.745   8.484
38717SOL    HW118158   2.162   8.709  -2.469
38717SOL    HW218159  13.177  30.908   8.481
38718SOL     OW18160   1.037   2.256   4.760
38718SOL    HW118161   0.996   2.321  -6.223
38718SOL    HW218162   1.000   2.274  -6.367
38719SOL     OW18163   1.125   4.522   7.079
38719SOL    HW118164   1.152   4.439  18.080
38719SOL    HW218165   1.032   4.530  40.175
38720SOL     OW18166   8.495  10.411   6.596
38720SOL    HW118167   8.483  10.316  28.681
38720SOL    HW218168  52.719  10.423  39.646
38721SOL     OW18169   2.621   2.095   6.285
38721SOL    HW118170  13.655   2.133   6.372
38721SOL    HW218171  13.734   2.141 -15.836
38722SOL     OW18172   3.801   1.650   1.522
38722SOL    HW118173  -7.157  -9.439   1.524
38722SOL    HW218174  14.773   1.585   1.537
38723SOL     OW18175   1.708   6.412   7.059
38723SOL    HW118176   1.691  -4.637  18.193
38723SOL    HW218177  -9.370  -4.706  18.060
38724SOL     OW18178   3.661   4.080   0.294
38724SOL    HW118179   3.699   4.167   0.306
38724SOL    HW218180   3.617   4.085   0.209
38725SOL     OW18181   0.535   1.989   1.436
38725SOL    HW118182   0.536  12.960  -9.671
38725SOL    HW218183   0.552   1.942  -9.522
38726SOL     OW18184   8.700   2.887   0.569
38726SOL    HW118185  -2.296   2.811   0.608
38726SOL    HW218186   8.676 -30.177   0.644
38727SOL     OW18187   9.181   5.168   7.237
38727SOL    HW118188  20.253  -5.784  18.297
38727SOL    HW218189  20.141 -16.896   7.185
38728SOL     OW18190   0.027   0.880   8.294
38728SOL    HW118191   0.061  22.897 -24.889
38728SOL    HW218192   0.037   0.834  41.497
38729SOL     OW18193   1.203   0.408  10.505
38729SOL    HW118194  12.148   0.400  10.518
38729SOL    HW218195   1.240   0.408  10.593
38730SOL     OW18196   0.459   5.935   0.004
38730SOL    HW118197   0.470  -5.020  11.088
38730SOL    HW218198   0.544   5.917  -0.035
38731SOL     OW18199   9.662   4.137  -0.384
38731SOL    HW118200   9.668   4.110  10.747
38731SOL    HW218201   9.569  -6.913  -0.406
38732SOL     OW18202   6.141   1.146   2.431
38732SOL    HW118203  17.088   1.136   2.408
38732SOL    HW218204   6.144  -9.813   2.483
38733SOL     OW18205   9.964   8.412   7.359
38733SOL    HW118206  10.055   8.394   7.334
38733SOL    HW218207   9.912   8.367   7.292
38734SOL     OW18208   0.034   5.607  -0.258
38734SOL    HW118209  11.078   5.556  21.740
38734SOL    HW218210   0.045 -16.381  10.753
38735SOL     OW18211  11.529   7.460   1.465
38735SOL    HW118212  11.471  29.572   1.396
38735SOL    HW218213 -10.462   7.487   1.437
38736SOL     OW18214   2.706   9.754   2.927
38736SOL    HW118215   2.787   9.765   2.878
38736SOL    HW218216   2.699   9.834   2.979
38737SOL     OW18217   7.598   5.048  -0.511
38737SOL    HW118218   7.647  -6.073  -0.521
38737SOL    HW218219   7.645  -5.928  21.514
38738SOL     OW18220   6.128   7.343   4.927
38738SOL    HW118221   6.131  18.346   4.838
38738SOL    HW218222   6.038   7.327   4.956
38739SOL     OW18223   8.709   6.123   4.911
38739SOL    HW118224   8.675   6.099   4.997
38739SOL    HW218225   8.773  17.232  15.968
38740SOL     OW18226   1.548   8.981  10.443
38740SOL    HW118227   1.613   9.026  10.389
38740SOL    HW218228   1.471 -13.105  10.387
38741SOL     OW18229   3.347   2.378   0.909
38741SOL    HW118230   3.279  24.523  11.941
38741SOL    HW218231  47.533   2.362   0.819
38742SOL     OW18232   0.206   9.005  10.769
38742SOL    HW118233   0.143   9.036  10.834
38742SOL    HW218234   0.159   9.012  10.685
38743SOL     OW18235   4.637   6.666   2.515
38743SOL    HW118236  -6.481   6.704  -8.485
38743SOL    HW218237   4.708   6.691 -19.505
38744SOL     OW18238   7.501  10.806   9.619
38744SOL    HW118239  18.584  10.854   9.689
38744SOL    HW218240  -3.498  10.839   9.539
38745SOL     OW18241   3.375  11.482  10.305
38745SOL    HW118242   3.316  11.535  10.251
38745SOL    HW218243   3.323 -10.620  10.382
38746SOL     OW18244   8.727   7.749   9.596
38746SOL    HW118245 -13.336   7.680   9.532
38746SOL    HW218246   8.659   7.803  31.635
38747SOL     OW18247   1.046   7.488   0.108
38747SOL    HW118248   1.058   7.582  11.133
38747SOL    HW218249   0.977   7.483   0.174
38748SOL     OW18250   8.586   2.534   3.296
38748SOL    HW118251   8.548   2.596   3.358
38748SOL    HW218252   8.659   2.582   3.256
38749SOL     OW18253   6.692   9.071   8.626
38749SOL    HW118254   6.728  20.149 -35.612
38749SOL    HW218255  -4.279   9.083   8.692
38750SOL     OW18256   2.293  10.865   8.285
38750SOL    HW118257   2.306  10.954  41.373
38750SOL    HW218258  13.347  -0.170   8.380
38751SOL     OW18259  11.792   4.784   2.045
38751SOL    HW118260   0.660   4.761   2.042
38751SOL    HW218261 -10.266  15.850   1.955
38752SOL     OW18262   4.680   1.457   5.610
38752SOL    HW118263 -17.400  12.565  -5.496
38752SOL    HW218264   4.598   1.409   5.598
38753SOL     OW18265   0.966   9.278   7.778
38753SOL    HW118266  11.992   9.358  -3.313
38753SOL    HW218267   0.986  -1.828 -14.366
38754SOL     OW18268   7.551   5.770   1.921
38754SOL    HW118269 -14.503   5.682  -9.148
38754SOL    HW218270 -14.481  27.860   2.004
38755SOL     OW18271   8.377   9.748   8.337
38755SOL    HW118272 -24.811   9.806   8.306
38755SOL    HW218273  19.375   9.695   8.406
38756SOL     OW18274   4.906   4.261   2.753
38756SOL    HW118275 -17.200   4.325   2.820
38756SOL    HW218276  -6.045   4.237   2.777
38757SOL     OW18277   0.150   8.657   3.959
38757SOL    HW118278   0.193   8.624   3.881
38757SOL    HW218279   0.202   8.732   3.986
38758SOL     OW18280   0.224   7.927   2.863
38758SOL    HW118281   0.240   7.840   2.900
38758SOL    HW218282   0.244 -36.241   2.770
38759SOL     OW18283   1.418   3.226   6.073
38759SOL    HW118284   1.384   3.309   6.107
38759SOL    HW218285   1.512  -7.808   6.086
38760SOL     OW18286  -0.997  10.265   7.122
38760SOL    HW118287  21.104  10.202   7.190
38760SOL    HW218288  -1.083  10.240  -3.949
38761SOL     OW18289   6.653   1.089   8.271
38761SOL    HW118290   6.579   1.053  -2.719
38761SOL    HW218291 -15.403  12.210   8.318
38762SOL     OW18292   7.483   8.818   5.615
38762SOL    HW118293   7.509   8.816   5.522
38762SOL    HW218294   7.389   8.834  -5.427
38763SOL     OW18295   1.990   5.817   3.023
38763SOL    HW118296  12.948   5.843   2.980
38763SOL    HW218297  -8.989   5.801  36.070
38764SOL     OW18298   3.390   7.603   1.011
38764SOL    HW118299   3.462   7.664  12.068
38764SOL    HW218300  25.454   7.608   0.917
38765SOL     OW18301   2.754   8.005   4.676
38765SOL    HW118302  13.722  -2.984   4.714
38765SOL    HW218303   2.719   7.971 -17.485
38766SOL     OW18304   1.214   1.689   0.792
38766SOL    HW118305   1.119   1.702   0.792
38766SOL    HW218306   1.239   1.697   0.884
38767SOL     OW18307   8.124   6.035   3.964
38767SOL    HW118308  -2.872   6.099   4.020
38767SOL    HW218309 -13.965   5.957   4.018
38768SOL     OW18310   1.572   1.361   3.729
38768SOL    HW118311   1.580   1.455   3.714
38768SOL    HW218312   1.527  -9.686  14.853
38769SOL     OW18313   3.620  10.018  11.861
38769SOL    HW118314  14.668  10.073   0.900
38769SOL    HW218315   3.693 -34.202   0.828
38770SOL     OW18316  10.451   3.924   6.884
38770SOL    HW118317  10.498   3.969  17.993
38770SOL    HW218318  -0.575   3.831   6.901
38771SOL     OW18319   2.640   1.281   3.903
38771SOL    HW118320   2.632  -9.722  -7.225
38771SOL    HW218321   2.553  -9.746  14.982
38772SOL     OW18322   6.147   4.940  11.559
38772SOL    HW118323   6.172  -6.152  11.483
38772SOL    HW218324   6.154 -17.200   0.593
38773SOL     OW18325   5.391   3.038   2.246
38773SOL    HW118326  16.352   3.092  -8.802
38773SOL    HW218327   5.403   2.999   2.159
38774SOL     OW18328   9.418   1.611   7.323
38774SOL    HW118329   9.466   1.651   7.396
38774SOL    HW218330   9.445   1.519   7.324
38775SOL     OW18331   4.822  10.962  10.877
38775SOL    HW118332   4.774 -22.191  10.952
38775SOL    HW218333   4.756  10.969  10.808
38776SOL     OW18334   9.829   3.536   7.003
38776SOL    HW118335   9.915  36.677   6.969
38776SOL    HW218336  20.879   3.538  18.138
38777SOL     OW18337   4.056  -1.026   8.299
38777SOL    HW118338  15.166  -1.001 -13.840
38777SOL    HW218339   4.059  21.119  19.408
38778SOL     OW18340   8.180  10.049   9.770
38778SOL    HW118341  19.163  10.126   9.775
38778SOL    HW218342   8.185 -12.050   9.676
38779SOL     OW18343   1.511   7.623   9.184
38779SOL    HW118344  12.499  -3.492   9.212
38779SOL    HW218345  34.621   7.624 -12.990
38780SOL     OW18346   5.575   2.400   6.407
38780SOL    HW118347   5.560   2.477  17.393
38780SOL    HW218348   5.549   2.426  17.535
38781SOL     OW18349   7.507   3.415   8.075
38781SOL    HW118350   7.445   3.487   8.087
38781SOL    HW218351   7.556   3.413  19.197
38782SOL     OW18352   6.217   4.422  10.261
38782SOL    HW118353 -15.886   4.345  10.209
38782SOL    HW218354 -15.940   4.440  10.313
38783SOL     OW18355   2.800   5.447   8.766
38783SOL    HW118356 -19.335   5.504 -24.299
38783SOL    HW218357   2.756   5.445  19.720
38784SOL     OW18358  10.837   0.624   6.853
38784SOL    HW118359  10.865  33.825   6.893
38784SOL    HW218360  10.910  11.603   6.870
38785SOL     OW18361  11.198   3.600   4.196
38785SOL    HW118362  11.125  14.656   4.256
38785SOL    HW218363   0.159   3.505  15.224
38786SOL     OW18364   4.977   9.978   2.309
38786SOL    HW118365  -6.031  10.068   2.312
38786SOL    HW218366   5.032  -1.109  -8.669
38787SOL     OW18367   6.271   2.574   2.828
38787SOL    HW118368  -4.806   2.660   2.807
38787SOL    HW218369  -4.706  13.596  13.798
38788SOL     OW18370   7.066   0.640   4.590
38788SOL    HW118371   7.093   0.604   4.505
38788SOL    HW218372   7.146   0.678   4.626
38789SOL     OW18373   2.847   0.729   8.918
38789SOL    HW118374   2.904  11.837   8.954
38789SOL    HW218375   2.779   0.777   8.870
38790SOL     OW18376   1.346   6.243   8.583
38790SOL    HW118377   1.343  -4.796  -2.361
38790SOL    HW218378  23.361   6.177   8.557
38791SOL     OW18379   3.364  10.552   5.369
38791SOL    HW118380   3.309  10.551   5.448
38791SOL    HW218381  25.415  10.475   5.320
38792SOL     OW18382   0.506   6.829   2.045
38792SOL    HW118383   0.542   6.747   2.078
38792SOL    HW218384   0.489   6.812  24.031
38793SOL     OW18385   6.639   7.916   1.779
38793SOL    HW118386   6.560  18.913   1.812
38793SOL    HW218387  39.730   7.956   1.696
38794SOL     OW18388  10.327   7.035   9.482
38794SOL    HW118389  10.326   6.987   9.565
38794SOL    HW218390  10.234  18.086   9.461
38795SOL     OW18391   4.807   9.522   1.755
38795SOL    HW118392   4.745   9.583  12.754
38795SOL    HW218393  -6.153   9.573  -9.272
38796SOL     OW18394   1.580   6.891  -1.158
38796SOL    HW118395   1.549   6.972  31.920
38796SOL    HW218396   1.628   6.920  -1.080
38797SOL     OW18397   0.481  10.330   4.036
38797SOL    HW118398   0.404  10.328   4.093
38797SOL    HW218399   0.448  10.299   3.951
38798SOL     OW18400   8.846  10.022   4.606
38798SOL    HW118401   8.803  -1.078   4.667
38798SOL    HW218402  19.977  10.025  -6.405
38799SOL     OW18403   1.581   4.738   6.544
38799SOL    HW118404   1.604  15.755   6.454
38799SOL    HW218405  23.570   4.708  -4.486
38800SOL     OW18406   8.582   8.978   5.141
38800SOL    HW118407  19.588   8.997   5.054
38800SOL    HW218408   8.663   9.030   5.147
38801SOL     OW18409   0.033   3.596  13.311
38801SOL    HW118410  -0.043   3.583  13.367
38801SOL    HW218411   0.109   3.585 -30.789
38802SOL     OW18412   7.256   6.853   4.639
38802SOL    HW118413   7.248   6.781  -6.464
38802SOL    HW218414   7.166   6.880   4.655
38803SOL     OW18415   4.901   3.063   2.704
38803SOL    HW118416  -6.167   3.005   2.633
38803SOL    HW218417   4.826   3.068   2.763
38804SOL     OW18418  10.520   7.604   5.856
38804SOL    HW118419  10.598   7.589  -5.237
38804SOL    HW218420  -0.583  -3.397   5.795
38805SOL     OW18421  -2.155  10.758   3.472
38805SOL    HW118422  19.911  10.853  14.507
38805SOL    HW218423  20.014  10.748  36.621
38806SOL     OW18424   3.862   5.777   2.533
38806SOL    HW118425   3.862   5.798   2.626
38806SOL    HW218426  -7.220 -16.388   2.528
38807SOL     OW18427  10.246   4.789   7.993
38807SOL    HW118428  10.280   4.753   8.075
38807SOL    HW218429  10.322   4.797  18.976
38808SOL     OW18430   5.658   3.910   6.342
38808SOL    HW118431   5.617   3.977   6.287
38808SOL    HW218432 -16.459  -7.212   6.312
38809SOL     OW18433   9.100  -0.234   5.640
38809SOL    HW118434  20.099  -0.170   5.699
38809SOL    HW218435   9.041  10.801   5.565
38810SOL     OW18436   4.938   1.592  10.981
38810SOL    HW118437   4.955  45.674  10.926
38810SOL    HW218438   5.017   1.603  11.033
38811SOL     OW18439   2.682   5.291   6.603
38811SOL    HW118440  13.691 -16.854  17.580
38811SOL    HW218441  35.890 -16.817   6.625
38812SOL     OW18442   4.678   2.105   6.075
38812SOL    HW118443   4.657  13.052   6.066
38812SOL    HW218444  15.803   2.115   6.033
38813SOL     OW18445   0.227   5.551   8.956
38813SOL    HW118446   0.187   5.518  19.915
38813SOL    HW218447   0.292   5.614   8.926
38814SOL     OW18448   1.961   9.404   2.406
38814SOL    HW118449   1.931 -12.734  24.416
38814SOL    HW218450   2.033   9.356   2.448
38815SOL     OW18451   0.534  10.450   8.604
38815SOL    HW118452  22.618  -0.497  19.619
38815SOL    HW218453   0.445  10.438  30.714
38816SOL     OW18454   2.571  10.236   9.026
38816SOL    HW118455  -8.533  10.204   8.963
38816SOL    HW218456   2.532  -0.823  20.151
38817SOL     OW18457   3.476   5.680   9.284
38817SOL    HW118458 -29.624   5.773   9.296
38817SOL    HW218459   3.541   5.635   9.338
38818SOL     OW18460   0.624   7.719   0.426
38818SOL    HW118461  22.734   7.668   0.351
38818SOL    HW218462   0.688   7.702   0.495
38819SOL     OW18463   0.332   3.032   7.882
38819SOL    HW118464  22.380   3.094  29.895
38819SOL    HW218465  11.399  25.165   7.955
38820SOL     OW18466   6.237   6.815   7.454
38820SOL    HW118467  17.207  -4.228   7.388
38820SOL    HW218468   6.316   6.787   7.408
38821SOL     OW18469   2.957   0.212   2.864
38821SOL    HW118470   3.001   0.128  24.934
38821SOL    HW218471   3.019   0.276   2.829
38822SOL     OW18472   0.139   5.215   8.866
38822SOL    HW118473   0.148  16.173  -2.223
38822SOL    HW218474   0.226   5.254   8.864
38823SOL     OW18475   2.310   5.608   2.666
38823SOL    HW118476   2.245   5.656  -8.423
38823SOL    HW218477   2.320   5.525   2.619
38824SOL     OW18478   4.720  11.706   7.471
38824SOL    HW118479   4.698 -10.338  18.597
38824SOL    HW218480  -6.225 -10.364   7.465
38825SOL     OW18481   2.993   2.009   8.978
38825SOL    HW118482   3.050   2.068   8.929
38825SOL    HW218483  13.985 -20.119   8.910
38826SOL     OW18484   4.470   5.368   9.699
38826SOL    HW118485  15.463  16.483  -1.377
38826SOL    HW218486  37.521  16.339  31.783
38827SOL     OW18487   9.981   2.643   5.226
38827SOL    HW118488   9.980   2.649   5.131
38827SOL    HW218489 -12.153   2.568   5.247
38828SOL     OW18490   6.208   2.053   0.558
38828SOL    HW118491   6.248  -9.022   0.479
38828SOL    HW218492   6.255  13.174   0.575
38829SOL     OW18493   5.440   4.392  10.029
38829SOL    HW118494  27.573   4.335   9.974
38829SOL    HW218495   5.406   4.459  -1.071
38830SOL     OW18496   4.704   7.538   8.002
38830SOL    HW118497   4.635   7.563  -3.099
38830SOL    HW218498   4.724   7.447   7.979
38831SOL     OW18499   8.465   4.228   3.955
38831SOL    HW118500   8.558  26.305   3.976
38831SOL    HW218501   8.455   4.165   3.883
38832SOL     OW18502   7.796   9.366   1.102
38832SOL    HW118503   7.810   9.418   1.023
38832SOL    HW218504   7.703  20.382  34.216
38833SOL     OW18505  -0.483   4.805   5.294
38833SOL    HW118506  -0.563  -6.254   5.341
38833SOL    HW218507  21.617 -28.224   5.317
38834SOL     OW18508   3.700   7.414   2.892
38834SOL    HW118509   3.638   7.477   2.929
38834SOL    HW218510   3.653  -3.666  13.859
38835SOL     OW18511   4.001   0.777   5.286
38835SOL    HW118512   4.063   0.848  16.306
38835SOL    HW218513   3.916 -10.228  -5.782
38836SOL     OW18514   9.318  11.004  12.766
38836SOL    HW118515  -1.639  11.020  -9.359
38836SOL    HW218516  -1.771  10.947  -9.373
38837SOL     OW18517  10.296  10.321   4.234
38837SOL    HW118518  10.353  10.252 -17.813
38837SOL    HW218519  -0.704 -33.756  -6.773
38838SOL     OW18520   4.559   2.701   6.812
38838SOL    HW118521   4.527   2.725   6.725
38838SOL    HW218522  26.614   2.774 -15.211
38839SOL     OW18523   8.893   5.388   1.915
38839SOL    HW118524   8.922   5.303  12.986
38839SOL    HW218525   8.896  27.524   1.992
38840SOL     OW18526   7.938   9.973   2.020
38840SOL    HW118527   7.962   9.891  13.104
38840SOL    HW218528 -14.137 -12.040  35.208
38841SOL     OW18529   0.708   7.585   1.387
38841SOL    HW118530   0.689  -3.365   1.357
38841SOL    HW218531   0.755   7.545   1.314
38842SOL     OW18532   8.579  10.621   9.920
38842SOL    HW118533   8.563  10.699   9.974
38842SOL    HW218534  -2.536  10.616  20.901
38843SOL     OW18535   8.958   5.221   4.610
38843SOL    HW118536   9.022  16.224   4.549
38843SOL    HW218537  20.019   5.181   4.694
38844SOL     OW18538   2.018   2.917   3.430
38844SOL    HW118539   2.090 -30.139   3.425
38844SOL    HW218540   1.944   2.968   3.463
38845SOL     OW18541   3.963  10.684   0.680
38845SOL    HW118542   4.019  10.609   0.698
38845SOL    HW218543 -18.200  10.661   0.720
38846SOL     OW18544  -0.442  11.043   8.118
38846SOL    HW118545  -0.373  10.978  -2.932
38846SOL    HW218546  10.517  10.992   8.117
38847SOL     OW18547   1.457  10.436   9.465
38847SOL    HW118548   1.489 -22.596   9.488
38847SOL    HW218549  12.566 -11.680  20.450
38848SOL     OW18550   9.395  12.990   5.769
38848SOL    HW118551  -1.569  -9.142   5.744
38848SOL    HW218552   9.321 -20.190  -5.268
38849SOL     OW18553   7.222   7.380   6.191
38849SOL    HW118554  18.265   7.311   6.258
38849SOL    HW218555  18.290  29.416 -15.968
38850SOL     OW18556   7.127   7.719   6.930
38850SOL    HW118557   7.129   7.626  17.951
38850SOL    HW218558   7.040  18.773   6.970
38851SOL     OW18559   3.563   1.355   2.687
38851SOL    HW118560  25.618   1.429   2.631
38851SOL    HW218561   3.483   1.333   2.734
38852SOL     OW18562   8.624   2.133   1.102
38852SOL    HW118563   8.562   2.202  23.203
38852SOL    HW218564 -13.487  13.137   1.019
38853SOL     OW18565  12.020   7.825   4.605
38853SOL    HW118566 -10.091   7.793   4.690
38853SOL    HW218567   1.072   7.847   4.620
38854SOL     OW18568   8.200   5.751   0.370
38854SOL    HW118569 -24.935   5.845   0.358
38854SOL    HW218570  19.272   5.744   0.460
38855SOL     OW18571   5.610   3.898   0.320
38855SOL    HW118572   5.581   3.926  22.313
38855SOL    HW218573   5.598   3.803 -21.760
38856SOL     OW18574   8.967  10.938   5.861
38856SOL    HW118575   8.917  10.946  16.819
38856SOL    HW218576   8.900  10.924  16.968
38857SOL     OW18577   1.545  12.878   0.980
38857SOL    HW118578   1.610 -31.260   1.047
38857SOL    HW218579  12.526  12.953   0.979
38858SOL     OW18580   3.367   3.369   1.957
38858SOL    HW118581  -7.761   3.393   1.931
38858SOL    HW218582   3.356   3.314 -20.045
38859SOL     OW18583   9.506   6.461   0.711
38859SOL    HW118584 -12.530   6.376   0.721
38859SOL    HW218585  20.453   6.441   0.702
38860SOL     OW18586   4.976   7.255   9.320
38860SOL    HW118587   4.967   7.271  -1.813
38860SOL    HW218588  -6.102  -3.708  -1.678
38861SOL     OW18589   0.684   4.635   5.605
38861SOL    HW118590   0.682   4.598  -5.523
38861SOL    HW218591  44.923  26.765  -5.432
38862SOL     OW18592   4.564   0.238  10.525
38862SOL    HW118593  26.582   0.256  10.596
38862SOL    HW218594   4.651   0.240  10.566
38863SOL     OW18595   5.391   3.360  10.419
38863SOL    HW118596   5.321   3.319  10.368
38863SOL    HW218597   5.377   3.327  -0.531
38864SOL     OW18598   1.381   2.262  -0.421
38864SOL    HW118599   1.288  13.277  10.616
38864SOL    HW218600   1.388   2.335  -0.483
38865SOL     OW18601   9.921   6.253   4.346
38865SOL    HW118602  21.006   6.175   4.314
38865SOL    HW218603   9.922   6.244   4.441
38866SOL     OW18604  10.245   4.635   8.765
38866SOL    HW118605  10.263   4.653   8.673
38866SOL    HW218606  21.326   4.550   8.781
38867SOL     OW18607   2.566   8.697   0.957
38867SOL    HW118608   2.484   8.731   0.994
38867SOL    HW218609   2.568  -2.307   0.868
38868SOL     OW18610   2.941   5.732   0.895
38868SOL    HW118611 -19.170  -5.386   0.850
38868SOL    HW218612  14.071   5.711   0.919
38869SOL     OW18613   5.558   8.178   1.973
38869SOL    HW118614   5.492   8.244   1.949
38869SOL    HW218615   5.641   8.226   1.972
38870SOL     OW18616   4.800   9.317   2.212
38870SOL    HW118617   4.832   9.403  13.226
38870SOL    HW218618   4.728   9.299   2.152
38871SOL     OW18619   1.575   8.146  11.429
38871SOL    HW118620   1.495   8.153   0.338
38871SOL    HW218621   1.545   8.133  11.519
38872SOL     OW18622  10.560   8.224   7.491
38872SOL    HW118623  10.625   8.241   7.560
38872SOL    HW218624  10.476   8.242   7.533
38873SOL     OW18625   2.225   7.201   2.526
38873SOL    HW118626 -19.794   7.198   2.451
38873SOL    HW218627   2.155  -3.779   2.499
38874SOL     OW18628   8.408   1.274   4.604
38874SOL    HW118629   8.485  -9.714 -28.492
38874SOL    HW218630   8.345   1.292   4.674
38875SOL     OW18631   1.346   9.354   9.816
38875SOL    HW118632  34.519   9.422   9.855
38875SOL    HW218633  56.491   9.321   9.889
38876SOL     OW18634   7.008   9.632   1.483
38876SOL    HW118635  18.104  -1.469 -20.550
38876SOL    HW218636   7.002   9.708   1.541
38877SOL     OW18637   9.949   3.293   2.248
38877SOL    HW118638  10.024   3.350   2.264
38877SOL    HW218639   9.966   3.217  24.382
38878SOL     OW18640   8.652   9.910  -0.700
38878SOL    HW118641   8.668   9.843  32.485
38878SOL    HW218642  -2.304   9.955  10.330
38879SOL     OW18643   9.840   6.798   5.579
38879SOL    HW118644   9.891   6.877  38.683
38879SOL    HW218645  -1.273  -4.234   5.518
38880SOL     OW18646   3.871   1.023   7.789
38880SOL    HW118647  14.951   0.951   7.740
38880SOL    HW218648   3.893   1.101   7.738
38881SOL     OW18649   5.651  10.883   2.994
38881SOL    HW118650   5.561  10.905   3.020
38881SOL    HW218651   5.663  10.793  -8.015
38882SOL     OW18652   3.207   6.403   3.426
38882SOL    HW118653   3.223   6.447   3.342
38882SOL    HW218654  -7.818   6.471   3.491
38883SOL     OW18655   2.189   1.240   2.251
38883SOL    HW118656   2.207   1.324   2.208
38883SOL    HW218657   2.124   1.260  13.357
38884SOL     OW18658   5.055   8.189   5.520
38884SOL    HW118659   4.960   8.184  16.576
38884SOL    HW218660  -5.949   8.113   5.566
38885SOL     OW18661  10.478   0.201   6.450
38885SOL    HW118662  10.559  22.326   6.428
38885SOL    HW218663  10.410   0.268   6.436
38886SOL     OW18664   6.586   8.319  10.251
38886SOL    HW118665   6.655   8.377  10.219
38886SOL    HW218666   6.507   8.349  10.205
38887SOL     OW18667   8.905  10.036  10.274
38887SOL    HW118668   8.875  10.043  21.223
38887SOL    HW218669   8.988   9.988  10.267
38888SOL     OW18670   7.752   1.926   4.958
38888SOL    HW118671   7.808   1.885  -6.148
38888SOL    HW218672 -14.308  -9.161   5.038
38889SOL     OW18673   5.407   0.564   4.293
38889SOL    HW118674   5.466   0.575   4.367
38889SOL    HW218675   5.442   0.489   4.245
38890SOL     OW18676   0.132   3.845   0.985
38890SOL    HW118677   0.104  -7.177  11.935
38890SOL    HW218678   0.137  -7.109   1.026
38891SOL     OW18679   6.300   8.205   2.595
38891SOL    HW118680   6.234 -47.033  -8.502
38891SOL    HW218681   6.314 -13.787   2.557
38892SOL     OW18682   2.765   4.788   7.365
38892SOL    HW118683   2.785   4.835 -14.633
38892SOL    HW218684  13.839   4.700   7.378
38893SOL     OW18685   5.618  -0.435   2.624
38893SOL    HW118686   5.538  10.554 -19.460
38893SOL    HW218687   5.589  -0.346   2.646
38894SOL     OW18688   3.970   7.354   3.565
38894SOL    HW118689 -18.043 -14.660   3.543
38894SOL    HW218690   4.011   7.270  25.624
38895SOL     OW18691   5.692   8.692  10.423
38895SOL    HW118692   5.678   8.603  21.495
38895SOL    HW218693   5.774   8.687  -0.665
38896SOL     OW18694   4.659   2.435   0.678
38896SOL    HW118695   4.610   2.353   0.668
38896SOL    HW218696   4.597   2.503   0.652
38897SOL     OW18697  11.293   6.734   3.998
38897SOL    HW118698   0.166   6.700   3.984
38897SOL    HW218699   0.243   6.829   3.995
38898SOL     OW18700   7.682  10.096   8.708
38898SOL    HW118701  18.633  10.103   8.671
38898SOL    HW218702   7.735  10.063  30.714
38899SOL     OW18703   9.454   6.484   3.960
38899SOL    HW118704  20.518  17.539   3.869
38899SOL    HW218705   9.532   6.444  15.039
38900SOL     OW18706   9.620   3.684   4.210
38900SOL    HW118707   9.666   3.660   4.291
38900SOL    HW218708  -1.499   3.730  15.279
38901SOL     OW18709   9.886   5.518   5.108
38901SOL    HW118710   9.853   5.575   5.177
38901SOL    HW218711   9.808   5.475   5.072
38902SOL     OW18712   0.452   4.668   1.501
38902SOL    HW118713  11.462 -28.429   1.590
38902SOL    HW218714  11.567  15.765   1.486
38903SOL     OW18715   5.360   7.898   7.348
38903SOL    HW118716   5.366   7.991   7.327
38903SOL    HW218717   5.289  -3.174  18.332
38904SOL     OW18718  11.234  -0.260   2.075
38904SOL    HW118719 -10.931  21.857   2.057
38904SOL    HW218720  11.248  21.756  -9.036
38905SOL     OW18721   3.609   7.953  11.582
38905SOL    HW118722   3.660   8.032   0.526
38905SOL    HW218723  14.679   7.890  11.517
38906SOL     OW18724   7.703   1.276  10.021
38906SOL    HW118725   7.724   1.367  32.115
38906SOL    HW218726  18.808   1.246 -12.122
38907SOL     OW18727   3.938   8.645   7.875
38907SOL    HW118728 -18.095  -2.418   7.956
38907SOL    HW218729  -7.033   8.645  18.848
38908SOL     OW18730   1.223   2.958   3.973
38908SOL    HW118731   1.264   3.044   3.982
38908SOL    HW218732  12.222  25.038 -18.192
38909SOL     OW18733   4.170   6.360   7.412
38909SOL    HW118734 -17.836   6.314   7.369
38909SOL    HW218735   4.098   6.297   7.408
38910SOL     OW18736   8.963   8.086   8.975
38910SOL    HW118737   8.975   8.044   8.890
38910SOL    HW218738   8.925   8.172   8.954
38911SOL     OW18739   8.648   4.358   9.888
38911SOL    HW118740  30.636   4.364   9.857
38911SOL    HW218741   8.700   4.358   9.808
38912SOL     OW18742  10.749   9.965  11.051
38912SOL    HW118743 -11.421   9.997 -11.035
38912SOL    HW218744  -0.288   9.917  11.133
38913SOL     OW18745   0.104   2.601   7.040
38913SOL    HW118746   0.015   2.594 -26.112
38913SOL    HW218747   0.109  24.616   7.110
38914SOL     OW18748   2.646   3.740   6.441
38914SOL    HW118749   2.733   3.723  -4.563
38914SOL    HW218750   2.593   3.766   6.516
38915SOL     OW18751   2.756   6.561   4.704
38915SOL    HW118752   2.849   6.580   4.713
38915SOL    HW218753   2.716   6.646  15.726
38916SOL     OW18754  10.960   3.799   8.495
38916SOL    HW118755  10.992   3.760   8.576
38916SOL    HW218756  10.949  -7.148   8.515
38917SOL     OW18757  10.726   9.100   9.829
38917SOL    HW118758  -0.367   9.115   9.906
38917SOL    HW218759  10.679  20.184  -1.281
38918SOL     OW18760   6.250   9.577   6.993
38918SOL    HW118761   6.296 -23.473   7.042
38918SOL    HW218762  -4.729  -1.486  17.962
38919SOL     OW18763   3.603   4.104   8.514
38919SOL    HW118764   3.693   4.099   8.481
38919SOL    HW218765   3.604   4.176   8.577
38920SOL     OW18766   6.248   3.633   5.668
38920SOL    HW118767  -4.786   3.569  16.637
38920SOL    HW218768  17.249   3.710   5.627
38921SOL     OW18769   2.701  11.391   1.037
38921SOL    HW118770  13.824   0.344   1.083
38921SOL    HW218771   2.635   0.347   1.107
38922SOL     OW18772   9.687   0.057   9.155
38922SOL    HW118773   9.624   0.041   9.225
38922SOL    HW218774   9.724   0.143   9.175
38923SOL     OW18775   5.174   0.461  -0.419
38923SOL    HW118776   5.184  33.604  10.713
38923SOL    HW218777   5.214   0.534  -0.467
38924SOL     OW18778   1.467   3.861   8.043
38924SOL    HW118779   1.452   3.954   8.026
38924SOL    HW218780  -9.514  -7.206   7.972
38925SOL     OW18781  10.718   9.212   1.453
38925SOL    HW118782  10.785   9.254   1.399
38925SOL    HW218783  10.636   9.252  12.464
38926SOL     OW18784   0.025   3.148   8.417
38926SOL    HW118785   0.077   3.138   8.337
38926SOL    HW218786  -0.016   3.234   8.408
38927SOL     OW18787   9.180  12.880   9.479
38927SOL    HW118788   9.150  12.903   9.391
38927SOL    HW218789   9.223 -20.324  20.508
38928SOL     OW18790   4.244  10.525   6.273
38928SOL    HW118791   4.268  -0.512   6.180
38928SOL    HW218792   4.151  21.585   6.274
38929SOL     OW18793   9.684   2.513   8.191
38929SOL    HW118794  20.790   2.537  -2.784
38929SOL    HW218795   9.617  13.620  -2.840
38930SOL     OW18796   7.268   7.002   1.430
38930SOL    HW118797  -3.864  29.080  23.484
38930SOL    HW218798  -3.762  29.005   1.488
38931SOL     OW18799   0.628   9.240   5.496
38931SOL    HW118800   0.568   9.305   5.460
38931SOL    HW218801   0.675   9.287   5.566
38932SOL     OW18802   4.555   3.514   6.512
38932SOL    HW118803   4.482   3.538   6.456
38932SOL    HW218804   4.592   3.597   6.541
38933SOL     OW18805   5.451   8.874   0.070
38933SOL    HW118806   5.389   8.852  11.179
38933SOL    HW218807   5.445   8.969   0.063
38934SOL     OW18808   3.448   8.046   4.392
38934SOL    HW118809   3.540   8.023  -6.631
38934SOL    HW218810 -18.650   8.115   4.455
38935SOL     OW18811   7.805  10.405   8.659
38935SOL    HW118812  -3.298  10.401   8.730
38935SOL    HW218813 -36.285  10.344  -2.355
38936SOL     OW18814   5.282   1.278   0.063
38936SOL    HW118815  -5.795   1.247   0.146
38936SOL    HW218816  16.247  -9.732   0.012
38937SOL     OW18817   9.290  10.613   6.572
38937SOL    HW118818   9.337  10.680   6.623
38937SOL    HW218819   9.219  10.661  -4.510
38938SOL     OW18820   9.770  11.390   6.409
38938SOL    HW118821 -12.267   0.432   6.434
38938SOL    HW218822  20.716  11.411 -15.674
38939SOL     OW18823   5.079   1.160  -0.312
38939SOL    HW118824   5.029   1.078  -0.307
38939SOL    HW218825 -16.931   1.142  10.664
38940SOL     OW18826   3.676  10.346   4.171
38940SOL    HW118827   3.617  10.375  15.141
38940SOL    HW218828  14.802  10.346   4.129
38941SOL     OW18829   6.709   3.736   3.750
38941SOL    HW118830  28.865  -7.276   3.800
38941SOL    HW218831   6.722   3.642   3.736
38942SOL     OW18832   2.505   0.047   1.584
38942SOL    HW118833  -8.565   0.116  -9.397
38942SOL    HW218834   2.600   0.056   1.584
38943SOL     OW18835   4.834   8.962   8.496
38943SOL    HW118836   4.799 -13.076  -2.622
38943SOL    HW218837   4.917  -2.031  -2.527
38944SOL     OW18838  10.343   5.809   6.672
38944SOL    HW118839  10.345   5.772   6.583
38944SOL    HW218840  10.377   5.898   6.662
38945SOL     OW18841   4.553   9.553  10.208
38945SOL    HW118842   4.519  20.505  10.189
38945SOL    HW218843   4.489   9.591  10.269
38946SOL     OW18844   4.976   0.323  -0.717
38946SOL    HW118845  -6.148   0.282  21.382
38946SOL    HW218846  16.010   0.409  10.364
38947SOL     OW18847   9.607   4.908   3.372
38947SOL    HW118848  20.742   4.903   3.363
38947SOL    HW218849   9.578  -6.222   3.375
38948SOL     OW18850  -0.435   6.739   7.018
38948SOL    HW118851  32.674   6.801   7.090
38948SOL    HW218852  21.735   6.750   6.990
38949SOL     OW18853   6.486   0.942   1.619
38949SOL    HW118854  17.456   0.934   1.554
38949SOL    HW218855  17.483 -10.110   1.703
38950SOL     OW18856   1.953   1.747   3.179
38950SOL    HW118857   1.993   1.702   3.105
38950SOL    HW218858  23.980   1.817   3.140
38951SOL     OW18859   4.068   3.381   5.527
38951SOL    HW118860   4.045   3.288   5.521
38951SOL    HW218861  26.231   3.388   5.481
38952SOL     OW18862   2.763  10.652   3.692
38952SOL    HW118863   2.778 -11.368  36.884
38952SOL    HW218864  -8.198  -0.442   3.688
38953SOL     OW18865   8.152   2.451   2.772
38953SOL    HW118866   8.067   2.436   2.814
38953SOL    HW218867   8.191  13.403   2.767
38954SOL     OW18868   9.673   0.909   0.625
38954SOL    HW118869   9.590   0.953   0.646
38954SOL    HW218870   9.713   0.963  22.637
38955SOL     OW18871   0.482   0.411   4.184
38955SOL    HW118872   0.472   0.410   4.279
38955SOL    HW218873   0.490   0.319   4.159
38956SOL     OW18874   0.967   9.669   9.933
38956SOL    HW118875   1.026   9.725  20.921
38956SOL    HW218876   0.880   9.704   9.915
38957SOL     OW18877   2.395   5.649   6.739
38957SOL    HW118878   2.420   5.642   6.831
38957SOL    HW218879   2.370   5.740  -4.313
38958SOL     OW18880  10.801   5.505   2.197
38958SOL    HW118881  10.886   5.479  -8.807
38958SOL    HW218882  10.801  27.550   2.107
38959SOL     OW18883   2.283  10.996   3.124
38959SOL    HW118884  -8.817  10.956   3.061
38959SOL    HW218885  13.357  11.072  -7.961
38960SOL     OW18886   6.834   6.586   5.259
38960SOL    HW118887   6.795  17.553   5.210
38960SOL    HW218888  28.971   6.543  16.362
38961SOL     OW18889   8.649   3.702  10.556
38961SOL    HW118890  -2.470   3.723  10.606
38961SOL    HW218891   8.633  14.654  10.521
38962SOL     OW18892   5.909   0.881  10.264
38962SOL    HW118893   5.933   0.803  10.214
38962SOL    HW218894   5.965  22.958  10.341
38963SOL     OW18895   4.573   2.393  11.101
38963SOL    HW118896 -17.512   2.360  11.191
38963SOL    HW218897   4.503   2.349   0.015
38964SOL     OW18898   1.566   1.921   9.032
38964SOL    HW118899   1.554   1.998  -2.063
38964SOL    HW218900   1.494   1.925   9.095
38965SOL     OW18901  10.075   5.117   0.021
38965SOL    HW118902  10.147   5.140  22.160
38965SOL    HW218903  21.066   5.049   0.068
38966SOL     OW18904   4.589   4.319  11.224
38966SOL    HW118905   4.564  15.443   0.221
38966SOL    HW218906   4.505 -17.803  11.204
38967SOL     OW18907   6.626  10.768   5.999
38967SOL    HW118908   6.635  10.841   5.938
38967SOL    HW218909   6.577  10.702   5.950
38968SOL     OW18910   0.139   8.047   8.638
38968SOL    HW118911   0.194   8.051   8.560
38968SOL    HW218912   0.164   8.125   8.688
38969SOL     OW18913   3.220   9.321   9.854
38969SOL    HW118914   3.241  31.342   9.928
38969SOL    HW218915   3.222   9.263   9.778
38970SOL     OW18916   2.648   5.176   3.449
38970SOL    HW118917   2.648  -5.958   3.464
38970SOL    HW218918   2.594   5.188   3.370
38971SOL     OW18919   4.463  10.039   1.818
38971SOL    HW118920  15.581  10.020   1.766
38971SOL    HW218921   4.434   9.953  12.890
38972SOL     OW18922   7.962   3.857   1.428
38972SOL    HW118923   7.955   3.858   1.524
38972SOL    HW218924   8.056   3.862  23.490
38973SOL     OW18925   3.181   9.746   0.457
38973SOL    HW118926   3.255   9.765  11.554
38973SOL    HW218927   3.130   9.680   0.505
38974SOL     OW18928   2.497   9.192   7.830
38974SOL    HW118929   2.493   9.283  18.837
38974SOL    HW218930   2.440 -35.015  40.889
38975SOL     OW18931   2.836   6.257   0.935
38975SOL    HW118932  13.939  17.282   1.005
38975SOL    HW218933 -19.261  17.209 -10.139
38976SOL     OW18934   7.833   4.424   7.008
38976SOL    HW118935  29.832   4.470   7.033
38976SOL    HW218936   7.836   4.431  -4.127
38977SOL     OW18937   2.795   8.275   3.283
38977SOL    HW118938   2.743   8.200   3.310
38977SOL    HW218939   2.847   8.244   3.209
38978SOL     OW18940   9.605   2.598   4.351
38978SOL    HW118941   9.600   2.505   4.370
38978SOL    HW218942  -1.483   2.640  15.462
38979SOL     OW18943  10.665   2.103   5.214
38979SOL    HW118944  10.626   2.016  -5.821
38979SOL    HW218945  10.628   2.141   5.134
38980SOL     OW18946   8.175   1.101   8.205
38980SOL    HW118947   8.114  34.148   8.221
38980SOL    HW218948  30.329   1.081   8.262
38981SOL     OW18949   9.765   2.679   7.141
38981SOL    HW118950   9.691   2.736   7.120
38981SOL    HW218951   9.724   2.599   7.174
38982SOL     OW18952   0.504   0.846   6.196
38982SOL    HW118953   0.550   0.818   6.117
38982SOL    HW218954   0.560   0.817   6.268
38983SOL     OW18955   1.890  11.036  -1.612
38983SOL    HW118956   1.840  11.078   9.358
38983SOL    HW218957   1.895  10.944  20.443
38984SOL     OW18958   7.044  -0.342   3.436
38984SOL    HW118959   7.024  21.689   3.356
38984SOL    HW218960   7.007  -0.396   3.506
38985SOL     OW18961   7.012  -0.226   5.737
38985SOL    HW118962  40.043  10.795   5.704
38985SOL    HW218963   7.045  -0.156  16.720
38986SOL     OW18964   5.926   3.268   1.689
38986SOL    HW118965  17.016 -18.729   1.692
38986SOL    HW218966   5.982   3.205  12.774
38987SOL     OW18967   7.065   3.879   7.325
38987SOL    HW118968   6.984   3.887   7.274
38987SOL    HW218969   7.089   3.968   7.347
38988SOL     OW18970   7.811   1.295   4.851
38988SOL    HW118971   7.805   1.366   4.787
38988SOL    HW218972   7.723 -20.821   4.856
38989SOL     OW18973   7.793   5.651   6.333
38989SOL    HW118974   7.813  27.796  -4.639
38989SOL    HW218975   7.831  16.726   6.253
38990SOL     OW18976   2.203   9.429  10.936
38990SOL    HW118977 -19.892 -12.678  10.845
38990SOL    HW218978   2.222   9.348  10.983
38991SOL     OW18979   7.992  10.446  11.038
38991SOL    HW118980  30.135  10.496  10.988
38991SOL    HW218981  18.947  10.485 -11.064
38992SOL     OW18982   3.273   5.701  10.126
38992SOL    HW118983   3.289   5.786  10.085
38992SOL    HW218984  -7.833   5.660  10.070
38993SOL     OW18985   1.805   1.273   9.005
38993SOL    HW118986  12.843  12.400   8.966
38993SOL    HW218987   1.874   1.277  31.149
38994SOL     OW18988   6.034   9.513  10.861
38994SOL    HW118989   6.042 -23.602  10.766
38994SOL    HW218990   5.941   9.499  10.878
38995SOL     OW18991   0.645   9.032   0.726
38995SOL    HW118992   0.667   8.956   0.672
38995SOL    HW218993   0.720   9.091   0.716
38996SOL     OW18994   3.843   3.895  10.386
38996SOL    HW118995   3.755   3.863  10.405
38996SOL    HW218996  -7.166   3.841  10.313
38997SOL     OW18997   1.414   6.696   1.156
38997SOL    HW118998   1.481  17.769   1.215
38997SOL    HW218999  -9.609  39.860   1.073
38998SOL     OW19000   6.669   2.543   9.672
38998SOL    HW119001   6.735   2.585 -12.463
38998SOL    HW219002  17.746  13.498   9.695
38999SOL     OW19003   7.157   1.078  10.968
38999SOL    HW119004   7.194   0.998  11.005
38999SOL    HW219005   7.071  12.126  11.008
39000SOL     OW19006   1.511   5.699   7.812
39000SOL    HW119007  12.644  -5.325   7.828
39000SOL    HW219008   1.481   5.655   7.891
39001SOL     OW19009   3.322  -1.251   4.180
39001SOL    HW119010   3.357  -1.176   4.228
39001SOL    HW219011   3.302  31.803  -6.792
39002SOL     OW19012   4.423   4.418   2.294
39002SOL    HW119013   4.394   4.462   2.374
39002SOL    HW219014   4.393   4.476   2.223
39003SOL     OW19015  10.957   8.478   6.664
39003SOL    HW119016  11.036   8.426   6.652
39003SOL    HW219017  -0.072  19.559   6.749
39004SOL     OW19018  -1.245   8.291  11.291
39004SOL    HW119019  20.766   8.225 -21.824
39004SOL    HW219020   9.748   8.374  11.302
39005SOL     OW19021   8.579   6.586   5.064
39005SOL    HW119022 -24.517   6.507   5.114
39005SOL    HW219023 -13.570   6.626   5.114
39006SOL     OW19024   8.174   1.437   1.896
39006SOL    HW119025   8.226   1.413   1.973
39006SOL    HW219026   8.234   1.488  -9.198
39007SOL     OW19027   2.916   5.050   3.125
39007SOL    HW119028   2.971  16.101   3.202
39007SOL    HW219029  -8.199   5.000   3.156
39008SOL     OW19030   8.706   6.265   9.973
39008SOL    HW119031   8.739   6.196  -1.010
39008SOL    HW219032   8.754   6.343  10.000
39009SOL     OW19033   2.915   2.934   9.607
39009SOL    HW119034  -8.135   2.998   9.537
39009SOL    HW219035 -30.128   2.881   9.580
39010SOL     OW19036   9.564   8.916   9.276
39010SOL    HW119037  20.693   8.935   9.303
39010SOL    HW219038   9.521  42.006   9.357
39011SOL     OW19039  10.835   8.879  10.680
39011SOL    HW119040  10.861   8.954 -11.345
39011SOL    HW219041  10.770   8.914 -22.499
39012SOL     OW19042  11.004  -0.443   8.746
39012SOL    HW119043  11.064  32.601  19.782
39012SOL    HW219044  10.930  21.605   8.799
39013SOL     OW19045   5.780   1.872   7.644
39013SOL    HW119046   5.713   1.815   7.682
39013SOL    HW219047   5.853   1.867  18.745
39014SOL     OW19048   5.863   1.797   8.007
39014SOL    HW119049  16.833   1.853   7.974
39014SOL    HW219050   5.819 -20.347   8.062
39015SOL     OW19051   7.038   8.074   2.157
39015SOL    HW119052   6.943   8.075   2.165
39015SOL    HW219053  18.096  19.044   2.094
39016SOL     OW19054   2.983   7.816  11.682
39016SOL    HW119055  25.116   7.883   0.600
39016SOL    HW219056   2.971   7.849   0.731
39017SOL     OW19057   8.450   7.536   6.945
39017SOL    HW119058   8.369   7.512 -15.091
39017SOL    HW219059   8.468   7.625   6.975
39018SOL     OW19060   9.151   4.847   2.769
39018SOL    HW119061   9.189   4.921  24.895
39018SOL    HW219062   9.165   4.772  24.906
39019SOL     OW19063   8.383   6.903   6.641
39019SOL    HW119064   8.418   6.865  17.600
39019SOL    HW219065   8.335   6.832   6.683
39020SOL     OW19066   1.523   7.984   4.278
39020SOL    HW119067 -20.553 -14.001   4.296
39020SOL    HW219068   1.596   7.947   4.327
39021SOL     OW19069   0.286   7.804   0.051
39021SOL    HW119070   0.198   7.833   0.077
39021SOL    HW219071   0.300   7.722   0.099
39022SOL     OW19072  10.460   6.644   1.537
39022SOL    HW119073  10.413   6.566   1.509
39022SOL    HW219074 -11.677   6.685   1.601
39023SOL     OW19075   9.203   0.147   2.608
39023SOL    HW119076  -1.786   0.152  -8.513
39023SOL    HW219077  -1.883   0.063   2.602
39024SOL     OW19078   8.269   8.195   6.503
39024SOL    HW119079   8.293  19.227  28.489
39024SOL    HW219080  30.331   8.289   6.516
39025SOL     OW19081   8.765   1.806   3.084
39025SOL    HW119082   8.834   1.844   3.139
39025SOL    HW219083   8.688   1.858  14.143
39026SOL     OW19084   6.508   5.712   9.873
39026SOL    HW119085   6.486   5.755   9.791
39026SOL    HW219086   6.469   5.768   9.941
39027SOL     OW19087   3.521   0.792   6.592
39027SOL    HW119088   3.486  22.950  28.629
39027SOL    HW219089  -7.559   0.719 -15.534
39028SOL     OW19090  10.728   1.203   5.975
39028SOL    HW119091  10.807   1.185   6.025
39028SOL    HW219092  10.689   1.279   6.019
39029SOL     OW19093   3.973  10.804   8.954
39029SOL    HW119094   4.024  10.874  -2.045
39029SOL    HW219095  -7.140  10.849  19.951
39030SOL     OW19096   8.996   7.276   0.216
39030SOL    HW119097  19.997  18.231   0.234
39030SOL    HW219098   8.991   7.286   0.121
39031SOL     OW19099   4.389   0.864   1.157
39031SOL    HW119100  15.462   0.937   1.210
39031SOL    HW219101  15.470   0.876   1.071
39032SOL     OW19102   3.032   3.590   4.500
39032SOL    HW119103   3.079  -7.369   4.519
39032SOL    HW219104   2.939   3.613   4.512
39033SOL     OW19105   4.916  11.394   4.459
39033SOL    HW119106   4.929  11.446   4.380
39033SOL    HW219107   4.975   0.394   4.523
39034SOL     OW19108   3.664   8.713   7.955
39034SOL    HW119109 -18.325   8.693   7.928
39034SOL    HW219110 -18.452   8.628   7.978
39035SOL     OW19111   8.934   6.183   8.809
39035SOL    HW119112   8.978   6.156   8.889
39035SOL    HW219113   8.843   6.153  30.899
39036SOL     OW19114   5.703   3.378   5.934
39036SOL    HW119115   5.780  25.416   5.973
39036SOL    HW219116   5.718   3.472   5.944
39037SOL     OW19117   4.790   2.751   2.807
39037SOL    HW119118   4.759   2.780 -19.358
39037SOL    HW219119   4.785  -8.384  24.882
39038SOL     OW19120   9.364   4.213  11.007
39038SOL    HW119121  -1.764 -17.883  11.041
39038SOL    HW219122  -1.690  -6.801  10.916
39039SOL     OW19123   1.576   6.073   4.383
39039SOL    HW119124   1.632  17.036   4.373
39039SOL    HW219125   1.487   6.040   4.374
39040SOL     OW19126   8.715   6.200   8.479
39040SOL    HW119127   8.651   6.252   8.431
39040SOL    HW219128   8.738   6.254  41.674
39041SOL     OW19129   4.880   4.467   1.284
39041SOL    HW119130 -28.302  15.444  -9.791
39041SOL    HW219131 -17.245   4.551   1.284
39042SOL     OW19132   8.025   7.792   4.051
39042SOL    HW119133   8.070   7.853   4.110
39042SOL    HW219134   8.085   7.717   4.044
39043SOL     OW19135   5.564  -0.900   9.858
39043SOL    HW119136   5.584  21.114   9.925
39043SOL    HW219137   5.567  10.090   9.776
39044SOL     OW19138   0.869   4.066   2.071
39044SOL    HW119139   0.782   4.105   2.061
39044SOL    HW219140   0.889   4.077   2.164
39045SOL     OW19141   5.737   7.178   8.463
39045SOL    HW119142   5.765   7.151   8.551
39045SOL    HW219143 -16.268  29.305   8.428
39046SOL     OW19144   7.553   4.203   9.017
39046SOL    HW119145   7.484   4.159  20.106
39046SOL    HW219146  -3.424   4.231   9.084
39047SOL     OW19147   1.533   0.693   8.779
39047SOL    HW119148   1.605 -10.289   8.801
39047SOL    HW219149  23.622   0.618   8.838
39048SOL     OW19150   3.234   3.290   8.834
39048SOL    HW119151   3.254  -7.755  19.967
39048SOL    HW219152   3.139 -29.844   8.829
39049SOL     OW19153   3.256   5.423   1.533
39049SOL    HW119154   3.210   5.389   1.456
39049SOL    HW219155  25.413   5.369  12.580
39050SOL     OW19156  11.223   7.482   4.915
39050SOL    HW119157   0.238   7.461   4.991
39050SOL    HW219158  11.209   7.576   4.921
39051SOL     OW19159   0.515   6.414   5.862
39051SOL    HW119160 -10.587   6.342  -5.181
39051SOL    HW219161  55.705  -4.583   5.777
39052SOL     OW19162   6.782   8.467   8.391
39052SOL    HW119163   6.836   8.536   8.432
39052SOL    HW219164   6.716   8.515   8.341
39053SOL     OW19165  11.437   1.128   0.449
39053SOL    HW119166  11.488   1.171   0.518
39053SOL    HW219167   0.418  23.256   0.370
39054SOL     OW19168   5.660   1.979   7.950
39054SOL    HW119169  -5.470 -20.086  -3.063
39054SOL    HW219170   5.655  12.951   7.882
39055SOL     OW19171   1.009  10.358   8.457
39055SOL    HW119172   1.040  10.434   8.506
39055SOL    HW219173   1.014  10.385   8.365
39056SOL     OW19174  12.051   6.666   6.948
39056SOL    HW119175  12.070   6.574   6.969
39056SOL    HW219176  -9.989  17.755   7.020
39057SOL     OW19177  -0.785   0.971   1.573
39057SOL    HW119178  21.298   0.978 -20.411
39057SOL    HW219179  -0.847   0.900   1.557
39058SOL     OW19180   5.155  10.326   1.054
39058SOL    HW119181 -16.923  10.361   1.143
39058SOL    HW219182  -5.977  10.314   1.033
39059SOL     OW19183  10.330   8.653  10.861
39059SOL    HW119184  21.353  -2.298  10.895
39059SOL    HW219185  10.412   8.660  10.814
39060SOL     OW19186  11.705   5.563   8.577
39060SOL    HW119187 -21.388   5.626   8.510
39060SOL    HW219188  11.769   5.492   8.568
39061SOL     OW19189   1.294   5.787   9.643
39061SOL    HW119190   1.323  27.849   9.554
39061SOL    HW219191   1.219   5.846   9.633
39062SOL     OW19192   2.663   4.058   1.544
39062SOL    HW119193  -8.471   4.057   1.560
39062SOL    HW219194   2.683  37.090  23.588
39063SOL     OW19195   2.085   0.840   2.330
39063SOL    HW119196   2.159   0.871   2.382
39063SOL    HW219197  24.160   0.899   2.256
39064SOL     OW19198   8.778   0.713   3.817
39064SOL    HW119199   8.830   0.640  -7.256
39064SOL    HW219200  19.728   0.694  14.829
39065SOL     OW19201   3.631   1.762   7.786
39065SOL    HW119202   3.633   1.781  -3.160
39065SOL    HW219203  36.804   1.683  -3.263
39066SOL     OW19204   8.233  -0.389   8.823
39066SOL    HW119205   8.322  -0.355   8.811
39066SOL    HW219206   8.179  10.729  19.874
39067SOL     OW19207   4.186   8.491   7.307
39067SOL    HW119208   4.203   8.421   7.371
39067SOL    HW219209   4.104  -2.574   7.265
39068SOL     OW19210   9.829   4.399   8.116
39068SOL    HW119211   9.904   4.457   8.128
39068SOL    HW219212  20.808   4.449   8.061
39069SOL     OW19213   7.263   9.474   7.962
39069SOL    HW119214  18.270   9.471   8.052
39069SOL    HW219215  18.224   9.489   7.908
39070SOL     OW19216   8.278   2.946   4.716
39070SOL    HW119217   8.278  13.966   4.622
39070SOL    HW219218  -2.778   2.862   4.758
39071SOL     OW19219   4.394   3.888   4.767
39071SOL    HW119220  15.524  37.033  48.935
39071SOL    HW219221  37.502  25.893   4.826
39072SOL     OW19222   1.294   1.972  10.360
39072SOL    HW119223   1.206   1.934  -0.676
39072SOL    HW219224   1.343   1.925  10.427
39073SOL     OW19225   7.601   5.712   4.030
39073SOL    HW119226   7.682   5.662  15.061
39073SOL    HW219227   7.578   5.704  26.202
39074SOL     OW19228   3.412   7.233  -0.195
39074SOL    HW119229  -7.693   7.295  -0.226
39074SOL    HW219230   3.426   7.257  21.976
39075SOL     OW19231   1.086   6.174   3.172
39075SOL    HW119232   1.077  17.146  14.145
39075SOL    HW219233   1.176   6.166   3.203
39076SOL     OW19234   9.656  11.822   3.316
39076SOL    HW119235  31.746 -10.352   3.314
39076SOL    HW219236   9.745  11.856   3.324
39077SOL     OW19237   3.181   4.570   5.879
39077SOL    HW119238   3.116  -6.424   5.826
39077SOL    HW219239   3.178   4.614   5.965
39078SOL     OW19240   2.330  10.302  11.628
39078SOL    HW119241   2.236  -0.723   0.591
39078SOL    HW219242   2.364 -44.850   0.665
39079SOL     OW19243   7.373   3.162   3.090
39079SOL    HW119244   7.403   3.179   3.179
39079SOL    HW219245   7.374  47.406   3.047
39080SOL     OW19246   5.122   4.573   1.188
39080SOL    HW119247   5.123   4.640   1.120
39080SOL    HW219248  -6.007   4.538   1.188
39081SOL     OW19249   2.808   4.452   0.412
39081SOL    HW119250  -8.187   4.507   0.476
39081SOL    HW219251   2.867   4.448   0.337
39082SOL     OW19252   4.696   6.993   2.538
39082SOL    HW119253   4.739   6.966  13.659
39082SOL    HW219254   4.768   7.013   2.478
39083SOL     OW19255   0.759   1.340   5.848
39083SOL    HW119256 -10.341   1.403   5.888
39083SOL    HW219257   0.753  -9.683   5.754
39084SOL     OW19258  10.145   6.054  11.175
39084SOL    HW119259  10.123   5.965   0.163
39084SOL    HW219260  10.209   6.084  11.239
39085SOL     OW19261   6.378  11.384  -0.579
39085SOL    HW119262 -15.791  11.396  10.492
39085SOL    HW219263   6.378 -10.784  -0.615
39086SOL     OW19264   9.232   6.138   9.870
39086SOL    HW119265  31.347   6.218 -12.172
39086SOL    HW219266   9.232  -4.887 -23.343
39087SOL     OW19267   1.558   9.300   7.937
39087SOL    HW119268  12.639   9.214  -3.097
39087SOL    HW219269   1.630  20.402   7.944
39088SOL     OW19270   8.960   7.083   7.158
39088SOL    HW119271   8.920  18.192   7.106
39088SOL    HW219272   9.049 -15.004   7.123
39089SOL     OW19273   7.319   2.716  10.933
39089SOL    HW119274  -3.660   2.642 -11.151
39089SOL    HW219275   7.371   2.788  33.048
39090SOL     OW19276   1.527   6.778   3.142
39090SOL    HW119277   1.555  -4.241   3.053
39090SOL    HW219278   1.471   6.700   3.132
39091SOL     OW19279   9.070   5.133  11.339
39091SOL    HW119280   9.011  -5.981   0.287
39091SOL    HW219281  20.061   5.192  11.397
39092SOL     OW19282   9.793   0.848  -0.722
39092SOL    HW119283   9.725  11.950  10.292
39092SOL    HW219284 -12.304   0.829  21.449
39093SOL     OW19285   9.256   3.688   5.101
39093SOL    HW119286   9.258   3.621 -28.086
39093SOL    HW219287   9.315   3.756   5.069
39094SOL     OW19288   7.366   5.050   3.597
39094SOL    HW119289  29.439   5.011  14.550
39094SOL    HW219290   7.447  16.141  -7.445
39095SOL     OW19291   8.721   1.416   9.055
39095SOL    HW119292   8.715  12.433   9.148
39095SOL    HW219293  -2.226   1.410   9.034
39096SOL     OW19294   6.598   0.898  10.291
39096SOL    HW119295  -4.442  12.023  10.334
39096SOL    HW219296  -4.376   0.848  10.339
39097SOL     OW19297   1.616  10.196  10.186
39097SOL    HW119298   1.598  10.118  10.239
39097SOL    HW219299   1.671  10.251  10.243
39098SOL     OW19300   5.428   3.400   3.189
39098SOL    HW119301  16.383  -7.653  14.187
39098SOL    HW219302   5.491   3.367   3.124
39099SOL     OW19303   5.576  10.421   6.343
39099SOL    HW119304   5.599  21.485  28.512
39099SOL    HW219305   5.501 -11.603  28.401
39100SOL     OW19306   7.589  -1.502   4.795
39100SOL    HW119307  18.687  31.558   4.845
39100SOL    HW219308   7.510  20.584   4.849
39101SOL     OW19309   4.934   7.110   0.924
39101SOL    HW119310   4.972   7.196  23.018
39101SOL    HW219311   4.875   7.097   0.999
39102SOL     OW19312   6.256  10.959   4.702
39102SOL    HW119313   6.245  10.980  -6.430
39102SOL    HW219314  28.277  -0.019   4.748
39103SOL     OW19315   6.060  12.071   7.963
39103SOL    HW119316   6.072 -10.103   7.957
39103SOL    HW219317  28.163  12.092   8.054
39104SOL     OW19318   2.028   8.660   4.413
39104SOL    HW119319   2.102   8.600  15.450
39104SOL    HW219320   2.062   8.737   4.459
39105SOL     OW19321   9.285   3.042   4.146
39105SOL    HW119322   9.370   3.012   4.178
39105SOL    HW219323  -1.780 -18.968   4.208
39106SOL     OW19324   7.864   0.200   5.769
39106SOL    HW119325   7.921  11.170  -5.303
39106SOL    HW219326   7.775 -10.875 -27.361
39107SOL     OW19327   8.863   9.727  10.142
39107SOL    HW119328   8.949  20.809  21.182
39107SOL    HW219329  19.885  20.746  10.234
39108SOL     OW19330   6.645   7.400   5.243
39108SOL    HW119331   6.596  -3.562  -5.826
39108SOL    HW219332   6.591   7.363  -5.727
39109SOL     OW19333   7.568   1.897   2.542
39109SOL    HW119334   7.543   1.853   2.461
39109SOL    HW219335   7.600   1.983  -8.527
39110SOL     OW19336   9.690   3.657   0.144
39110SOL    HW119337   9.638  14.639   0.088
39110SOL    HW219338   9.754   3.696   0.085
39111SOL     OW19339   6.570  10.365   3.138
39111SOL    HW119340 -15.590  10.382   3.186
39111SOL    HW219341   6.622  10.311   3.197
39112SOL     OW19342  10.357   0.592   2.225
39112SOL    HW119343  21.338   0.530   2.269
39112SOL    HW219344  10.416   0.621   2.295
39113SOL     OW19345   6.068   6.067   9.154
39113SOL    HW119346   6.149   6.107   9.184
39113SOL    HW219347  17.068   6.133   9.097
39114SOL     OW19348   1.839   3.829   1.691
39114SOL    HW119349   1.905   3.805   1.756
39114SOL    HW219350   1.885  -7.157   1.627
39115SOL     OW19351  11.236   4.975   2.226
39115SOL    HW119352  11.329   4.968  -8.795
39115SOL    HW219353   0.154  27.003  -8.744
39116SOL     OW19354   2.813   0.880   2.135
39116SOL    HW119355   2.828  11.975   2.210
39116SOL    HW219356   2.755   0.931   2.078
39117SOL     OW19357   3.119   5.877   1.156
39117SOL    HW119358   3.196   5.878  12.139
39117SOL    HW219359   3.139   5.812   1.223
39118SOL     OW19360  11.018  11.782   8.636
39118SOL    HW119361  11.016  11.688   8.655
39118SOL    HW219362  11.112 -10.276   8.633
39119SOL     OW19363   6.528  11.585   2.064
39119SOL    HW119364   6.507   0.466  13.055
39119SOL    HW219365 -15.466  11.613   2.031
39120SOL     OW19366   8.921   4.890  11.322
39120SOL    HW119367   8.954   4.838  11.395
39120SOL    HW219368 -13.251   4.866   0.275
39121SOL     OW19369   6.843   0.081   4.227
39121SOL    HW119370  -4.286   0.051  -6.829
39121SOL    HW219371   6.898   0.030   4.168
39122SOL     OW19372  10.225   3.333   6.955
39122SOL    HW119373  10.130   3.341   6.958
39122SOL    HW219374  10.253   3.355   7.044
39123SOL     OW19375   9.060  10.137   9.401
39123SOL    HW119376  -2.038  21.103   9.381
39123SOL    HW219377   9.069  10.135   9.496
39124SOL     OW19378   4.041   8.974   0.995
39124SOL    HW119379   3.972   9.040   0.979
39124SOL    HW219380   4.076  42.116   1.080
39125SOL     OW19381   1.014   2.806   8.692
39125SOL    HW119382   0.983  -8.291   8.762
39125SOL    HW219383  23.074   2.758   8.611
39126SOL     OW19384   9.213  -0.617   5.997
39126SOL    HW119385  20.207  10.355  -5.093
39126SOL    HW219386   9.182  10.505  -5.078
39127SOL     OW19387   5.011   0.882   2.842
39127SOL    HW119388   5.079  11.857 -19.256
39127SOL    HW219389   4.960  11.926   2.761
39128SOL     OW19390  10.494   5.577   4.449
39128SOL    HW119391  10.464  16.597   4.360
39128SOL    HW219392  10.427  16.676   4.484
39129SOL     OW19393   7.735   8.161  12.302
39129SOL    HW119394   7.655   8.115 -42.922
39129SOL    HW219395   7.750   8.226  23.273
39130SOL     OW19396   7.598   4.815   8.932
39130SOL    HW119397  18.564 -17.321  31.036
39130SOL    HW219398   7.676   4.760   8.942
39131SOL     OW19399   6.483   1.494   4.851
39131SOL    HW119400   6.566   1.504  15.845
39131SOL    HW219401   6.480   1.402   4.877
39132SOL     OW19402   4.184   2.895   3.569
39132SOL    HW119403   4.091   2.896  -7.448
39132SOL    HW219404   4.221   2.825 -18.457
39133SOL     OW19405   8.147   2.605   4.313
39133SOL    HW119406   8.235  13.646  15.313
39133SOL    HW219407   8.091  13.609  15.284
39134SOL     OW19408   3.356   2.818   8.028
39134SOL    HW119409   3.428   2.871  -3.045
39134SOL    HW219410   3.279   2.874  -3.020
39135SOL     OW19411   0.823   7.590   6.188
39135SOL    HW119412 -10.141   7.556 -15.844
39135SOL    HW219413  11.847  -3.363   6.226
39136SOL     OW19414  10.118   3.726   5.593
39136SOL    HW119415  10.187   3.712   5.658
39136SOL    HW219416  10.165  25.824  16.551
39137SOL     OW19417   0.443  10.793   6.676
39137SOL    HW119418   0.514  10.732  -4.385
39137SOL    HW219419   0.466  10.874   6.631
39138SOL     OW19420   1.488   8.993  10.944
39138SOL    HW119421   1.564   8.969  10.892
39138SOL    HW219422   1.498   8.944  11.026
39139SOL     OW19423   6.288   7.022   3.308
39139SOL    HW119424  17.354   7.077   3.234
39139SOL    HW219425   6.316   6.934   3.284
39140SOL     OW19426   1.659  11.039   9.107
39140SOL    HW119427  -9.434  11.098   9.054
39140SOL    HW219428   1.597  10.980   9.149
39141SOL     OW19429   5.031   8.828   6.057
39141SOL    HW119430   5.047   8.774  -4.905
39141SOL    HW219431   5.002   8.766   5.990
39142SOL     OW19432   7.434   7.379   3.965
39142SOL    HW119433   7.437  18.331   4.002
39142SOL    HW219434   7.412  18.475   4.040
39143SOL     OW19435   9.564   3.687   1.658
39143SOL    HW119436  31.728   3.668  -9.342
39143SOL    HW219437   9.570   3.651   1.570
39144SOL     OW19438   3.052  11.296   1.972
39144SOL    HW119439   3.079   0.219  13.096
39144SOL    HW219440   3.061  11.391  24.064
39145SOL     OW19441   7.085   3.749   5.454
39145SOL    HW119442 -26.090  14.835   5.516
39145SOL    HW219443 -14.935   3.816  -5.620
39146SOL     OW19444  11.732  10.892   4.904
39146SOL    HW119445 -10.308  10.866  37.940
39146SOL    HW219446  11.686 -11.106   4.885
39147SOL     OW19447  10.505   5.769   4.771
39147SOL    HW119448  10.570   5.775  26.780
39147SOL    HW219449  10.462   5.684  37.875
39148SOL     OW19450   8.500  11.231   4.810
39148SOL    HW119451   8.589   0.229  26.890
39148SOL    HW219452 -24.620  11.178   4.731
39149SOL     OW19453  -2.165  -0.222   9.083
39149SOL    HW119454  42.040  21.794   9.029
39149SOL    HW219455   8.879  10.899  -2.007
39150SOL     OW19456   4.807   5.017   3.641
39150SOL    HW119457   4.807  16.148   3.670
39150SOL    HW219458   4.843  -6.071   3.715
39151SOL     OW19459   4.709   6.725   4.683
39151SOL    HW119460   4.796 -15.316   4.681
39151SOL    HW219461   4.704 -15.396   4.770
39152SOL     OW19462   3.986  -2.279   4.714
39152SOL    HW119463  15.085  30.768   4.690
39152SOL    HW219464   3.918  30.838   4.646
39153SOL     OW19465   5.486   9.416   5.455
39153SOL    HW119466  27.612  -1.559  16.442
39153SOL    HW219467   5.436   9.366   5.392
39154SOL     OW19468   8.471   4.869   6.209
39154SOL    HW119469   8.543  15.848  17.268
39154SOL    HW219470   8.393   4.824  17.282
39155SOL     OW19471   5.804   3.584   6.316
39155SOL    HW119472   5.828   3.510  -4.668
39155SOL    HW219473   5.709   3.579 -26.809
39156SOL     OW19474   5.534  10.842   2.747
39156SOL    HW119475   5.463  10.905   2.735
39156SOL    HW219476   5.581  10.873   2.824
39157SOL     OW19477   8.678   8.337  10.264
39157SOL    HW119478   8.726   8.397  10.207
39157SOL    HW219479  19.680   8.273  10.204
39158SOL     OW19480   6.524   8.625   4.178
39158SOL    HW119481  17.474   8.660   4.183
39158SOL    HW219482   6.575 -13.395   4.233
39159SOL     OW19483   3.248   4.850   3.828
39159SOL    HW119484   3.233   4.757   3.840
39159SOL    HW219485   3.335   4.856   3.788
39160SOL     OW19486   8.655   7.821   5.274
39160SOL    HW119487   8.651  -3.263 -27.760
39160SOL    HW219488  -2.367   7.752  16.251
39161SOL     OW19489   0.978   2.183   2.007
39161SOL    HW119490  23.070   2.277   2.018
39161SOL    HW219491   0.919   2.159  24.158
39162SOL     OW19492   5.682   4.033  10.503
39162SOL    HW119493   5.670   3.952  10.453
39162SOL    HW219494   5.597  -6.992  10.546
39163SOL     OW19495   2.335   2.134   2.910
39163SOL    HW119496   2.324  -8.890   3.004
39163SOL    HW219497  35.367   2.112  24.957
39164SOL     OW19498  -0.201   5.131   0.895
39164SOL    HW119499  10.899   5.094   0.960
39164SOL    HW219500  -0.250   5.056  22.941
39165SOL     OW19501   3.266   7.935   2.157
39165SOL    HW119502   3.281   7.889   2.074
39165SOL    HW219503   3.195   7.997   2.137
39166SOL     OW19504   1.004  10.590   4.306
39166SOL    HW119505   0.932  -0.438   4.244
39166SOL    HW219506   0.962  -0.459 -17.688
39167SOL     OW19507  10.723   5.229   6.916
39167SOL    HW119508  10.746   5.289   6.986
39167SOL    HW219509 -11.273   5.188   6.891
39168SOL     OW19510  10.805   9.969   4.175
39168SOL    HW119511  10.773  10.044   4.225
39168SOL    HW219512  10.812   9.899   4.239
39169SOL     OW19513   8.450   5.605   1.882
39169SOL    HW119514   8.398   5.678   1.848
39169SOL    HW219515   8.453   5.541   1.811
39170SOL     OW19516   9.160   7.543   2.188
39170SOL    HW119517   9.167  18.541   2.102
39170SOL    HW219518  31.186   7.483 -19.840
39171SOL     OW19519   4.385   6.830   9.288
39171SOL    HW119520  -6.702   6.847   9.369
39171SOL    HW219521   4.390   6.735   9.283
39172SOL     OW19522   5.483   3.366   8.435
39172SOL    HW119523  49.594 -18.666  19.406
39172SOL    HW219524   5.430   3.287   8.450
39173SOL     OW19525   8.088   1.210   2.948
39173SOL    HW119526   8.001  12.277   2.978
39173SOL    HW219527  19.178  45.450 -19.133
39174SOL     OW19528   7.112   9.874   5.224
39174SOL    HW119529  29.120   9.908   5.279
39174SOL    HW219530   7.069   9.824  71.393
39175SOL     OW19531   8.838   5.925   9.590
39175SOL    HW119532   8.780  -5.171   9.641
39175SOL    HW219533  30.996  16.972   9.644
39176SOL     OW19534   1.902   3.688  11.008
39176SOL    HW119535   1.892   3.757  10.942
39176SOL    HW219536   1.822  14.733   0.021
39177SOL     OW19537   1.795   5.239   9.113
39177SOL    HW119538 -20.194   5.270   9.120
39177SOL    HW219539   1.755   5.259   9.198
39178SOL     OW19540   5.264   6.701   6.360
39178SOL    HW119541  16.351 -26.415   6.276
39178SOL    HW219542   5.332   6.708  28.505
39179SOL     OW19543   0.892   6.445   8.099
39179SOL    HW119544   0.799   6.464   8.102
39179SOL    HW219545   0.911   6.399  41.299
39180SOL     OW19546   6.438   7.468   7.489
39180SOL    HW119547   6.402   7.481   7.576
39180SOL    HW219548   6.405  18.581  40.556
39181SOL     OW19549   3.172   2.840   9.568
39181SOL    HW119550   3.201  -8.222   9.656
39181SOL    HW219551  -7.826   2.775   9.512
39182SOL     OW19552   0.662   3.662   7.437
39182SOL    HW119553   0.743   3.621  -3.573
39182SOL    HW219554  22.737   3.641   7.343
39183SOL     OW19555   8.099   1.154   4.013
39183SOL    HW119556  30.106   1.130   4.071
39183SOL    HW219557  -2.980  12.254   3.950
39184SOL     OW19558   4.516   3.775   0.039
39184SOL    HW119559   4.513  14.836  11.172
39184SOL    HW219560   4.508  14.720 -11.004
39185SOL     OW19561  10.346   7.259   5.672
39185SOL    HW119562  10.251   7.243  27.744
39185SOL    HW219563  10.357  18.340   5.757
39186SOL     OW19564  10.920   6.108   7.841
39186SOL    HW119565  -0.103   6.202   7.847
39186SOL    HW219566  21.959   6.091  -3.293
39187SOL     OW19567   0.780   7.504   1.084
39187SOL    HW119568   0.820   7.589   1.105
39187SOL    HW219569   0.849  29.534  -9.999
39188SOL     OW19570  10.570   3.492   9.378
39188SOL    HW119571  10.476   3.499  -1.644
39188SOL    HW219572  10.592 -18.678   9.400
39189SOL     OW19573   3.034   2.158   1.942
39189SOL    HW119574   2.996   2.184  -9.014
39189SOL    HW219575   3.058  13.281   1.900
39190SOL     OW19576   2.430  10.122   8.803
39190SOL    HW119577   2.400  -0.908   8.712
39190SOL    HW219578   2.483 -23.077   8.802
39191SOL     OW19579   2.903  11.623   8.310
39191SOL    HW119580   2.944  11.536   8.311
39191SOL    HW219581 -30.149   0.642   8.347
39192SOL     OW19582   1.282  10.656   3.282
39192SOL    HW119583   1.260  10.723   3.346
39192SOL    HW219584   1.241  10.576   3.315
39193SOL     OW19585   4.591  10.532  11.501
39193SOL    HW119586   4.497  -0.492 -10.565
39193SOL    HW219587  26.709  10.545 -10.491
39194SOL     OW19588   0.075   4.484   1.755
39194SOL    HW119589   0.036   4.433   1.684
39194SOL    HW219590   0.011   4.479   1.826
39195SOL     OW19591  11.461   5.026   8.797
39195SOL    HW119592  11.441   5.115   8.767
39195SOL    HW219593   0.444   4.978   8.717
39196SOL     OW19594   8.668   9.153   7.323
39196SOL    HW119595   8.701  20.260  51.422
39196SOL    HW219596  19.713   9.192  29.489
39197SOL     OW19597   4.096   4.529   8.323
39197SOL    HW119598  15.159  15.610   8.240
39197SOL    HW219599  15.170   4.440  19.356
39198SOL     OW19600   6.948  10.250   1.202
39198SOL    HW119601   7.042  10.234   1.208
39198SOL    HW219602  29.015 -11.787   1.117
39199SOL     OW19603  -2.440  11.361   8.863
39199SOL    HW119604  41.775  22.477   8.851
39199SOL    HW219605   8.602 -10.735   8.958
39200SOL     OW19606   3.088   1.156  10.815
39200SOL    HW119607  14.124   1.202  10.732
39200SOL    HW219608   3.178   1.166  -0.195
39201SOL     OW19609   2.258   1.767  -0.599
39201SOL    HW119610   2.292   1.849  10.476
39201SOL    HW219611   2.323   1.739  -0.663
39202SOL     OW19612   4.086   7.281   3.002
39202SOL    HW119613   4.073   7.314   2.913
39202SOL    HW219614  -7.040   7.286   3.042
39203SOL     OW19615  10.403   1.614   9.550
39203SOL    HW119616  10.438   1.703 -23.565
39203SOL    HW219617  21.364   1.622  -1.544
39204SOL     OW19618   9.686   8.295   5.024
39204SOL    HW119619  -1.440   8.323 -17.083
39204SOL    HW219620   9.724   8.371   5.067
39205SOL     OW19621   3.722   2.390   7.309
39205SOL    HW119622   3.671   2.468   7.333
39205SOL    HW219623  14.728   2.321   7.366
39206SOL     OW19624  -0.880   9.769   0.304
39206SOL    HW119625  21.270   9.706  22.371
39206SOL    HW219626  -0.835   9.852  11.361
39207SOL     OW19627   0.760   5.068   3.871
39207SOL    HW119628  11.882   5.056   3.825
39207SOL    HW219629  11.735  16.059  14.859
39208SOL     OW19630   1.527   4.634   6.299
39208SOL    HW119631  23.542 -17.514   6.316
39208SOL    HW219632   1.589  -6.445   6.238
39209SOL     OW19633   4.606   5.329  -0.498
39209SOL    HW119634  26.735   5.362  10.467
39209SOL    HW219635   4.515   5.329  -0.528
39210SOL     OW19636   3.743   4.239   3.978
39210SOL    HW119637  14.812   4.274   4.062
39210SOL    HW219638   3.823   4.208   3.935
39211SOL     OW19639   5.732   7.134   1.842
39211SOL    HW119640   5.747 -15.018   1.781
39211SOL    HW219641   5.704 -14.873   1.786
39212SOL     OW19642   0.556   9.589   3.985
39212SOL    HW119643   0.483   9.561   3.929
39212SOL    HW219644   0.613   9.639   3.927
39213SOL     OW19645   6.766   0.571   0.862
39213SOL    HW119646   6.813 -10.550   0.877
39213SOL    HW219647  39.822  11.615   0.934
39214SOL     OW19648   9.260   4.874   1.628
39214SOL    HW119649   9.344  -6.211  12.681
39214SOL    HW219650   9.215  15.907  -9.327
39215SOL     OW19651   8.345   9.938   5.257
39215SOL    HW119652   8.268  -1.142   5.297
39215SOL    HW219653   8.389   9.866   5.211
39216SOL     OW19654   9.301   5.926   5.488
39216SOL    HW119655   9.209   5.915   5.465
39216SOL    HW219656   9.315   6.021   5.486
39217SOL     OW19657   4.710   7.698   3.218
39217SOL    HW119658   4.659   7.638   3.273
39217SOL    HW219659   4.671   7.689   3.131
39218SOL     OW19660   7.456   1.324   4.311
39218SOL    HW119661   7.531   1.360   4.265
39218SOL    HW219662   7.486   1.240   4.345
39219SOL     OW19663   1.242   5.121   0.406
39219SOL    HW119664   1.223 -16.977   0.315
39219SOL    HW219665  34.429  16.228  11.442
39220SOL     OW19666   8.112   8.323   0.436
39220SOL    HW119667   8.129   8.251   0.496
39220SOL    HW219668   8.026   8.303   0.398
39221SOL     OW19669   0.791  10.276   7.899
39221SOL    HW119670  11.866  10.344   7.956
39221SOL    HW219671  11.766  10.321  18.884
39222SOL     OW19672   8.814   2.837   9.578
39222SOL    HW119673   8.785   2.811   9.666
39222SOL    HW219674   8.803   2.759   9.525
39223SOL     OW19675  -1.663  10.413   3.590
39223SOL    HW119676  -1.727  10.395   3.659
39223SOL    HW219677  31.406  21.495  14.560
39224SOL     OW19678   4.403   1.085   6.173
39224SOL    HW119679 -17.674   1.077  28.157
39224SOL    HW219680  15.418   1.177  -4.852
39225SOL     OW19681   4.194   1.331   2.210
39225SOL    HW119682  -6.913   1.297   2.270
39225SOL    HW219683  15.255   1.417   2.244
39226SOL     OW19684  11.107   8.582   0.021
39226SOL    HW119685  11.027   8.588  -0.031
39226SOL    HW219686   0.129 -13.544  -0.036
39227SOL     OW19687   6.672   6.216   6.474
39227SOL    HW119688   6.685   6.183   6.385
39227SOL    HW219689   6.760   6.214  17.553
39228SOL     OW19690   7.464   5.068   6.969
39228SOL    HW119691   7.538   5.129   6.977
39228SOL    HW219692  29.522   5.045   7.059
39229SOL     OW19693   1.934   4.746   6.515
39229SOL    HW119694   1.952   4.657  -4.553
39229SOL    HW219695   1.906   4.737  -4.433
39230SOL     OW19696   0.993   5.213  11.494
39230SOL    HW119697   1.072   5.161   0.437
39230SOL    HW219698   0.947   5.165  11.563
39231SOL     OW19699   6.136   1.995   7.505
39231SOL    HW119700   6.126  13.128   7.526
39231SOL    HW219701   6.157  12.994   7.590
39232SOL     OW19702   5.950   8.665   2.359
39232SOL    HW119703  -5.021   8.694   2.298
39232SOL    HW219704 -38.173   8.685   2.445
39233SOL     OW19705   8.778   9.975   0.346
39233SOL    HW119706   8.873  -1.071  11.393
39233SOL    HW219707   8.760  10.069  11.389
39234SOL     OW19708  -0.053   1.992   9.168
39234SOL    HW119709  10.955  13.105   9.115
39234SOL    HW219710  33.152   1.973   9.132
39235SOL     OW19711   7.984   4.349  -0.488
39235SOL    HW119712   7.927   4.307  10.487
39235SOL    HW219713   8.059  15.329  32.637
39236SOL     OW19714  -1.565   3.459  11.414
39236SOL    HW119715  -1.495  14.443  11.380
39236SOL    HW219716  31.503   3.483   0.297
39237SOL     OW19717   2.567   3.685   6.773
39237SOL    HW119718 -19.532   3.676  -4.173
39237SOL    HW219719  13.689  14.676  -4.278
39238SOL     OW19720   6.687   8.617  -0.622
39238SOL    HW119721  -4.353   8.686  21.524
39238SOL    HW219722   6.774  -2.462  -0.616
39239SOL     OW19723   3.292   1.729  10.618
39239SOL    HW119724   3.299   1.814  10.574
39239SOL    HW219725   3.303   1.749  10.710
39240SOL     OW19726   4.881  10.723   7.698
39240SOL    HW119727  15.857  10.660  18.702
39240SOL    HW219728  27.037  10.670   7.718
39241SOL     OW19729  11.048   8.102   2.485
39241SOL    HW119730   0.039   8.028   2.433
39241SOL    HW219731  11.044   8.175   2.423
39242SOL     OW19732   1.798   5.588   6.705
39242SOL    HW119733   1.746   5.668 -15.374
39242SOL    HW219734   1.733   5.518  -4.327
39243SOL     OW19735   9.042   0.927   6.373
39243SOL    HW119736  20.060  12.033  39.426
39243SOL    HW219737   9.135   0.940  28.471
39244SOL     OW19738  10.824   8.518  10.521
39244SOL    HW119739  10.801  19.618  10.451
39244SOL    HW219740  10.794  19.472  10.490
39245SOL     OW19741   2.160   9.140   5.941
39245SOL    HW119742 -19.984   9.075   5.968
39245SOL    HW219743   2.208   9.098  16.910
39246SOL     OW19744   5.688   9.771   2.445
39246SOL    HW119745   5.669   9.839  24.589
39246SOL    HW219746   5.720   9.697  13.537
39247SOL     OW19747   6.279   8.799   4.055
39247SOL    HW119748 -15.809  19.925   4.096
39247SOL    HW219749   6.206   8.748   4.090
39248SOL     OW19750   4.958   4.089   6.426
39248SOL    HW119751  15.928   4.030  28.477
39248SOL    HW219752   5.005   4.111  39.464
39249SOL     OW19753   2.099   8.667   2.299
39249SOL    HW119754   2.066  30.661  13.309
39249SOL    HW219755   2.152   8.646   2.376
39250SOL     OW19756   7.362   4.063   1.065
39250SOL    HW119757   7.296 -29.065  -9.906
39250SOL    HW219758   7.389   4.155  12.109
39251SOL     OW19759   7.919  10.560   6.917
39251SOL    HW119760  -3.044  10.601   6.875
39251SOL    HW219761   7.874  10.633   6.959
39252SOL     OW19762   8.690   1.519   8.814
39252SOL    HW119763  30.804   1.500   8.901
39252SOL    HW219764  -2.436  -9.563   8.814
39253SOL     OW19765   7.550   2.805   7.160
39253SOL    HW119766   7.560   2.816   7.255
39253SOL    HW219767  18.500   2.773  -3.889
39254SOL     OW19768   6.103   9.820   0.403
39254SOL    HW119769  50.236   9.831  11.351
39254SOL    HW219770   6.028   9.854   0.453
39255SOL     OW19771   5.288   6.547   5.960
39255SOL    HW119772   5.225  28.557   5.980
39255SOL    HW219773   5.238   6.612   5.912
39256SOL     OW19774   4.965   6.995  10.971
39256SOL    HW119775  -5.998   6.953  10.933
39256SOL    HW219776   4.930  18.089 -33.257
39257SOL     OW19777   4.037   5.464   3.896
39257SOL    HW119778   4.039   5.544   3.948
39257SOL    HW219779   4.078  27.567   3.813
39258SOL     OW19780   2.250   5.972   9.388
39258SOL    HW119781   2.307  -5.130   9.342
39258SOL    HW219782   2.229  39.047   9.470
39259SOL     OW19783   3.956   1.128   3.215
39259SOL    HW119784   3.963  34.202   3.299
39259SOL    HW219785   3.886  23.160  -7.871
39260SOL     OW19786   6.124   2.841   7.950
39260SOL    HW119787   6.104  -8.292   7.943
39260SOL    HW219788   6.057   2.875   8.009
39261SOL     OW19789   2.779   4.294   0.074
39261SOL    HW119790   2.773   4.199   0.057
39261SOL    HW219791  -8.213   4.301   0.156
39262SOL     OW19792   7.641   5.699   3.657
39262SOL    HW119793   7.706  16.774   3.719
39262SOL    HW219794   7.670   5.610  -7.400
39263SOL     OW19795   6.810   5.661  10.452
39263SOL    HW119796   6.771   5.658  10.365
39263SOL    HW219797   6.857   5.579  10.461
39264SOL     OW19798   6.529   4.738   9.608
39264SOL    HW119799  17.623   4.797   9.659
39264SOL    HW219800   6.583   4.659  31.675
39265SOL     OW19801   3.814   0.833  10.518
39265SOL    HW119802   3.854   0.758  10.473
39265SOL    HW219803  -7.181   0.837  10.603
39266SOL     OW19804  11.415   7.313  10.448
39266SOL    HW119805  11.360  29.320  10.418
39266SOL    HW219806   0.378  29.383  10.543
39267SOL     OW19807  -1.618   2.251   0.009
39267SOL    HW119808  -1.637  24.422   0.026
39267SOL    HW219809  31.541  35.338   0.090
39268SOL     OW19810   4.510   1.364   9.399
39268SOL    HW119811   4.482   1.310 -12.754
39268SOL    HW219812   4.571  -9.613 -12.718
39269SOL     OW19813   9.693   2.255   9.468
39269SOL    HW119814   9.653   2.251  -1.485
39269SOL    HW219815  -1.309   2.343 -12.616
39270SOL     OW19816   4.462   2.660   3.449
39270SOL    HW119817   4.481   2.714   3.372
39270SOL    HW219818   4.547  -8.413   3.477
39271SOL     OW19819  10.502   2.708   1.438
39271SOL    HW119820  10.432   2.767   1.466
39271SOL    HW219821  10.526   2.660   1.518
39272SOL     OW19822   5.847   7.794   5.810
39272SOL    HW119823 -16.165   7.860   5.793
39272SOL    HW219824   5.766   7.833   5.779
39273SOL     OW19825   3.807   0.599   9.964
39273SOL    HW119826   3.861  11.563   9.941
39273SOL    HW219827  -7.313  33.679   9.999
39274SOL     OW19828   0.404   5.759   8.887
39274SOL    HW119829   0.379  16.887 -24.259
39274SOL    HW219830   0.491   5.769   8.925
39275SOL     OW19831   4.715   9.836   2.683
39275SOL    HW119832   4.721   9.891  -8.434
39275SOL    HW219833  -6.418   9.814   2.690
39276SOL     OW19834   7.178   5.030  10.089
39276SOL    HW119835   7.218   4.961 -23.083
39276SOL    HW219836   7.230   5.108 -23.048
39277SOL     OW19837   6.319   0.715   2.158
39277SOL    HW119838   6.341   0.733  24.328
39277SOL    HW219839   6.398   0.674   2.122
39278SOL     OW19840   9.718   5.156  10.526
39278SOL    HW119841   9.746   5.166  -0.423
39278SOL    HW219842  20.838   5.133  10.479
39279SOL     OW19843   5.662  11.202   7.328
39279SOL    HW119844   5.662   0.078   7.372
39279SOL    HW219845   5.644  11.266  18.437
39280SOL     OW19846   0.784   2.480   2.591
39280SOL    HW119847   0.742   2.555   2.634
39280SOL    HW219848  11.902   2.516   2.551
39281SOL     OW19849   1.252   7.366   4.995
39281SOL    HW119850  -9.817  18.478  -5.989
39281SOL    HW219851  12.278  29.477  15.946
39282SOL     OW19852   6.180   3.277   0.835
39282SOL    HW119853   6.216   3.285   0.746
39282SOL    HW219854   6.156  14.406   0.858
39283SOL     OW19855   8.646   7.117  13.757
39283SOL    HW119856   8.717   7.054 -19.359
39283SOL    HW219857  19.697   7.170 -19.283
39284SOL     OW19858  -1.216   3.013   4.706
39284SOL    HW119859  -1.172   2.956  -6.397
39284SOL    HW219860  20.901   2.989   4.790
39285SOL     OW19861   9.135   6.688  10.746
39285SOL    HW119862   9.171   6.771  10.776
39285SOL    HW219863   9.203   6.623  10.767
39286SOL     OW19864   1.665   6.937   2.865
39286SOL    HW119865  23.692   6.902   2.793
39286SOL    HW219866  12.743  -4.022  13.870
39287SOL     OW19867  11.038  10.296   1.516
39287SOL    HW119868  11.023  21.259   1.572
39287SOL    HW219869  11.060  10.366   1.578
39288SOL     OW19870   8.923   3.264   0.752
39288SOL    HW119871   8.873   3.219   0.820
39288SOL    HW219872   8.857   3.317   0.705
39289SOL     OW19873   0.682   4.437   2.530
39289SOL    HW119874 -10.440  -6.650   2.520
39289SOL    HW219875   0.695   4.444  -8.415
39290SOL     OW19876   7.830  10.921   4.410
39290SOL    HW119877   7.880  10.839   4.412
39290SOL    HW219878   7.801  -0.107  -6.539
39291SOL     OW19879   3.611   8.334   9.334
39291SOL    HW119880  36.670   8.407   9.346
39291SOL    HW219881  36.688   8.261   9.381
39292SOL     OW19882   1.900   8.691   9.492
39292SOL    HW119883  -9.167  19.808   9.442
39292SOL    HW219884  35.076  -2.397  -1.608
39293SOL     OW19885   8.855   2.609   3.942
39293SOL    HW119886   8.901   2.555   4.006
39293SOL    HW219887   8.916   2.680 -18.156
39294SOL     OW19888   7.007   3.979   8.557
39294SOL    HW119889   7.033  -6.977 -13.560
39294SOL    HW219890   7.049  25.992   8.503
39295SOL     OW19891   8.555   4.222   7.634
39295SOL    HW119892  -2.519  -6.729   7.628
39295SOL    HW219893   8.534 -17.885   7.723
39296SOL     OW19894   1.305   3.283   1.180
39296SOL    HW119895  12.273  -7.717   1.230
39296SOL    HW219896  23.442   3.245  23.325
39297SOL     OW19897   0.927   2.615   3.457
39297SOL    HW119898   0.863  13.710 -18.577
39297SOL    HW219899   0.885  13.631   3.374
39298SOL     OW19900   3.790   6.451   5.866
39298SOL    HW119901   3.742   6.430   5.946
39298SOL    HW219902   3.816   6.543  38.996
39299SOL     OW19903  10.316   8.084   7.420
39299SOL    HW119904  10.385   8.071   7.485
39299SOL    HW219905  10.252  19.054  29.518
39300SOL     OW19906   7.383   1.051   4.689
39300SOL    HW119907   7.337   1.043   4.605
39300SOL    HW219908   7.313   1.056   4.754
39301SOL     OW19909   5.750   0.180   1.925
39301SOL    HW119910   5.816  11.178   1.870
39301SOL    HW219911   5.685  11.253   1.864
39302SOL     OW19912   0.088  10.832   8.836
39302SOL    HW119913  11.193  10.850   8.768
39302SOL    HW219914   0.037  10.759   8.803
39303SOL     OW19915   7.845   3.848  10.862
39303SOL    HW119916   7.848   3.752  -0.170
39303SOL    HW219917   7.914   3.878  10.920
39304SOL     OW19918   2.744   2.062   8.131
39304SOL    HW119919   2.796   2.089  -2.984
39304SOL    HW219920  13.703   2.113   8.124
39305SOL     OW19921   9.053   8.051   6.797
39305SOL    HW119922   9.006   8.134   6.800
39305SOL    HW219923   9.104   8.055   6.716
39306SOL     OW19924   0.240   0.491   8.586
39306SOL    HW119925   0.285   0.438   8.651
39306SOL    HW219926   0.165   0.437   8.559
39307SOL     OW19927   1.288   7.570  10.986
39307SOL    HW119928   1.315  18.699  10.967
39307SOL    HW219929   1.237  -3.463  11.066
39308SOL     OW19930   8.127   6.950   2.714
39308SOL    HW119931  19.083   6.927  -8.286
39308SOL    HW219932 -25.013   6.986  13.668
39309SOL     OW19933   1.410   7.635   6.103
39309SOL    HW119934   1.471  29.736   6.174
39309SOL    HW219935   1.455  18.706   6.024
39310SOL     OW19936   6.899   7.823   1.655
39310SOL    HW119937   6.947  29.959   1.715
39310SOL    HW219938  28.886  18.877   1.676
39311SOL     OW19939   5.526  10.513   2.343
39311SOL    HW119940   5.569  10.539   2.262
39311SOL    HW219941  27.540  -0.458  35.478
39312SOL     OW19942   5.408   0.942   2.076
39312SOL    HW119943   5.499  12.006   2.057
39312SOL    HW219944   5.356   1.012   2.037
39313SOL     OW19945   3.515   2.482   2.801
39313SOL    HW119946   3.517  13.524  13.937
39313SOL    HW219947   3.432  24.518   2.780
39314SOL     OW19948   4.951   5.383  -0.280
39314SOL    HW119949   4.886   5.314  32.830
39314SOL    HW219950   4.901  16.503  21.801
39315SOL     OW19951   8.423   8.967   4.051
39315SOL    HW119952   8.514   8.997   4.062
39315SOL    HW219953 -13.688   9.015   3.975
39316SOL     OW19954   7.146   0.844   0.942
39316SOL    HW119955  18.106   0.864   0.993
39316SOL    HW219956   7.126   0.761   0.898
39317SOL     OW19957   7.273   0.539   2.184
39317SOL    HW119958   7.193   0.491   2.204
39317SOL    HW219959 -14.746   0.473   2.150
39318SOL     OW19960   1.278  10.071   5.297
39318SOL    HW119961  12.372  -1.041 -27.852
39318SOL    HW219962  34.456  21.166   5.347
39319SOL     OW19963   0.280   5.361  11.300
39319SOL    HW119964   0.191   5.330 -32.841
39319SOL    HW219965  11.368   5.282  11.279
39320SOL     OW19966  -0.189   9.510   3.737
39320SOL    HW119967  10.844  42.567   3.809
39320SOL    HW219968  -0.263  -1.470   3.749
39321SOL     OW19969   1.178   1.280   8.581
39321SOL    HW119970  -9.781  23.315 -24.562
39321SOL    HW219971   1.149  12.362   8.500
39322SOL     OW19972   7.452   2.141   7.784
39322SOL    HW119973   7.436   2.232   7.757
39322SOL    HW219974   7.518  -8.892   7.853
39323SOL     OW19975   3.292   0.428   0.435
39323SOL    HW119976   3.267   0.453   0.524
39323SOL    HW219977   3.357   0.494   0.410
39324SOL     OW19978   7.686   3.916   6.795
39324SOL    HW119979  40.815  -7.039   6.751
39324SOL    HW219980  18.779 -18.224   6.743
39325SOL     OW19981   2.964   6.676  10.958
39325SOL    HW119982   2.886   6.654  10.908
39325SOL    HW219983   2.988   6.595  11.002
39326SOL     OW19984   0.250   8.334   4.783
39326SOL    HW119985   0.241   8.425   4.753
39326SOL    HW219986   0.188   8.285  26.808
39327SOL     OW19987   6.660   2.454   8.006
39327SOL    HW119988   6.637  24.614  30.132
39327SOL    HW219989   6.607   2.386   8.050
39328SOL     OW19990  10.529   1.295   1.351
39328SOL    HW119991  10.564  12.424  -9.684
39328SOL    HW219992  10.606   1.241   1.333
39329SOL     OW19993   8.204   8.521   9.065
39329SOL    HW119994   8.141  19.499   9.028
39329SOL    HW219995   8.281   8.468   9.084
39330SOL     OW19996   9.276  10.993   5.936
39330SOL    HW119997   9.241 -11.025   5.871
39330SOL    HW219998 -12.878  21.978  -5.079
39331SOL     OW19999   0.010   9.553   2.542
39331SOL    HW120000   0.099   9.519  35.670
39331SOL    HW220001  -0.029   9.497   2.475
39332SOL     OW20002   0.284   8.869   4.079
39332SOL    HW120003   0.338  -2.098  15.088
39332SOL    HW220004   0.219   8.910  15.176
39333SOL     OW20005   2.574   3.825   3.547
39333SOL    HW120006  24.609   3.753  14.631
39333SOL    HW220007  -8.384  -7.254   3.513
39334SOL     OW20008   1.100   8.117   0.684
39334SOL    HW120009   1.157   8.073  22.700
39334SOL    HW220010   1.032   8.053  22.783
39335SOL     OW20011   6.253   1.022   8.752
39335SOL    HW120012   6.327   1.083   8.759
39335SOL    HW220013  -4.846   1.063   8.689
39336SOL     OW20014   6.834   6.647   2.243
39336SOL    HW120015   6.764  -4.441   2.201
39336SOL    HW220016  17.904 -15.371  -8.864
39337SOL     OW20017   8.972  10.322   1.942
39337SOL    HW120018   8.914  10.283  13.047
39337SOL    HW220019  19.996  10.269  34.982
39338SOL     OW20020  -1.412   2.278   9.728
39338SOL    HW120021   9.670   2.196   9.753
39338SOL    HW220022  20.687   2.338   9.799
39339SOL     OW20023   6.547   3.111   8.916
39339SOL    HW120024   6.489   3.185   8.894
39339SOL    HW220025   6.629   3.131  -2.169
39340SOL     OW20026   3.610   0.121   2.994
39340SOL    HW120027   3.594   0.215   3.005
39340SOL    HW220028   3.635  11.131   3.082
39341SOL     OW20029   3.555   9.785  10.098
39341SOL    HW120030  14.644   9.704  10.111
39341SOL    HW220031   3.463   9.757  10.097
39342SOL     OW20032   6.105   7.376   2.306
39342SOL    HW120033   6.012  18.438   2.300
39342SOL    HW220034   6.146   7.425  24.314
39343SOL     OW20035   9.584   3.172   1.631
39343SOL    HW120036   9.660   3.202   1.681
39343SOL    HW220037   9.547 -18.827 -20.486
39344SOL     OW20038   9.110   3.839   4.184
39344SOL    HW120039   9.118   3.931 -17.920
39344SOL    HW220040   9.180   3.825   4.248
39345SOL     OW20041   5.641   0.577   1.521
39345SOL    HW120042  -5.370   0.636   1.451
39345SOL    HW220043  27.653   0.626   1.568
39346SOL     OW20044   1.404   5.987   7.996
39346SOL    HW120045   1.373  17.109   8.033
39346SOL    HW220046   1.394   5.923   8.067
39347SOL     OW20047   0.279   5.212   5.762
39347SOL    HW120048 -10.815  27.330   5.830
39347SOL    HW220049  22.448  16.267   5.792
39348SOL     OW20050   7.104   1.036   1.358
39348SOL    HW120051   7.198 -10.007   1.340
39348SOL    HW220052   7.062   1.021   1.274
39349SOL     OW20053  12.234   1.974   5.507
39349SOL    HW120054  -9.850  13.092  27.531
39349SOL    HW220055  12.317   1.933   5.483
39350SOL     OW20056   8.860   9.312   6.768
39350SOL    HW120057   8.767   9.287   6.762
39350SOL    HW220058   8.860   9.406   6.749
39351SOL     OW20059   5.058   7.380   1.965
39351SOL    HW120060   4.975   7.425  -9.058
39351SOL    HW220061   5.100   7.374   2.051
39352SOL     OW20062   7.188  10.661   5.522
39352SOL    HW120063   7.184  10.649   5.617
39352SOL    HW220064   7.096  10.668   5.496
39353SOL     OW20065  11.701   2.755   6.521
39353SOL    HW120066 -21.412   2.715   6.608
39353SOL    HW220067  11.783   2.731   6.478
39354SOL     OW20068   7.353   0.008  10.088
39354SOL    HW120069   7.297   0.019  10.010
39354SOL    HW220070  -3.670   0.097  10.118
39355SOL     OW20071   8.271   8.942   8.800
39355SOL    HW120072   8.237   8.890   8.873
39355SOL    HW220073  19.397  -2.070   8.829
39356SOL     OW20074   0.221   3.403   7.279
39356SOL    HW120075  22.347  14.403   7.353
39356SOL    HW220076   0.130   3.380   7.293
39357SOL     OW20077   6.449   1.595  -0.297
39357SOL    HW120078   6.463  -9.355  -0.268
39357SOL    HW220079   6.534  -9.473  10.709
39358SOL     OW20080   5.767   7.724  11.394
39358SOL    HW120081  27.899   7.712 -10.764
39358SOL    HW220082   5.682  -3.285   0.322
39359SOL     OW20083   0.830   5.725   9.311
39359SOL    HW120084   0.864   5.688   9.229
39359SOL    HW220085   0.848   5.818   9.305
39360SOL     OW20086   9.017   4.894   6.946
39360SOL    HW120087   9.013   4.874   6.853
39360SOL    HW220088   8.935  15.899   6.982
39361SOL     OW20089   1.449   0.830  10.461
39361SOL    HW120090  12.442  11.875  10.544
39361SOL    HW220091   1.385   0.798  10.398
39362SOL     OW20092   9.569   8.516  -0.265
39362SOL    HW120093   9.637  -2.527  -0.198
39362SOL    HW220094 -23.598   8.597  10.795
39363SOL     OW20095   5.431   0.401   2.685
39363SOL    HW120096   5.397  11.493   2.757
39363SOL    HW220097  16.394   0.380   2.632
39364SOL     OW20098   4.713  11.157   0.427
39364SOL    HW120099   4.635   0.064   0.440
39364SOL    HW220100   4.690  11.243   0.464
39365SOL     OW20101   3.825   8.796  11.529
39365SOL    HW120102   3.812  19.812  11.621
39365SOL    HW220103   3.801   8.888 -10.555
39366SOL     OW20104   1.212  10.481  10.306
39366SOL    HW120105   1.174  10.401  10.342
39366SOL    HW220106   1.290  10.453  10.260
39367SOL     OW20107   6.810  10.262   4.794
39367SOL    HW120108   6.799  21.390   4.828
39367SOL    HW220109  62.030  10.209   4.870
39368SOL     OW20110   0.392   9.003   7.015
39368SOL    HW120111   0.451   8.939  -3.986
39368SOL    HW220112  33.556  20.126   7.027
39369SOL     OW20113   6.228   5.616   9.719
39369SOL    HW120114  -4.887   5.567   9.688
39369SOL    HW220115 -15.862   5.703   9.680
39370SOL     OW20116   4.010  10.808   6.511
39370SOL    HW120117   3.956  10.772   6.581
39370SOL    HW220118  -7.083  10.879  28.553
39371SOL     OW20119   4.326   2.046   5.059
39371SOL    HW120120   4.400   1.989   5.037
39371SOL    HW220121   4.315   2.102   4.982
39372SOL     OW20122   1.198   8.764   6.326
39372SOL    HW120123  -9.913   8.710   6.292
39372SOL    HW220124   1.243   8.708   6.388
39373SOL     OW20125  11.995   2.900   1.926
39373SOL    HW120126  12.066  -8.123   1.864
39373SOL    HW220127 -32.181   2.807   1.918
39374SOL     OW20128  10.492   8.657  10.131
39374SOL    HW120129  10.426  19.744  10.180
39374SOL    HW220130  10.553   8.725  10.101
39375SOL     OW20131   2.365   7.452   5.018
39375SOL    HW120132   2.327   7.433   5.104
39375SOL    HW220133  13.497   7.428   5.027
39376SOL     OW20134   9.139   9.230   7.161
39376SOL    HW120135  31.182   9.223   7.250
39376SOL    HW220136   9.204   9.300   7.167
39377SOL     OW20137  10.251   1.035   4.639
39377SOL    HW120138 -22.825   0.950  -6.403
39377SOL    HW220139  10.281   1.080   4.560
39378SOL     OW20140  12.259   1.055   0.735
39378SOL    HW120141  12.228  12.032 -10.370
39378SOL    HW220142  -9.740   1.014  11.810
39379SOL     OW20143   5.545  10.907   3.725
39379SOL    HW120144   5.526  10.909   3.631
39379SOL    HW220145  38.702  10.820   3.739
39380SOL     OW20146   1.191   8.842   4.112
39380SOL    HW120147   1.097  -2.217   4.110
39380SOL    HW220148   1.232  -2.278  26.160
39381SOL     OW20149   8.755   5.979   6.749
39381SOL    HW120150 -13.250  16.959   6.735
39381SOL    HW220151  19.789   5.988   6.844
39382SOL     OW20152   3.067   7.375   5.145
39382SOL    HW120153   3.004   7.440   5.176
39382SOL    HW220154   3.042   7.356   5.055
39383SOL     OW20155   1.020   6.046   6.208
39383SOL    HW120156  12.155  17.087  17.242
39383SOL    HW220157   0.998   5.955  39.344
39384SOL     OW20158   4.746  -0.006   7.228
39384SOL    HW120159   4.689  11.110  29.317
39384SOL    HW220160   4.730  22.043   7.138
39385SOL     OW20161   1.086  11.342   2.524
39385SOL    HW120162   1.015   0.314  13.626
39385SOL    HW220163   1.162   0.280   2.578
39386SOL     OW20164  10.380  10.050   0.788
39386SOL    HW120165  -0.711  10.031   0.709
39386SOL    HW220166  10.360  10.141   0.809
39387SOL     OW20167   1.944   1.236   0.912
39387SOL    HW120168   1.891  -9.730   0.882
39387SOL    HW220169  12.923  12.201  11.954
39388SOL     OW20170  12.051   1.584   2.723
39388SOL    HW120171   0.991  -9.368   2.755
39388SOL    HW220172 -10.036   1.528   2.800
39389SOL     OW20173   5.054   4.643   6.823
39389SOL    HW120174   5.149 -17.425   6.821
39389SOL    HW220175   5.036   4.603   6.907
39390SOL     OW20176   3.846   1.316   5.463
39390SOL    HW120177  14.955   1.363  27.589
39390SOL    HW220178   3.878   1.226  -5.582
39391SOL     OW20179   1.535   4.673   1.607
39391SOL    HW120180   1.534   4.740  -9.364
39391SOL    HW220181   1.476   4.708   1.540
39392SOL     OW20182   6.929   8.912   3.373
39392SOL    HW120183  17.921   8.892  -7.587
39392SOL    HW220184   6.864   8.907   3.303
39393SOL     OW20185   3.995  -1.175   7.083
39393SOL    HW120186   3.947  20.986  29.169
39393SOL    HW220187   4.087  -1.150   7.095
39394SOL     OW20188   8.013  11.849  11.932
39394SOL    HW120189   7.997 -10.136 -10.155
39394SOL    HW220190   8.070   0.789  11.857
39395SOL     OW20191   0.328   1.982   2.359
39395SOL    HW120192   0.397   2.010  -8.621
39395SOL    HW220193   0.333   2.043   2.286
39396SOL     OW20194   7.499   6.241   3.289
39396SOL    HW120195  -3.572   6.254   3.200
39396SOL    HW220196   7.473   6.151   3.311
39397SOL     OW20197   5.937   1.289  -0.306
39397SOL    HW120198   5.921   1.376  -0.342
39397SOL    HW220199  17.014  12.345  32.899
39398SOL     OW20200   1.476   0.828   8.058
39398SOL    HW120201   1.489   0.860  19.187
39398SOL    HW220202   1.381   0.827  19.086
39399SOL     OW20203   2.997   0.727   3.587
39399SOL    HW120204   2.910   0.691   3.601
39399SOL    HW220205   3.025   0.694  14.542
39400SOL     OW20206   4.164   8.993   4.849
39400SOL    HW120207   4.091   8.967   4.794
39400SOL    HW220208   4.201   9.070  -6.233
39401SOL     OW20209   0.383   1.673   3.206
39401SOL    HW120210  11.442  -9.280   3.243
39401SOL    HW220211   0.402  12.722   3.113
39402SOL     OW20212   2.143   0.885   0.588
39402SOL    HW120213   2.071   0.826   0.612
39402SOL    HW220214   2.149   0.877   0.492
39403SOL     OW20215  -0.232   4.256   7.035
39403SOL    HW120216  21.888   4.193   7.095
39403SOL    HW220217  -0.220   4.341 -15.000
39404SOL     OW20218   8.068   0.391   3.012
39404SOL    HW120219 -14.018   0.381   2.917
39404SOL    HW220220 -25.015   0.480   3.024
39405SOL     OW20221   7.025   8.672  -0.246
39405SOL    HW120222  -4.105   8.699  -0.265
39405SOL    HW220223   7.047   8.717  10.874
39406SOL     OW20224   8.657   6.996   6.135
39406SOL    HW120225   8.639  -3.975   6.200
39406SOL    HW220226  -2.365   6.918  28.266
39407SOL     OW20227   9.068   9.101   4.987
39407SOL    HW120228  20.066   9.026   5.030
39407SOL    HW220229   9.012   9.120  26.991
39408SOL     OW20230  11.594   6.847   2.811
39408SOL    HW120231  11.660   6.803  13.904
39408SOL    HW220232   0.593   6.932   2.789
39409SOL     OW20233   3.715   6.446   9.959
39409SOL    HW120234  14.827   6.447  10.022
39409SOL    HW220235  -7.301   6.513   9.895
39410SOL     OW20236   1.410   7.868   7.909
39410SOL    HW120237   1.448   7.955   7.914
39410SOL    HW220238  23.549  -3.221   7.854
39411SOL     OW20239   1.205   3.444   1.851
39411SOL    HW120240   1.205   3.513  12.957
39411SOL    HW220241   1.285 -29.661   1.801
39412SOL     OW20242   6.989   2.360   2.649
39412SOL    HW120243  -4.087   2.281   2.689
39412SOL    HW220244   6.932   2.376  13.613
39413SOL     OW20245   2.547   8.941   8.634
39413SOL    HW120246   2.526   8.984   8.717
39413SOL    HW220247   2.468  -2.089 -13.498
39414SOL     OW20248  10.929   0.636  -1.096
39414SOL    HW120249  10.972   0.618  10.027
39414SOL    HW220250  10.950   0.560   9.889
39415SOL     OW20251  10.618   2.727   8.339
39415SOL    HW120252  10.651   2.673   8.267
39415SOL    HW220253  10.697 -30.362   8.385
39416SOL     OW20254   3.118   9.688   2.506
39416SOL    HW120255  25.249   9.708  -8.455
39416SOL    HW220256  25.107   9.692   2.536
39417SOL     OW20257   6.068   7.135   5.960
39417SOL    HW120258   6.148  18.225   5.946
39417SOL    HW220259  17.129  -3.993  16.971
39418SOL     OW20260   3.859   0.312   8.130
39418SOL    HW120261   3.871  11.325   8.221
39418SOL    HW220262   3.771   0.282  -2.931
39419SOL     OW20263   1.289   5.964   5.597
39419SOL    HW120264  34.500   5.965   5.622
39419SOL    HW220265   1.282  -5.010   5.527
39420SOL     OW20266   3.983  10.333   0.994
39420SOL    HW120267   3.913  10.350   1.057
39420SOL    HW220268   4.025  10.253   1.026
39421SOL     OW20269   2.281   0.998   3.750
39421SOL    HW120270  24.404   1.083   3.751
39421SOL    HW220271   2.262  23.059   3.842
39422SOL     OW20272   2.138   4.644   0.509
39422SOL    HW120273   2.201  15.737   0.462
39422SOL    HW220274   2.191  26.666   0.564
39423SOL     OW20275   8.408   9.128  10.086
39423SOL    HW120276   8.361  20.084  21.133
39423SOL    HW220277   8.396  20.194   9.995
39424SOL     OW20278   8.030   1.552   5.701
39424SOL    HW120279   8.073   1.594  27.855
39424SOL    HW220280   7.954   1.508   5.739
39425SOL     OW20281   7.610   6.951   3.129
39425SOL    HW120282   7.570   6.928   3.213
39425SOL    HW220283   7.541  18.035   3.081
39426SOL     OW20284   2.493   0.710   5.247
39426SOL    HW120285   2.441   0.718   5.167
39426SOL    HW220286   2.435   0.740   5.317
39427SOL     OW20287   3.260   2.312   3.985
39427SOL    HW120288   3.317  35.486   4.038
39427SOL    HW220289   3.288  13.262  -7.036
39428SOL     OW20290   4.027   6.872   4.116
39428SOL    HW120291   3.951   6.814   4.119
39428SOL    HW220292  -6.956  -4.197   4.187
39429SOL     OW20293   6.778  -0.607   9.984
39429SOL    HW120294  -4.170  21.456  10.007
39429SOL    HW220295   6.782  -0.545   9.912
39430SOL     OW20296   5.708  -0.374   3.781
39430SOL    HW120297   5.768  10.673   3.855
39430SOL    HW220298  -5.311  10.581   3.742
39431SOL     OW20299   2.190   2.959   0.525
39431SOL    HW120300   2.277  -8.068   0.487
39431SOL    HW220301  24.256 -19.045   0.582
39432SOL     OW20302   5.919   2.565   3.990
39432SOL    HW120303   5.966   2.507   3.930
39432SOL    HW220304   5.838   2.519   4.010
39433SOL     OW20305   0.669   8.755   8.955
39433SOL    HW120306   0.726   8.779  20.067
39433SOL    HW220307  11.646   8.827  19.988
39434SOL     OW20308   9.567   6.381   6.849
39434SOL    HW120309   9.485   6.422   6.821
39434SOL    HW220310  20.602   6.292  28.893
39435SOL     OW20311  10.761   7.050   5.688
39435SOL    HW120312  10.666   7.041   5.684
39435SOL    HW220313  10.790   6.977  -5.298
39436SOL     OW20314   1.800   4.544  10.007
39436SOL    HW120315   1.860   4.557   9.934
39436SOL    HW220316  12.881   4.590 -11.999
39437SOL     OW20317  12.292   9.275  10.061
39437SOL    HW120318 -20.860   9.327  10.134
39437SOL    HW220319   1.271   9.189  -0.940
39438SOL     OW20320   4.098  10.392   4.279
39438SOL    HW120321   4.077  10.408   4.371
39438SOL    HW220322 -39.984  10.335 -17.798
39439SOL     OW20323   8.071   5.336   4.446
39439SOL    HW120324   8.086   5.372   4.533
39439SOL    HW220325   8.007  27.345  15.499
39440SOL     OW20326   1.372   6.866   9.307
39440SOL    HW120327  -9.656   6.819  20.265
39440SOL    HW220328  -9.585  17.892   9.354
39441SOL     OW20329   2.614  12.031   3.230
39441SOL    HW120330   2.596   0.918  14.210
39441SOL    HW220331   2.560   0.974   3.307
39442SOL     OW20332   7.551   6.671   5.070
39442SOL    HW120333   7.486   6.712   5.011
39442SOL    HW220334  18.537  17.663 -16.945
39443SOL     OW20335   1.561  10.620   6.652
39443SOL    HW120336   1.632  -0.473  17.656
39443SOL    HW220337  -9.489 -11.489   6.743
39444SOL     OW20338   0.761   8.800  -0.343
39444SOL    HW120339   0.807   8.828  -0.264
39444SOL    HW220340   0.721 -13.199  10.663
39445SOL     OW20341   9.760   4.087   7.601
39445SOL    HW120342   9.719   4.161  -3.484
39445SOL    HW220343  -1.301  37.130   7.547
39446SOL     OW20344  10.739   3.262   2.636
39446SOL    HW120345  10.709   3.347   2.669
39446SOL    HW220346  10.734   3.203   2.711
39447SOL     OW20347   3.730   0.999   3.116
39447SOL    HW120348   3.707  12.122   3.076
39447SOL    HW220349   3.677   0.996   3.196
39448SOL     OW20350   4.327   4.268   0.120
39448SOL    HW120351  -6.719  26.435  33.202
39448SOL    HW220352   4.261   4.217  22.151
39449SOL     OW20353  12.384  -2.220   4.591
39449SOL    HW120354   1.421  41.991  15.655
39449SOL    HW220355  -9.672  -2.258   4.506
39450SOL     OW20356  10.189   8.950   6.178
39450SOL    HW120357  10.187   8.877   6.240
39450SOL    HW220358  10.121   8.930  50.273
39451SOL     OW20359  10.416   4.058  11.054
39451SOL    HW120360  10.335   4.102   0.038
39451SOL    HW220361  10.445   4.018  11.136
39452SOL     OW20362   9.166  10.111  10.516
39452SOL    HW120363   9.202  10.110  10.605
39452SOL    HW220364  -1.846  -0.844  -0.560
39453SOL     OW20365   4.762   3.361   6.373
39453SOL    HW120366   4.773  14.449  17.494
39453SOL    HW220367   4.673   3.383  28.423
39454SOL     OW20368   4.082   0.854   8.738
39454SOL    HW120369   4.119   0.931  19.820
39454SOL    HW220370   3.990 -10.162   8.722
39455SOL     OW20371   0.679   4.138   1.569
39455SOL    HW120372   0.663   4.173   1.657
39455SOL    HW220373   0.688  -6.996   1.582
39456SOL     OW20374   5.769   5.725   5.019
39456SOL    HW120375  -5.256   5.644 -17.108
39456SOL    HW220376  16.832  -5.245  -6.082
39457SOL     OW20377   0.779   1.476   5.246
39457SOL    HW120378   0.862  12.467   5.245
39457SOL    HW220379   0.712   1.407   5.248
39458SOL     OW20380   9.366   6.297   9.431
39458SOL    HW120381   9.287   6.331  31.467
39458SOL    HW220382  -1.706 -26.891   9.488
39459SOL     OW20383   9.113  -0.443   1.393
39459SOL    HW120384 -12.979  10.604  12.338
39459SOL    HW220385  31.135  10.524  23.497
39460SOL     OW20386   9.653   0.157  -0.105
39460SOL    HW120387   9.729  55.368  -0.050
39460SOL    HW220388   9.686   0.109  10.858
39461SOL     OW20389   8.277   5.699   8.938
39461SOL    HW120390   8.356   5.729   8.893
39461SOL    HW220391   8.221   5.776   8.941
39462SOL     OW20392   7.112   1.511   2.149
39462SOL    HW120393   7.162   1.438   2.186
39462SOL    HW220394   7.107  -9.548  24.135
39463SOL     OW20395   5.723  10.092   3.457
39463SOL    HW120396   5.755  10.127   3.540
39463SOL    HW220397 -27.317  -0.965   3.406
39464SOL     OW20398   4.761  10.636  10.969
39464SOL    HW120399   4.680  -0.354 -11.106
39464SOL    HW220400   4.762  21.638  10.881
39465SOL     OW20401   7.433   2.263   5.156
39465SOL    HW120402  -3.656   2.339   5.186
39465SOL    HW220403   7.379   2.188  16.222
39466SOL     OW20404   9.486   7.991   1.869
39466SOL    HW120405   9.570  30.032   1.892
39466SOL    HW220406  20.464  -3.085   1.933
39467SOL     OW20407   3.205   6.177   9.847
39467SOL    HW120408   3.222  -4.953 -23.297
39467SOL    HW220409 -18.805   6.228   9.804
39468SOL     OW20410   9.293   3.679   8.762
39468SOL    HW120411   9.304 -40.487   8.667
39468SOL    HW220412   9.315  -7.448   8.796
39469SOL     OW20413   5.685   4.474   0.762
39469SOL    HW120414  49.837  -6.632   0.693
39469SOL    HW220415   5.599   4.472 -10.234
39470SOL     OW20416   0.392   4.955   9.600
39470SOL    HW120417  11.465   4.933   9.687
39470SOL    HW220418   0.454   4.913   9.539
39471SOL     OW20419   8.375   6.482   5.524
39471SOL    HW120420   8.356 -26.645   5.431
39471SOL    HW220421   8.290 -15.608 -16.512
39472SOL     OW20422   2.376   7.116   5.017
39472SOL    HW120423   2.300   7.071   5.054
39472SOL    HW220424 -19.633  18.140  27.159
39473SOL     OW20425   9.594   8.211   5.515
39473SOL    HW120426  -1.415   8.302   5.515
39473SOL    HW220427   9.500   8.217   5.498
39474SOL     OW20428   0.684   6.978   1.711
39474SOL    HW120429   0.623   6.907   1.692
39474SOL    HW220430   0.662   7.046   1.648
39475SOL     OW20431  11.320   7.409   0.717
39475SOL    HW120432  11.401   7.447   0.684
39475SOL    HW220433   0.261   7.338 -10.383
39476SOL     OW20434   6.856   1.314   7.400
39476SOL    HW120435   6.783   1.350   7.450
39476SOL    HW220436   6.931   1.320   7.459
39477SOL     OW20437   8.449   2.060   5.840
39477SOL    HW120438  19.444   2.116   5.904
39477SOL    HW220439  19.423   1.995  16.855
39478SOL     OW20440   2.489   2.714   2.918
39478SOL    HW120441   2.401   2.684   2.943
39478SOL    HW220442   2.540   2.705   2.998
39479SOL     OW20443   3.083   2.291   6.771
39479SOL    HW120444 -30.060  35.317   6.778
39479SOL    HW220445  -7.907   2.296   6.690
39480SOL     OW20446   0.650   5.646   1.466
39480SOL    HW120447 -10.304   5.682  -9.595
39480SOL    HW220448   0.617  16.650  12.423
39481SOL     OW20449   2.856   9.675   6.834
39481SOL    HW120450   2.821   9.742   6.776
39481SOL    HW220451  -8.256 -12.427   6.891
39482SOL     OW20452   9.489  10.822  10.635
39482SOL    HW120453  20.511  10.732  10.609
39482SOL    HW220454   9.508  10.817  10.728
39483SOL     OW20455   5.394  10.896   3.142
39483SOL    HW120456  -5.738  10.906  14.157
39483SOL    HW220457   5.404  10.801   3.155
39484SOL     OW20458   7.731   5.526   4.550
39484SOL    HW120459  18.836   5.522  37.738
39484SOL    HW220460  18.759   5.435   4.523
39485SOL     OW20461  -0.877  -0.522   4.814
39485SOL    HW120462  -0.791  10.546   4.786
39485SOL    HW220463  43.222  -0.491   4.746
39486SOL     OW20464   4.479   3.984   6.771
39486SOL    HW120465   4.564   4.026   6.763
39486SOL    HW220466   4.496  -7.139   6.815
39487SOL     OW20467   2.464   9.727   7.959
39487SOL    HW120468   2.477   9.667   8.033
39487SOL    HW220469   2.534   9.705   7.898
39488SOL     OW20470   3.630   4.996   1.159
39488SOL    HW120471  25.690  27.016   1.086
39488SOL    HW220472  -7.415   5.083   1.121
39489SOL     OW20473   2.923  10.570   7.675
39489SOL    HW120474   2.838  10.552   7.715
39489SOL    HW220475   2.902  10.589   7.584
39490SOL     OW20476  10.256   0.400   6.503
39490SOL    HW120477  -0.853   0.344   6.467
39490SOL    HW220478  10.210   0.460   6.561
39491SOL     OW20479   8.752   6.112  -0.191
39491SOL    HW120480   8.670   6.103  -0.144
39491SOL    HW220481   8.809   6.045  21.926
39492SOL     OW20482   2.345   1.249   5.539
39492SOL    HW120483   2.403   1.324   5.549
39492SOL    HW220484  -8.774   1.274  16.625
39493SOL     OW20485   3.908   4.498   2.081
39493SOL    HW120486  25.923  15.581   2.138
39493SOL    HW220487   3.921   4.412   2.121
39494SOL     OW20488   7.757  -0.499   9.469
39494SOL    HW120489  -3.248  10.609  31.491
39494SOL    HW220490  -3.205  -0.537   9.511
39495SOL     OW20491   4.341   5.488   3.058
39495SOL    HW120492   4.395  -5.614   3.009
39495SOL    HW220493   4.310   5.439 -18.945
39496SOL     OW20494   5.937   3.555   1.048
39496SOL    HW120495 -16.154  25.712   0.994
39496SOL    HW220496   5.866   3.497 -10.017
39497SOL     OW20497   1.199   6.352   8.301
39497SOL    HW120498   1.225   6.266  19.308
39497SOL    HW220499   1.133   6.333  19.408
39498SOL     OW20500   8.567   8.079  10.194
39498SOL    HW120501  30.596  -3.029  -0.801
39498SOL    HW220502   8.635 -14.047  -0.893
39499SOL     OW20503   2.412   1.481   7.583
39499SOL    HW120504   2.382   1.552   7.527
39499SOL    HW220505   2.496   1.511   7.617
39500SOL     OW20506   2.642   3.751  -0.537
39500SOL    HW120507  35.803   3.783  -0.458
39500SOL    HW220508   2.712   3.710  10.452
39501SOL     OW20509   8.506   3.691   8.263
39501SOL    HW120510   8.518   3.597   8.246
39501SOL    HW220511  30.492   3.706   8.250
39502SOL     OW20512   3.686  10.292   2.814
39502SOL    HW120513   3.676  -0.814   2.746
39502SOL    HW220514  -7.348 -33.783   2.767
39503SOL     OW20515   6.374   4.810   5.274
39503SOL    HW120516   6.319   4.763   5.212
39503SOL    HW220517   6.312  37.971   5.334
39504SOL     OW20518   2.465   6.714   4.532
39504SOL    HW120519   2.410   6.783   4.494
39504SOL    HW220520  -8.624   6.681   4.607
39505SOL     OW20521   6.873   7.769   8.330
39505SOL    HW120522  28.916   7.831  19.306
39505SOL    HW220523   6.926   7.709  19.317
39506SOL     OW20524   0.746   8.964   1.535
39506SOL    HW120525   0.837  19.985   1.513
39506SOL    HW220526   0.695  19.936   1.489
39507SOL     OW20527   8.147   4.949   3.509
39507SOL    HW120528   8.231   4.993   3.503
39507SOL    HW220529  19.137   5.000   3.573
39508SOL     OW20530   6.774   2.976   9.175
39508SOL    HW120531   6.811  14.094   9.215
39508SOL    HW220532   6.679   2.992   9.172
39509SOL     OW20533  10.460   2.725   7.784
39509SOL    HW120534  10.397   2.702   7.853
39509SOL    HW220535  10.545   2.726  18.869
39510SOL     OW20536   9.484   5.528   2.731
39510SOL    HW120537   9.471   5.618 -41.398
39510SOL    HW220538   9.455  -5.565   2.805
39511SOL     OW20539   3.069   7.041   3.813
39511SOL    HW120540   3.070  -3.905   3.795
39511SOL    HW220541   3.013   7.031   3.890
39512SOL     OW20542   3.071   8.715   7.355
39512SOL    HW120543  -7.940 -35.385   7.285
39512SOL    HW220544   3.136 -24.391   7.424
39513SOL     OW20545   1.907   5.259   2.289
39513SOL    HW120546   1.853  -5.773   2.368
39513SOL    HW220547   1.902  16.385   2.248
39514SOL     OW20548   6.237   6.710   6.043
39514SOL    HW120549   6.282  17.834   6.039
39514SOL    HW220550   6.153   6.726   6.001
39515SOL     OW20551   2.905   9.524   7.208
39515SOL    HW120552  24.899   9.502  29.325
39515SOL    HW220553   2.966   9.519   7.282
39516SOL     OW20554   9.537   3.895   2.049
39516SOL    HW120555  -1.550   3.842   1.985
39516SOL    HW220556  -1.417   3.912   2.008
39517SOL     OW20557   1.482   3.587   1.812
39517SOL    HW120558  -9.540 -18.511  -9.135
39517SOL    HW220559  -9.606   3.670  12.852
39518SOL     OW20560   5.288   5.013   7.812
39518SOL    HW120561   5.230 -28.132   7.740
39518SOL    HW220562 -16.705  -6.059   7.786
39519SOL     OW20563   2.124   7.808   4.548
39519SOL    HW120564  13.106  -3.156 -17.538
39519SOL    HW220565  13.142 -14.310   4.633
39520SOL     OW20566   4.400   0.264  10.730
39520SOL    HW120567   4.422   0.239  -0.220
39520SOL    HW220568   4.305   0.254  10.725
39521SOL     OW20569   6.200  10.574   0.400
39521SOL    HW120570 -15.943  10.574  11.511
39521SOL    HW220571   6.253  -0.544  11.454
39522SOL     OW20572  10.876   3.855   0.739
39522SOL    HW120573  10.864   3.760  11.776
39522SOL    HW220574  10.970   3.868   0.748
39523SOL     OW20575   5.416   2.578   4.464
39523SOL    HW120576   5.375  13.671   4.396
39523SOL    HW220577   5.507   2.607   4.465
39524SOL     OW20578   5.055   8.927   6.688
39524SOL    HW120579  16.007 -24.218   6.717
39524SOL    HW220580   5.039   8.994   6.622
39525SOL     OW20581   7.807   1.918   6.640
39525SOL    HW120582  29.806   1.963   6.614
39525SOL    HW220583  18.843   1.914   6.735
39526SOL     OW20584   8.196   0.415   3.631
39526SOL    HW120585   8.191   0.376   3.543
39526SOL    HW220586   8.289  22.515   3.642
39527SOL     OW20587   3.944   9.283   5.920
39527SOL    HW120588   3.964   9.360   5.868
39527SOL    HW220589   4.027  -1.806  16.963
39528SOL     OW20590   0.374   5.168   7.849
39528SOL    HW120591   0.344   5.243  18.837
39528SOL    HW220592   0.359   5.194   7.940
39529SOL     OW20593   7.822   9.105   2.574
39529SOL    HW120594   7.871  -1.867 -19.459
39529SOL    HW220595   7.849   9.023   2.615
39530SOL     OW20596   5.957   1.480   0.916
39530SOL    HW120597   5.999   1.526   0.843
39530SOL    HW220598   5.949  23.468   0.886
39531SOL     OW20599   6.552   2.213   8.111
39531SOL    HW120600   6.458   2.226   8.118
39531SOL    HW220601   6.565   2.120   8.127
39532SOL     OW20602   3.302   0.841   8.864
39532SOL    HW120603   3.241   0.805  -2.111
39532SOL    HW220604   3.322 -10.273  -2.232
39533SOL     OW20605  -0.207   2.222   2.164
39533SOL    HW120606  -0.170  -8.853  -8.795
39533SOL    HW220607  21.945  13.308   2.122
39534SOL     OW20608  11.202   5.786  11.151
39534SOL    HW120609  11.287  -5.236   0.151
39534SOL    HW220610 -10.878   5.691   0.097
39535SOL     OW20611   3.613   8.275   5.589
39535SOL    HW120612   3.629   8.273  16.534
39535SOL    HW220613   3.522   8.305   5.597
39536SOL     OW20614   3.316   0.598   8.225
39536SOL    HW120615   3.291   0.590   8.133
39536SOL    HW220616   3.398   0.648   8.223
39537SOL     OW20617   5.543   1.600   6.031
39537SOL    HW120618   5.600 -20.556  17.077
39537SOL    HW220619   5.567   1.655   6.106
39538SOL     OW20620   0.403   3.911   3.632
39538SOL    HW120621  22.477   3.889   3.539
39538SOL    HW220622  11.401   3.837   3.677
39539SOL     OW20623  12.182   9.863   9.108
39539SOL    HW120624  -9.848  -1.097   9.088
39539SOL    HW220625  -9.925   9.874   9.199
39540SOL     OW20626   5.689   0.035   5.915
39540SOL    HW120627   5.668  11.155   5.962
39540SOL    HW220628  16.821   0.020  16.972
39541SOL     OW20629   8.488   1.299   4.134
39541SOL    HW120630   8.575   1.261   4.120
39541SOL    HW220631   8.469   1.346   4.053
39542SOL     OW20632   9.118   8.945   9.853
39542SOL    HW120633  -1.986  -2.080   9.784
39542SOL    HW220634  20.203   9.029  20.901
39543SOL     OW20635   7.144   4.770   7.391
39543SOL    HW120636  -3.824   4.725  -3.695
39543SOL    HW220637   7.072 -17.372   7.390
39544SOL     OW20638  11.490   0.382   5.542
39544SOL    HW120639   0.520   0.316   5.545
39544SOL    HW220640  11.496   0.419 -27.665
39545SOL     OW20641   8.283   3.456   2.331
39545SOL    HW120642   8.284   3.541   2.375
39545SOL    HW220643   8.320  14.512   2.245
39546SOL     OW20644   7.733   0.306   6.631
39546SOL    HW120645 -14.395   0.233   6.670
39546SOL    HW220646  -3.361   0.335   6.558
39547SOL     OW20647   7.149   1.241   3.606
39547SOL    HW120648   7.238   1.251   3.573
39547SOL    HW220649   7.160   1.236   3.701
39548SOL     OW20650   2.313   6.086   5.135
39548SOL    HW120651   2.391   6.041   5.168
39548SOL    HW220652   2.347   6.152   5.074
39549SOL     OW20653   8.671  -0.377   3.674
39549SOL    HW120654   8.721  -0.363 -18.325
39549SOL    HW220655   8.728  10.696  25.683
39550SOL     OW20656   5.193   3.307   1.318
39550SOL    HW120657   5.284   3.278   1.314
39550SOL    HW220658   5.142  14.267   1.306
39551SOL     OW20659   1.046   9.335  -0.254
39551SOL    HW120660  12.054  -1.753  10.709
39551SOL    HW220661  12.044   9.421  -0.261
39552SOL     OW20662   1.153   4.132   3.534
39552SOL    HW120663   1.179   4.059   3.590
39552SOL    HW220664   1.094   4.184   3.588
39553SOL     OW20665  10.119   4.913   6.756
39553SOL    HW120666  -0.872 -17.084  17.792
39553SOL    HW220667  10.027   4.939   6.764
39554SOL     OW20668   4.061   7.699   9.325
39554SOL    HW120669  -6.930   7.672   9.247
39554SOL    HW220670   4.067 -36.534   9.384
39555SOL     OW20671   5.065   4.204  10.514
39555SOL    HW120672   5.015   4.285  -0.536
39555SOL    HW220673  27.176   4.206  21.644
39556SOL     OW20674   9.095   9.431   8.195
39556SOL    HW120675   9.052   9.442   8.110
39556SOL    HW220676   9.037   9.476  30.336
39557SOL     OW20677   0.496   1.195   7.302
39557SOL    HW120678   0.481  -9.774  18.404
39557SOL    HW220679   0.532   1.239   7.224
39558SOL     OW20680   5.606   0.349   1.772
39558SOL    HW120681   5.549  11.366   1.699
39558SOL    HW220682   5.567  11.467   1.810
39559SOL     OW20683   0.654   1.939   9.178
39559SOL    HW120684   0.642   1.924   9.084
39559SOL    HW220685   0.604   1.869   9.220
39560SOL     OW20686   3.511   5.938   9.339
39560SOL    HW120687  -7.489   5.968  -1.618
39560SOL    HW220688  -7.557  17.058   9.296
39561SOL     OW20689   0.759   6.788   5.334
39561SOL    HW120690   0.685   6.847   5.347
39561SOL    HW220691   0.751   6.758   5.244
39562SOL     OW20692   5.391   0.200   4.551
39562SOL    HW120693   5.358   0.115  -6.519
39562SOL    HW220694   5.483  22.262   4.571
39563SOL     OW20695   6.084   9.522   0.845
39563SOL    HW120696   6.025   9.570   0.903
39563SOL    HW220697   6.044   9.529   0.758
39564SOL     OW20698   6.377   2.568   7.291
39564SOL    HW120699   6.387   2.518   7.210
39564SOL    HW220700   6.344   2.504   7.354
39565SOL     OW20701  11.233   0.994   7.966
39565SOL    HW120702  11.196   1.057  18.944
39565SOL    HW220703   0.175   1.031   8.052
39566SOL     OW20704   8.187   8.877   1.408
39566SOL    HW120705   8.202   8.971   1.395
39566SOL    HW220706   8.273   8.837 -20.685
39567SOL     OW20707   7.893   3.546   0.437
39567SOL    HW120708  -3.121  14.494  22.527
39567SOL    HW220709   7.816  25.635   0.493
39568SOL     OW20710   0.273   2.645   8.984
39568SOL    HW120711   0.294  -8.364  19.935
39568SOL    HW220712   0.261   2.551   8.974
39569SOL     OW20713   5.626   3.969   2.056
39569SOL    HW120714   5.641  37.105  -8.891
39569SOL    HW220715  16.706  37.162   2.011
39570SOL     OW20716   2.368   6.470   1.062
39570SOL    HW120717  35.559   6.422   1.022
39570SOL    HW220718   2.313   6.496   0.989
39571SOL     OW20719   8.612  10.744   7.569
39571SOL    HW120720  -2.366  10.752   7.641
39571SOL    HW220721  -2.500  10.801   7.593
39572SOL     OW20722   1.707   0.951   5.687
39572SOL    HW120723   1.650   0.951  16.649
39572SOL    HW220724   1.748   1.038   5.687
39573SOL     OW20725   9.536   2.329   4.295
39573SOL    HW120726   9.582  13.285 -17.781
39573SOL    HW220727   9.522   2.345   4.202
39574SOL     OW20728  10.714   9.975   8.312
39574SOL    HW120729  -0.380  -1.006 -13.714
39574SOL    HW220730  10.790  -1.082  -2.673
39575SOL     OW20731   4.261   1.738   3.939
39575SOL    HW120732   4.240   1.649  -7.071
39575SOL    HW220733   4.193  -9.247 -18.100
39576SOL     OW20734   4.978   6.412  10.224
39576SOL    HW120735   4.983   6.498  10.183
39576SOL    HW220736  -6.100   6.429  10.310
39577SOL     OW20737   8.459   6.736   8.378
39577SOL    HW120738   8.459  28.768  -2.744
39577SOL    HW220739   8.527   6.803   8.368
39578SOL     OW20740   3.292   9.789  11.124
39578SOL    HW120741  14.317   9.881 -10.935
39578SOL    HW220742   3.350   9.758  22.233
39579SOL     OW20743   6.286   3.733   6.281
39579SOL    HW120744   6.201   3.735   6.238
39579SOL    HW220745   6.337  -7.370  17.270
39580SOL     OW20746  10.858   3.681   1.768
39580SOL    HW120747 -11.256   3.686   1.679
39580SOL    HW220748 -22.166   3.687  23.837
39581SOL     OW20749   1.840   2.470   9.303
39581SOL    HW120750   1.901   2.518   9.359
39581SOL    HW220751   1.832  57.722   9.224
39582SOL     OW20752  10.221   5.116   8.150
39582SOL    HW120753  10.302  -5.968  -2.915
39582SOL    HW220754  10.201  16.119  30.315
39583SOL     OW20755   5.692   9.242   1.876
39583SOL    HW120756   5.637  -1.827   1.949
39583SOL    HW220757   5.730   9.325   1.906
39584SOL     OW20758   2.794   8.064   9.579
39584SOL    HW120759   2.750  30.156   9.495
39584SOL    HW220760   2.880   8.104   9.567
39585SOL     OW20761  10.222   5.972   5.865
39585SOL    HW120762  10.183  -5.049  16.991
39585SOL    HW220763  10.146   5.959   5.808
39586SOL     OW20764   8.904   1.880   3.622
39586SOL    HW120765   8.925   1.967   3.655
39586SOL    HW220766   8.988   1.840   3.601
39587SOL     OW20767   4.253   0.753   2.556
39587SOL    HW120768   4.158   0.755  35.660
39587SOL    HW220769   4.288  11.856   2.494
39588SOL     OW20770   5.212   1.245   4.799
39588SOL    HW120771  27.222   1.203   4.850
39588SOL    HW220772   5.293  12.242   4.827
39589SOL     OW20773   5.770   5.414   1.665
39589SOL    HW120774   5.760   5.321   1.645
39589SOL    HW220775   5.703   5.431  12.771
39590SOL     OW20776   1.561   7.335   9.553
39590SOL    HW120777  23.688   7.332   9.636
39590SOL    HW220778   1.469  18.374   9.578
39591SOL     OW20779   7.144  -1.082   1.589
39591SOL    HW120780   7.096  10.001  -9.522
39591SOL    HW220781  -3.963   9.917   1.642
39592SOL     OW20782   9.609   6.348   7.125
39592SOL    HW120783   9.583   6.329  18.075
39592SOL    HW220784   9.705  17.390  18.162
39593SOL     OW20785   1.474   5.007   2.139
39593SOL    HW120786  12.438   4.956   2.109
39593SOL    HW220787  -9.494   4.944  13.184
39594SOL     OW20788   3.934   9.502   5.740
39594SOL    HW120789   3.964   9.442   5.672
39594SOL    HW220790   3.839   9.502   5.732
39595SOL     OW20791   9.356   4.498   3.702
39595SOL    HW120792   9.407   4.537   3.773
39595SOL    HW220793   9.270   4.481   3.740
39596SOL     OW20794   1.572   7.300   1.980
39596SOL    HW120795   1.512  -3.786   1.921
39596SOL    HW220796   1.547  -3.768   2.068
39597SOL     OW20797   4.256  -0.053   9.392
39597SOL    HW120798  15.334  21.948   9.354
39597SOL    HW220799  -6.878  -0.068   9.388
39598SOL     OW20800   8.916   8.860   5.014
39598SOL    HW120801  30.976   8.853   5.107
39598SOL    HW220802 -13.231  30.888   4.971
39599SOL     OW20803   2.628   5.427   0.594
39599SOL    HW120804   2.617   5.379   0.512
39599SOL    HW220805   2.559   5.494   0.593
39600SOL     OW20806  -0.787   0.817   9.040
39600SOL    HW120807  10.208   0.902   9.045
39600SOL    HW220808  10.337  11.872   9.084
39601SOL     OW20809   2.449   8.581  10.417
39601SOL    HW120810   2.446  30.599  21.530
39601SOL    HW220811  13.400   8.616  10.411
39602SOL     OW20812  10.226   0.936   2.582
39602SOL    HW120813  10.209   0.855  13.668
39602SOL    HW220814  10.161   0.997  13.656
39603SOL     OW20815   5.694   3.102   3.100
39603SOL    HW120816   5.600   3.117   3.094
39603SOL    HW220817   5.723   3.156  14.214
39604SOL     OW20818   4.943   7.913   4.330
39604SOL    HW120819  -6.191   7.922   4.341
39604SOL    HW220820  -6.059   7.956   4.407
39605SOL     OW20821   3.961   1.791   3.625
39605SOL    HW120822  15.093  -9.232   3.646
39605SOL    HW220823   3.934   1.723   3.686
39606SOL     OW20824   3.365  12.025   0.863
39606SOL    HW120825   3.422  12.101   0.851
39606SOL    HW220826   3.400 -10.099   0.939
39607SOL     OW20827   6.923  10.998   3.620
39607SOL    HW120828  -4.116  -0.136   3.636
39607SOL    HW220829   6.834  22.057   3.592
39608SOL     OW20830   2.996   4.025   7.008
39608SOL    HW120831  14.065   4.115  29.103
39608SOL    HW220832   2.949  -7.038  29.167
39609SOL     OW20833   7.934   2.873   2.596
39609SOL    HW120834   7.914   2.832   2.512
39609SOL    HW220835   7.898   2.813  35.780
39610SOL     OW20836   5.587   8.920   7.077
39610SOL    HW120837 -16.433   8.988   7.111
39610SOL    HW220838  -5.540 -24.161   7.086
39611SOL     OW20839  12.727   7.724   2.804
39611SOL    HW120840  12.678   7.658  -8.187
39611SOL    HW220841 -20.300  -3.339 -30.301
39612SOL     OW20842   9.786   0.035   2.323
39612SOL    HW120843   9.852   0.046   2.390
39612SOL    HW220844  20.817  -0.060   2.312
39613SOL     OW20845   5.047   6.003   1.113
39613SOL    HW120846  16.073   6.033   1.023
39613SOL    HW220847   5.105   5.928   1.104
39614SOL     OW20848  10.700   1.306   7.965
39614SOL    HW120849  -0.383   1.363   8.028
39614SOL    HW220850  10.650   1.224   7.969
39615SOL     OW20851   7.909   4.509   6.759
39615SOL    HW120852   7.853 -17.520   6.701
39615SOL    HW220853   7.979   4.570   6.784
39616SOL     OW20854   1.038   6.370   4.854
39616SOL    HW120855 -10.028   6.412  -6.104
39616SOL    HW220856  12.154   6.317  -6.162
39617SOL     OW20857   7.696  -0.257   2.796
39617SOL    HW120858   7.624  -0.260   2.859
39617SOL    HW220859  -3.288  10.708   2.821
39618SOL     OW20860   7.014   7.015   7.676
39618SOL    HW120861   7.060  18.118   7.621
39618SOL    HW220862 -15.036   7.035   7.765
39619SOL     OW20863   9.336   3.178  10.273
39619SOL    HW120864   9.292   3.140  21.237
39619SOL    HW220865  20.411   3.102  10.321
39620SOL     OW20866  10.233   6.603   6.070
39620SOL    HW120867  10.154  -4.388   6.093
39620SOL    HW220868  10.303   6.668  -4.969
39621SOL     OW20869   8.494   5.674   3.452
39621SOL    HW120870  30.615   5.751   3.412
39621SOL    HW220871   8.427   5.648 -18.690
39622SOL     OW20872   6.099   7.667  10.909
39622SOL    HW120873   6.194  29.758  10.918
39622SOL    HW220874   6.061   7.727  10.973
39623SOL     OW20875  -1.188   0.383  10.623
39623SOL    HW120876  20.801   0.392  -0.385
39623SOL    HW220877   9.903  22.447 -22.416
39624SOL     OW20878   0.933   3.874   7.621
39624SOL    HW120879   0.951  36.975  40.647
39624SOL    HW220880   0.895   3.962   7.622
39625SOL     OW20881   8.901   7.909   9.443
39625SOL    HW120882   8.826   7.893   9.501
39625SOL    HW220883   8.867  -3.070   9.377
39626SOL     OW20884   9.552   6.321   2.550
39626SOL    HW120885   9.583   6.403  13.552
39626SOL    HW220886   9.458   6.334  -8.478
39627SOL     OW20887   3.740  10.976   1.970
39627SOL    HW120888   3.721  10.888 -20.077
39627SOL    HW220889  14.874  10.985   1.978
39628SOL     OW20890   1.797  10.209   7.402
39628SOL    HW120891 -20.291  10.244  -3.726
39628SOL    HW220892  12.775  10.261   7.454
39629SOL     OW20893   0.032   2.734   3.475
39629SOL    HW120894   0.119   2.714   3.510
39629SOL    HW220895  -0.007  13.833   3.539
39630SOL     OW20896   3.933   1.112   2.017
39630SOL    HW120897   3.899   1.101   2.105
39630SOL    HW220898   3.935   1.207   2.003
39631SOL     OW20899   2.545   6.264   2.715
39631SOL    HW120900   2.457   6.300   2.719
39631SOL    HW220901   2.533   6.173   2.687
39632SOL     OW20902   7.509   0.493   7.888
39632SOL    HW120903   7.566   0.508  -3.227
39632SOL    HW220904   7.563   0.447   7.952
39633SOL     OW20905   2.824   7.823   6.516
39633SOL    HW120906   2.905   7.862   6.547
39633SOL    HW220907  13.890  -3.300   6.478
39634SOL     OW20908   6.480  -1.177   6.483
39634SOL    HW120909   6.519  20.940 -15.674
39634SOL    HW220910   6.554   9.845   6.541
39635SOL     OW20911   0.514   8.990   8.935
39635SOL    HW120912   0.582   9.056   8.953
39635SOL    HW220913   0.447   9.007   9.001
39636SOL     OW20914   3.671   9.682   8.343
39636SOL    HW120915   3.751   9.725   8.314
39636SOL    HW220916   3.673   9.690   8.439
39637SOL     OW20917   7.350   0.434   6.416
39637SOL    HW120918   7.443  11.488   6.433
39637SOL    HW220919  -3.709  11.531  17.381
39638SOL     OW20920   6.063   2.247   5.887
39638SOL    HW120921   6.105   2.183   5.944
39638SOL    HW220922   6.135   2.293   5.844
39639SOL     OW20923  10.232   5.428   1.698
39639SOL    HW120924  10.185   5.511   1.703
39639SOL    HW220925  10.313   5.443   1.747
39640SOL     OW20926   9.262   9.102   2.394
39640SOL    HW120927   9.255   9.185   2.441
39640SOL    HW220928   9.210   9.040   2.446
39641SOL     OW20929   1.679   5.985   2.021
39641SOL    HW120930   1.686   5.934  12.980
39641SOL    HW220931   1.689   6.076  13.033
39642SOL     OW20932   9.682  10.908   3.537
39642SOL    HW120933  20.635  10.943  14.557
39642SOL    HW220934  20.769  10.917   3.454
39643SOL     OW20935   0.247   2.314   7.184
39643SOL    HW120936   0.332   2.274   7.168
39643SOL    HW220937   0.204   2.315   7.098
39644SOL     OW20938   5.868   4.396   0.322
39644SOL    HW120939 -16.233  26.388   0.355
39644SOL    HW220940   5.886   4.448   0.400
39645SOL     OW20941   7.883   3.925   8.439
39645SOL    HW120942  -3.099   3.853  19.452
39645SOL    HW220943  -3.237   3.881   8.467
39646SOL     OW20944  10.474   3.185   3.476
39646SOL    HW120945  10.448   3.184   3.568
39646SOL    HW220946  10.570  -7.861   3.478
39647SOL     OW20947   7.333   5.482   2.872
39647SOL    HW120948   7.340   5.478   2.776
39647SOL    HW220949   7.239   5.496  24.967
39648SOL     OW20950   3.945   8.759   9.605
39648SOL    HW120951  15.045   8.702   9.558
39648SOL    HW220952  26.064   8.770  -1.348
39649SOL     OW20953   8.361   0.168   0.031
39649SOL    HW120954   8.320   0.169  22.024
39649SOL    HW220955   8.443   0.216  11.058
39650SOL     OW20956   5.958   4.187   6.868
39650SOL    HW120957  17.006   4.146 -15.126
39650SOL    HW220958  -5.144  -6.781   6.881
39651SOL     OW20959   4.986   4.139   9.258
39651SOL    HW120960 -17.169   4.082   9.268
39651SOL    HW220961   5.059  26.167 -12.785
39652SOL     OW20962   8.359   2.197   8.526
39652SOL    HW120963   8.264   2.191   8.533
39652SOL    HW220964   8.384   2.117  19.519
39653SOL     OW20965   5.049   7.238   3.819
39653SOL    HW120966   5.004 -25.914   3.897
39653SOL    HW220967  -6.006   7.171   3.752
39654SOL     OW20968   7.870  -0.489   8.233
39654SOL    HW120969  18.847  43.604   8.266
39654SOL    HW220970   7.870  21.578   8.138
39655SOL     OW20971   6.124   0.149   5.941
39655SOL    HW120972   6.168   0.145   5.856
39655SOL    HW220973   6.061   0.077   5.938
39656SOL     OW20974   8.413   2.221   2.487
39656SOL    HW120975   8.471   2.245   2.560
39656SOL    HW220976   8.448   2.270   2.412
39657SOL     OW20977   6.323   5.270   0.226
39657SOL    HW120978  17.449  -5.755   0.189
39657SOL    HW220979  -4.775  16.306   0.151
39658SOL     OW20980  -1.722   5.065   6.041
39658SOL    HW120981  31.334  -5.908  -4.968
39658SOL    HW220982   9.310  -5.973   5.946
39659SOL     OW20983  12.106   9.706   7.793
39659SOL    HW120984   1.033   9.734  18.918
39659SOL    HW220985   0.998  -1.308   7.731
39660SOL     OW20986   7.626   5.458   3.339
39660SOL    HW120987   7.596   5.369   3.321
39660SOL    HW220988   7.707   5.446  14.428
39661SOL     OW20989   1.861   9.279   8.586
39661SOL    HW120990   1.889   9.323  -2.534
39661SOL    HW220991  12.864   9.196  -2.484
39662SOL     OW20992   8.088   5.951   8.130
39662SOL    HW120993   8.171   5.904  19.173
39662SOL    HW220994  -2.930  -5.000   8.158
39663SOL     OW20995   8.582   8.573   3.818
39663SOL    HW120996   8.542   8.594   3.903
39663SOL    HW220997  -2.486   8.483  14.839
39664SOL     OW20998   0.385  10.591   7.654
39664SOL    HW120999  11.448  10.605   7.746
39664SOL    HW221000   0.296  10.623   7.646
39665SOL     OW21001   3.112   5.782   7.447
39665SOL    HW121002   3.095   5.751  40.654
39665SOL    HW221003   3.086   5.710   7.390
39666SOL     OW21004  -1.059   1.603  10.789
39666SOL    HW121005  32.097  12.577  10.730
39666SOL    HW221006   9.904  12.600  10.828
39667SOL     OW21007   9.163   8.423  10.315
39667SOL    HW121008   9.094   8.458  -0.780
39667SOL    HW221009   9.171   8.331  -0.750
39668SOL     OW21010   7.901   9.425  10.793
39668SOL    HW121011   7.866  20.552  10.812
39668SOL    HW221012   7.959   9.405  10.866
39669SOL     OW21013   4.080   2.062   0.481
39669SOL    HW121014   4.028  -9.057   0.482
39669SOL    HW221015  26.108   2.123  22.506
39670SOL     OW21016   9.319  10.423   6.380
39670SOL    HW121017  -1.686  10.355 -15.641
39670SOL    HW221018   9.315  10.502  -4.605
39671SOL     OW21019   4.240   0.872  -0.446
39671SOL    HW121020   4.191   0.793  -0.425
39671SOL    HW221021   4.305   0.880  10.664
39672SOL     OW21022   5.584   8.317   1.522
39672SOL    HW121023   5.519  19.407   1.572
39672SOL    HW221024   5.552   8.321   1.432
39673SOL     OW21025   9.732   5.498   3.934
39673SOL    HW121026 -12.304   5.511   4.018
39673SOL    HW221027   9.732   5.585  14.933
39674SOL     OW21028   1.136   3.825  10.338
39674SOL    HW121029   1.197   3.847  10.267
39674SOL    HW221030  -9.976  25.967  10.328
39675SOL     OW21031   1.403   7.073   9.755
39675SOL    HW121032  23.467  40.173   9.663
39675SOL    HW221033  12.436   7.168  -1.277
39676SOL     OW21034   4.645   5.329   2.759
39676SOL    HW121035   4.709  -5.670   2.700
39676SOL    HW221036   4.657   5.375  24.921
39677SOL     OW21037   3.564  10.323   4.418
39677SOL    HW121038   3.628  10.364   4.477
39677SOL    HW221039   3.602  10.334   4.331
39678SOL     OW21040   6.130  10.817  10.795
39678SOL    HW121041   6.076  10.889  21.801
39678SOL    HW221042   6.157  10.769  -0.323
39679SOL     OW21043   1.653   1.774   4.121
39679SOL    HW121044   1.690  -9.346   4.085
39679SOL    HW221045  12.729  -9.196  26.145
39680SOL     OW21046   4.163   8.840   9.206
39680SOL    HW121047   4.078   8.808   9.177
39680SOL    HW221048  15.183 -13.187   9.284
39681SOL     OW21049   3.926   2.217  11.373
39681SOL    HW121050   3.893   2.227  11.284
39681SOL    HW221051   3.969  -8.739   0.352
39682SOL     OW21052  10.405   5.753   8.923
39682SOL    HW121053  10.439  16.720   8.870
39682SOL    HW221054  10.483   5.790   8.965
39683SOL     OW21055   3.792   8.462   9.639
39683SOL    HW121056  14.853  -2.584   9.732
39683SOL    HW221057   3.877   8.454  31.673
39684SOL     OW21058   3.962   2.062   6.769
39684SOL    HW121059   3.886   2.082   6.714
39684SOL    HW221060  14.973   1.989  28.903
39685SOL     OW21061  -1.200   7.918  -2.162
39685SOL    HW121062   9.924  19.000  19.909
39685SOL    HW221063  20.848 -14.136  20.005
39686SOL     OW21064   1.895   9.162   2.539
39686SOL    HW121065   1.956  -1.857   2.468
39686SOL    HW221066   1.858   9.077   2.516
39687SOL     OW21067   2.560   2.008   0.707
39687SOL    HW121068   2.620   1.944   0.745
39687SOL    HW221069  -8.566   1.966  11.750
39688SOL     OW21070   3.946   2.621   0.779
39688SOL    HW121071  -7.031   2.548 -10.267
39688SOL    HW221072   3.877 -19.492   0.835
39689SOL     OW21073  10.691   1.820   3.102
39689SOL    HW121074  10.629   1.860   3.042
39689SOL    HW221075  10.744   1.893  14.174
39690SOL     OW21076   6.105   0.077   7.320
39690SOL    HW121077   6.173   0.012  18.343
39690SOL    HW221078  17.065   0.026   7.334
39691SOL     OW21079   8.375   2.680   7.153
39691SOL    HW121080  30.432 -19.308   7.170
39691SOL    HW221081   8.410   2.680 -15.015
39692SOL     OW21082   9.991   8.043   3.345
39692SOL    HW121083  -1.060   7.955   3.309
39692SOL    HW221084   9.928   8.048   3.418
39693SOL     OW21085  11.134   3.395   9.139
39693SOL    HW121086   0.101   3.354   9.053
39693SOL    HW221087   0.129   3.329   9.200
39694SOL     OW21088   3.691   9.267   6.853
39694SOL    HW121089  14.760  20.372   6.917
39694SOL    HW221090   3.705   9.183 -15.183
39695SOL     OW21091   6.769   5.386   8.381
39695SOL    HW121092   6.754   5.342  30.376
39695SOL    HW221093   6.693   5.443  30.471
39696SOL     OW21094  10.136   9.520   6.776
39696SOL    HW121095  -0.863  -1.461   6.840
39696SOL    HW221096  10.088   9.578   6.717
39697SOL     OW21097   6.319   0.887   5.911
39697SOL    HW121098  17.408   0.909   5.989
39697SOL    HW221099  17.267   0.893  -5.102
39698SOL     OW21100   9.188   8.138   2.716
39698SOL    HW121101  20.216   8.192   2.794
39698SOL    HW221102   9.276   8.101   2.725
39699SOL     OW21103   8.671   6.237   7.365
39699SOL    HW121104   8.685   6.313   7.420
39699SOL    HW221105   8.594  -4.780   7.313
39700SOL     OW21106  11.644   2.230   8.732
39700SOL    HW121107   0.523  -8.759   8.728
39700SOL    HW221108 -10.377   2.275  30.751
39701SOL     OW21109   0.297   6.533   1.416
39701SOL    HW121110   0.231   6.551   1.482
39701SOL    HW221111   0.249   6.494   1.343
39702SOL     OW21112   0.252   2.134   7.399
39702SOL    HW121113  22.348   2.190   7.324
39702SOL    HW221114  44.440   2.047   7.372
39703SOL     OW21115  11.736   6.234   9.512
39703SOL    HW121116 -32.476   6.289  -1.472
39703SOL    HW221117  11.820  17.267   9.558
39704SOL     OW21118   6.198   4.878   3.083
39704SOL    HW121119   6.232   4.898   2.996
39704SOL    HW221120   6.133 -17.133   3.099
39705SOL     OW21121   2.708   8.476   2.103
39705SOL    HW121122   2.652   8.524   2.164
39705SOL    HW221123   2.646   8.429   2.046
39706SOL     OW21124   8.693   2.480   4.207
39706SOL    HW121125   8.778   2.520   4.226
39706SOL    HW221126  19.705   2.443   4.291
39707SOL     OW21127   6.784   2.918  10.429
39707SOL    HW121128   6.789  13.862  10.421
39707SOL    HW221129   6.723   2.944 -11.719
39708SOL     OW21130   8.729   0.152  11.439
39708SOL    HW121131 -24.429   0.087  11.380
39708SOL    HW221132 -13.337   0.229   0.345
39709SOL     OW21133   5.072  -1.603   4.787
39709SOL    HW121134   5.085  31.534 -39.465
39709SOL    HW221135   5.025  -1.526 -28.300
39710SOL     OW21136   4.567   1.948  11.221
39710SOL    HW121137   4.472   1.940  11.233
39710SOL    HW221138 -17.487 -31.252   0.136
39711SOL     OW21139   9.028   4.484   1.973
39711SOL    HW121140   8.983   4.400   1.975
39711SOL    HW221141   9.022   4.517   2.062
39712SOL     OW21142   3.140   1.366   0.910
39712SOL    HW121143  14.118   1.313  11.899
39712SOL    HW221144  -7.814  12.370   0.887
39713SOL     OW21145   7.629  10.740   9.963
39713SOL    HW121146  18.573  10.733  21.010
39713SOL    HW221147   7.643  10.824   9.920
39714SOL     OW21148   9.167   3.973   6.276
39714SOL    HW121149  20.248 -29.079  -4.709
39714SOL    HW221150   9.080  -7.078  17.353
39715SOL     OW21151   7.619   8.993   9.661
39715SOL    HW121152  18.573   9.036   9.655
39715SOL    HW221153   7.681  -1.980   9.632
39716SOL     OW21154  -0.536  11.013   3.193
39716SOL    HW121155  -0.607  10.988  25.212
39716SOL    HW221156  21.623  10.996   3.145
39717SOL     OW21157   7.151   2.317   2.269
39717SOL    HW121158  -3.841  13.403   2.200
39717SOL    HW221159  -3.866  24.304   2.256
39718SOL     OW21160   5.584   3.249   3.835
39718SOL    HW121161  16.590  14.200   3.821
39718SOL    HW221162  -5.511   3.285  25.983
39719SOL     OW21163   5.635   1.448   2.559
39719SOL    HW121164  27.712   1.449   2.655
39719SOL    HW221165   5.548   1.478   2.533
39720SOL     OW21166   3.191   7.821   1.912
39720SOL    HW121167   3.214  -3.311   1.911
39720SOL    HW221168  -7.874   7.840   1.822
39721SOL     OW21169   9.676   8.342   4.161
39721SOL    HW121170   9.725   8.422   4.181
39721SOL    HW221171   9.706   8.279   4.227
39722SOL     OW21172   4.182  -0.490   5.618
39722SOL    HW121173   4.148  10.636   5.641
39722SOL    HW221174   4.204  10.556   5.525
39723SOL     OW21175   8.507   6.418   1.814
39723SOL    HW121176   8.423   6.464   1.812
39723SOL    HW221177   8.526   6.397   1.723
39724SOL     OW21178   6.207   4.214   9.128
39724SOL    HW121179   6.114  -6.809   9.144
39724SOL    HW221180   6.246   4.207  -1.824
39725SOL     OW21181   3.424  -1.143   8.353
39725SOL    HW121182   3.464  -1.229  19.404
39725SOL    HW221183   3.349  20.936   8.412
39726SOL     OW21184   9.607   0.603   0.391
39726SOL    HW121185 -23.601  11.618   0.414
39726SOL    HW221186   9.650   0.617   0.476
39727SOL     OW21187   8.986   8.463   9.854
39727SOL    HW121188 -13.103   8.438   9.762
39727SOL    HW221189  -1.961   8.486   9.863
39728SOL     OW21190   0.115   6.403   1.251
39728SOL    HW121191   0.025   6.414   1.282
39728SOL    HW221192   0.124 -15.770  12.276
39729SOL     OW21193   2.573   7.693   1.540
39729SOL    HW121194  13.582  18.655   1.588
39729SOL    HW221195   2.494 -14.341  12.552
39730SOL     OW21196   3.283   3.591   0.688
39730SOL    HW121197   3.226   3.529  11.773
39730SOL    HW221198   3.334   3.632   0.758
39731SOL     OW21199   7.898   8.865   7.253
39731SOL    HW121200  18.902   8.863   7.342
39731SOL    HW221201   7.964 -13.145   7.255
39732SOL     OW21202   7.152   5.874   8.497
39732SOL    HW121203   7.144  39.032   8.583
39732SOL    HW221204   7.094   5.798 -13.580
39733SOL     OW21205   2.497   1.464   9.465
39733SOL    HW121206  13.533  12.567   9.537
39733SOL    HW221207 -19.488  -9.582   9.444
39734SOL     OW21208   0.526   8.548   7.966
39734SOL    HW121209  11.567  19.542  -2.990
39734SOL    HW221210   0.573   8.630   7.982
39735SOL     OW21211   4.166   1.219  10.681
39735SOL    HW121212   4.195   1.145  10.735
39735SOL    HW221213   4.195   1.196  10.592
39736SOL     OW21214  11.054   2.658   2.640
39736SOL    HW121215  11.084   2.712   2.567
39736SOL    HW221216 -11.100   2.705   2.677
39737SOL     OW21217   1.294  10.066   7.737
39737SOL    HW121218   1.311 -12.088   7.795
39737SOL    HW221219  12.359  10.143 -25.329
39738SOL     OW21220   2.199   8.857   4.533
39738SOL    HW121221   2.226   8.939  15.613
39738SOL    HW221222   2.256   8.849  -6.583
39739SOL     OW21223   6.031   9.986   8.811
39739SOL    HW121224   5.956  10.031   8.773
39739SOL    HW221225  -4.997   9.908   8.757
39740SOL     OW21226   9.001  10.651   3.210
39740SOL    HW121227   8.930  10.600   3.171
39740SOL    HW221228  20.013 -22.455   3.302
39741SOL     OW21229   0.488  -0.524   2.380
39741SOL    HW121230   0.472  10.511   2.286
39741SOL    HW221231   0.572  -0.478   2.388
39742SOL     OW21232   6.803   6.207   9.009
39742SOL    HW121233   6.897  -4.843  20.036
39742SOL    HW221234   6.795   6.268  -1.957
39743SOL     OW21235   6.219   9.223   6.789
39743SOL    HW121236 -15.917   9.298   6.772
39743SOL    HW221237   6.263  -1.832 -15.373
39744SOL     OW21238   1.710   5.854   4.102
39744SOL    HW121239  12.742 -16.218  -7.033
39744SOL    HW221240   1.620  -5.192 -28.986
39745SOL     OW21241  10.500   8.704   1.334
39745SOL    HW121242  10.494   8.621  -9.658
39745SOL    HW221243  10.548   8.761   1.394
39746SOL     OW21244  12.237   7.522   8.769
39746SOL    HW121245  -9.775  18.518 -13.362
39746SOL    HW221246   1.116   7.478  -2.295
39747SOL     OW21247   2.106   5.288   6.268
39747SOL    HW121248  13.100   5.319   6.347
39747SOL    HW221249   2.090   5.193  17.307
39748SOL     OW21250  12.043   8.874   4.835
39748SOL    HW121251   0.919   8.829   4.832
39748SOL    HW221252 -21.016   8.816 -17.290
39749SOL     OW21253   6.507   8.025   2.672
39749SOL    HW121254   6.509   8.038  13.806
39749SOL    HW221255   6.455   8.098   2.638
39750SOL     OW21256   2.405   8.772   6.134
39750SOL    HW121257   2.428  30.778  -4.849
39750SOL    HW221258  13.357   8.798   6.164
39751SOL     OW21259   7.829   1.819   5.532
39751SOL    HW121260   7.854   1.740  38.601
39751SOL    HW221261   7.744  23.876   5.569
39752SOL     OW21262   6.749   5.433   4.863
39752SOL    HW121263  -4.368  -5.571   4.820
39752SOL    HW221264   6.715  -5.665  15.970
39753SOL     OW21265   8.040   2.885  -0.409
39753SOL    HW121266 -14.100   2.945  10.673
39753SOL    HW221267 -25.086  -8.236  -0.359
39754SOL     OW21268   3.791   3.510  10.644
39754SOL    HW121269  -7.285   3.493  10.731
39754SOL    HW221270   3.807   3.604  10.643
39755SOL     OW21271   8.266   5.250   5.239
39755SOL    HW121272   8.209  16.365  -5.789
39755SOL    HW221273   8.213   5.175  -5.775
39756SOL     OW21274   2.572   3.884   9.933
39756SOL    HW121275 -19.458   3.966   9.936
39756SOL    HW221276   2.497  14.942   9.877
39757SOL     OW21277   4.427  -1.448   4.661
39757SOL    HW121278 -17.578  -1.505  15.721
39757SOL    HW221279   4.435  31.743   4.722
39758SOL     OW21280   6.331   2.454   4.567
39758SOL    HW121281   6.242   2.433  15.633
39758SOL    HW221282  28.407   2.546   4.542
39759SOL     OW21283   2.679   1.668  10.098
39759SOL    HW121284   2.635  12.772  10.043
39759SOL    HW221285   2.761   1.649  10.054
39760SOL     OW21286  11.623   5.343  10.627
39760SOL    HW121287  11.576   5.370  10.706
39760SOL    HW221288 -10.398  16.456  10.608
39761SOL     OW21289   5.833   0.503   0.761
39761SOL    HW121290  16.817   0.431  11.832
39761SOL    HW221291   5.854  22.558   0.671
39762SOL     OW21292   1.932   8.348   2.731
39762SOL    HW121293  23.942   8.291 -30.356
39762SOL    HW221294  -9.151   8.410  -8.366
39763SOL     OW21295   6.319   9.971   3.348
39763SOL    HW121296   6.377   9.943   3.418
39763SOL    HW221297  61.459   9.895   3.333
39764SOL     OW21298   9.425  10.875   9.684
39764SOL    HW121299   9.467  10.956 -56.579
39764SOL    HW221300   9.343  10.902   9.727
39765SOL     OW21301   4.626   9.938   8.066
39765SOL    HW121302   4.636   9.868   8.001
39765SOL    HW221303  37.819   9.996  -2.988
39766SOL     OW21304   7.362   6.800   1.616
39766SOL    HW121305  18.438   6.713   1.596
39766SOL    HW221306  29.383   6.784  23.770
39767SOL     OW21307  -1.556   4.883   6.869
39767SOL    HW121308  -1.636   4.926  17.939
39767SOL    HW221309  31.626   4.898   6.939
39768SOL     OW21310   7.996   5.013   7.402
39768SOL    HW121311  -2.995  -5.949  18.466
39768SOL    HW221312   7.956   5.035  -3.721
39769SOL     OW21313  -0.856   1.125   7.848
39769SOL    HW121314  -0.919  12.092   7.850
39769SOL    HW221315  32.341   1.087   7.808
39770SOL     OW21316   4.576   7.486   9.123
39770SOL    HW121317   4.485   7.468   9.099
39770SOL    HW221318   4.586   7.446   9.210
39771SOL     OW21319   0.889   4.354   4.389
39771SOL    HW121320   0.909   4.261   4.399
39771SOL    HW221321  11.937   4.390  15.517
39772SOL     OW21322  10.125   6.035   7.619
39772SOL    HW121323  10.126   5.953   7.570
39772SOL    HW221324  10.101   6.102   7.554
39773SOL     OW21325   3.592  12.871   3.288
39773SOL    HW121326   3.576  12.964  14.340
39773SOL    HW221327   3.617 -31.320   3.375
39774SOL     OW21328   3.058   8.728  10.339
39774SOL    HW121329   2.994  -2.327  10.269
39774SOL    HW221330  14.127   8.641  10.364
39775SOL     OW21331   4.047   5.791   6.505
39775SOL    HW121332   3.985  38.849   6.464
39775SOL    HW221333   4.132   5.747   6.498
39776SOL     OW21334   6.671   8.876   7.849
39776SOL    HW121335  17.701  19.824   7.823
39776SOL    HW221336   6.662   8.876  18.983
39777SOL     OW21337   0.642   6.190   4.019
39777SOL    HW121338   0.641   6.247   3.942
39777SOL    HW221339 -10.340   6.118   3.995
39778SOL     OW21340   5.149   3.917   5.924
39778SOL    HW121341   5.111  14.874  -5.083
39778SOL    HW221342  16.141  14.974  -5.197
39779SOL     OW21343   0.054   1.879   1.781
39779SOL    HW121344  -0.020  -9.202   1.737
39779SOL    HW221345   0.014  12.981   1.841
39780SOL     OW21346   8.250   9.466   8.764
39780SOL    HW121347   8.204   9.439   8.843
39780SOL    HW221348  -2.782  20.425   8.712
39781SOL     OW21349   7.990   7.432   0.179
39781SOL    HW121350  -3.097   7.439  11.136
39781SOL    HW221351 -14.090  18.378   0.200
39782SOL     OW21352  10.610   7.212   0.656
39782SOL    HW121353  10.633 -14.884   0.747
39782SOL    HW221354  10.565  -3.907   0.627
39783SOL     OW21355   9.288   3.954   2.985
39783SOL    HW121356   9.194   3.943   2.997
39783SOL    HW221357   9.304   3.927  -8.145
39784SOL     OW21358   1.751   1.535   8.925
39784SOL    HW121359   1.688  12.625   8.874
39784SOL    HW221360   1.743  12.609  20.053
39785SOL     OW21361   8.621   4.467   5.742
39785SOL    HW121362   8.644  -6.581   5.650
39785SOL    HW221363  19.737   4.508  16.822
39786SOL     OW21364   4.744   6.441   1.633
39786SOL    HW121365  -6.242  17.472  -9.328
39786SOL    HW221366  -6.358  39.487   1.638
39787SOL     OW21367   3.890  10.217   2.430
39787SOL    HW121368  14.944  10.122   2.426
39787SOL    HW221369   3.888  10.237   2.523
39788SOL     OW21370   4.122   7.571   5.785
39788SOL    HW121371  15.127  18.536  16.775
39788SOL    HW221372   4.205   7.541   5.820
39789SOL     OW21373   5.691   7.230   1.509
39789SOL    HW121374   5.607   7.189  12.571
39789SOL    HW221375  27.818   7.162   1.462
39790SOL     OW21376   2.820   3.401   7.944
39790SOL    HW121377  13.907   3.378   7.864
39790SOL    HW221378   2.776   3.320  -3.069
39791SOL     OW21379   3.254   3.404  10.259
39791SOL    HW121380  14.260   3.492  10.241
39791SOL    HW221381  14.388   3.411  10.243
39792SOL     OW21382  10.584   8.357   8.731
39792SOL    HW121383  10.502   8.339   8.777
39792SOL    HW221384  10.649  19.405   8.800
39793SOL     OW21385   3.488   2.061   0.727
39793SOL    HW121386   3.573  13.082   0.686
39793SOL    HW221387  -7.578  13.184   0.688
39794SOL     OW21388   8.038   9.619   3.073
39794SOL    HW121389  30.041   9.631   3.130
39794SOL    HW221390  30.083  -1.466   2.997
39795SOL     OW21391   7.476   0.838   7.350
39795SOL    HW121392   7.506   0.905   7.413
39795SOL    HW221393  18.582 -10.200   7.282
39796SOL     OW21394  11.187   8.109   0.775
39796SOL    HW121395   0.190  -3.000   0.723
39796SOL    HW221396  11.226   8.190   0.741
39797SOL     OW21397   3.952   5.364   0.395
39797SOL    HW121398   4.005   5.291   0.427
39797SOL    HW221399   3.864   5.327   0.388
39798SOL     OW21400   7.740   1.198  -0.064
39798SOL    HW121401   7.708   1.179   0.024
39798SOL    HW221402   7.679   1.153  21.957
39799SOL     OW21403   4.028   5.434   5.984
39799SOL    HW121404  15.135 -16.711   5.996
39799SOL    HW221405  26.152   5.518   5.996
39800SOL     OW21406   8.170   1.753  -0.391
39800SOL    HW121407  19.282   1.778  -0.333
39800SOL    HW221408   8.117   1.695  10.703
39801SOL     OW21409   7.197   7.710  10.110
39801SOL    HW121410   7.214  18.773  10.201
39801SOL    HW221411   7.130   7.772  10.081
39802SOL     OW21412   6.812   2.494   2.869
39802SOL    HW121413  17.876   2.553   2.798
39802SOL    HW221414   6.875 -30.606   2.939
39803SOL     OW21415   7.028   3.342   6.062
39803SOL    HW121416 -15.141  -7.687  39.209
39803SOL    HW221417  -4.015   3.273  17.035
39804SOL     OW21418   3.220   6.806   1.200
39804SOL    HW121419   3.272   6.876  23.239
39804SOL    HW221420   3.188 -15.235   1.282
39805SOL     OW21421   2.028   4.317   7.178
39805SOL    HW121422  13.072  15.263   7.159
39805SOL    HW221423   1.948  26.406  18.269
39806SOL     OW21424   3.071   5.199   7.619
39806SOL    HW121425  -8.004  27.193  -3.446
39806SOL    HW221426   3.111   5.183  18.744
39807SOL     OW21427  -0.364   5.238   5.995
39807SOL    HW121428  -0.287  27.346   5.946
39807SOL    HW221429  21.751   5.189 -27.049
39808SOL     OW21430   3.453   6.308   1.625
39808SOL    HW121431   3.394  17.286   1.583
39808SOL    HW221432  25.610   6.310   1.570
39809SOL     OW21433   0.521   8.696   0.971
39809SOL    HW121434   0.587   8.764  12.022
39809SOL    HW221435  11.524   8.683   1.058
39810SOL     OW21436   2.768   2.717  10.967
39810SOL    HW121437 -19.331   2.673  10.885
39810SOL    HW221438  13.738  35.807  11.027
39811SOL     OW21439   1.197   3.905   3.725
39811SOL    HW121440   1.179   3.989   3.766
39811SOL    HW221441   1.115  -7.183   3.731
39812SOL     OW21442   0.969   7.524   1.947
39812SOL    HW121443   1.048   7.561   1.906
39812SOL    HW221444   0.897 -14.521   1.894
39813SOL     OW21445   5.567   1.436   3.590
39813SOL    HW121446  16.573 -20.643   3.679
39813SOL    HW221447   5.490   1.422  36.654
39814SOL     OW21448   5.306   8.257   5.617
39814SOL    HW121449  16.343   8.328   5.681
39814SOL    HW221450  16.263   8.264  -5.470
39815SOL     OW21451  10.705   8.321   8.343
39815SOL    HW121452  10.783   8.287   8.387
39815SOL    HW221453  10.658   8.370  19.450
39816SOL     OW21454  10.320   2.849   6.308
39816SOL    HW121455  -0.731   2.925   6.251
39816SOL    HW221456  10.234   2.806  28.387
39817SOL     OW21457   3.448  10.526   8.099
39817SOL    HW121458   3.436  10.542   8.006
39817SOL    HW221459   3.385  10.584   8.142
39818SOL     OW21460   2.529   7.512   4.258
39818SOL    HW121461   2.438  -3.556   4.257
39818SOL    HW221462   2.567  18.506   4.334
39819SOL     OW21463   5.683   3.225   4.385
39819SOL    HW121464   5.692 -18.775   4.333
39819SOL    HW221465  -5.447  14.266  15.457
39820SOL     OW21466   9.000   2.999   5.441
39820SOL    HW121467 -13.146   3.049   5.488
39820SOL    HW221468 -35.202   2.919   5.412
39821SOL     OW21469   5.940   0.041   3.568
39821SOL    HW121470   5.945  -0.048 -18.545
39821SOL    HW221471   5.849   0.067   3.553
39822SOL     OW21472   7.642   5.520   1.826
39822SOL    HW121473   7.722   5.475   1.855
39822SOL    HW221474  -3.459  16.489   1.808
39823SOL     OW21475   7.503   6.928   4.509
39823SOL    HW121476 -14.648   6.937 -28.547
39823SOL    HW221477 -14.564   6.833  -6.540
39824SOL     OW21478   6.681   8.441   7.128
39824SOL    HW121479  28.787   8.406   7.043
39824SOL    HW221480   6.599   8.396  -3.893
39825SOL     OW21481  10.990   5.175   6.915
39825SOL    HW121482  11.009   5.101  -4.066
39825SOL    HW221483  11.053  -5.874   6.843
39826SOL     OW21484  12.621   1.941   2.492
39826SOL    HW121485 -20.557   1.938   2.417
39826SOL    HW221486  12.617   1.852  -8.511
39827SOL     OW21487   7.421   4.708   8.034
39827SOL    HW121488 -14.691   4.677   8.118
39827SOL    HW221489   7.363  -6.372   7.970
39828SOL     OW21490   9.432   6.086   0.507
39828SOL    HW121491   9.357   6.027   0.505
39828SOL    HW221492   9.470   6.080  22.498
39829SOL     OW21493   8.374   3.267  10.024
39829SOL    HW121494   8.379   3.359  21.091
39829SOL    HW221495  -2.611  -7.819  10.088
39830SOL     OW21496   1.738   6.953   5.687
39830SOL    HW121497   1.764   7.041   5.714
39830SOL    HW221498   1.689   6.919   5.761
39831SOL     OW21499   6.117   8.397   6.442
39831SOL    HW121500   6.178   8.467   6.462
39831SOL    HW221501  -5.007   8.428  28.554
39832SOL     OW21502  10.083   7.734  -0.148
39832SOL    HW121503  10.115  29.867  10.820
39832SOL    HW221504  10.123   7.648  -0.163
39833SOL     OW21505   6.948   5.870   3.201
39833SOL    HW121506  29.059   5.959   3.211
39833SOL    HW221507  18.063 -16.264   3.218
39834SOL     OW21508   6.719   9.927   4.313
39834SOL    HW121509   6.650  -1.177   4.329
39834SOL    HW221510  28.757   9.991   4.254
39835SOL     OW21511  10.272   2.146   9.601
39835SOL    HW121512  10.188   2.148   9.648
39835SOL    HW221513  10.328  13.131   9.655
39836SOL     OW21514  10.825   6.731   8.954
39836SOL    HW121515  10.732   6.753  20.001
39836SOL    HW221516  10.866   6.810   8.918
39837SOL     OW21517   9.793   8.574   5.179
39837SOL    HW121518   9.713   8.588  16.269
39837SOL    HW221519   9.857   8.632   5.220
39838SOL     OW21520   9.661   3.473   8.632
39838SOL    HW121521   9.573   3.437   8.623
39838SOL    HW221522   9.666   3.542  -2.474
39839SOL     OW21523   3.842   6.639   2.503
39839SOL    HW121524   3.901   6.593  13.483
39839SOL    HW221525   3.899   6.695  -8.484
39840SOL     OW21526   4.368   2.205   9.571
39840SOL    HW121527 -28.798  -8.751   9.570
39840SOL    HW221528   4.457   2.228  20.638
39841SOL     OW21529   6.741   9.405   3.261
39841SOL    HW121530   6.657  -1.674   3.236
39841SOL    HW221531 -37.438   9.497  -7.763
39842SOL     OW21532   6.205   2.494  10.165
39842SOL    HW121533  -4.881   2.418  -0.839
39842SOL    HW221534   6.177   2.499  10.073
39843SOL     OW21535   2.109   8.112   8.020
39843SOL    HW121536  -8.840   8.098  41.164
39843SOL    HW221537   2.067  -2.894  -2.940
39844SOL     OW21538  11.018  10.358   0.398
39844SOL    HW121539  11.040  10.268  33.495
39844SOL    HW221540  11.061 -11.704  44.640
39845SOL     OW21541   3.010   6.981   3.309
39845SOL    HW121542  -8.096  17.978   3.363
39845SOL    HW221543 -19.107   6.984   3.222
39846SOL     OW21544   9.105   7.340   6.326
39846SOL    HW121545   9.196   7.332 -15.725
39846SOL    HW221546  -1.939   7.288   6.245
39847SOL     OW21547   7.507  -0.498   7.114
39847SOL    HW121548  18.512  -0.430   7.171
39847SOL    HW221549   7.586  21.550  29.238
39848SOL     OW21550   8.993   7.689   2.878
39848SOL    HW121551  -2.063   7.783   2.879
39848SOL    HW221552   9.071   7.678  -8.108
39849SOL     OW21553   0.618   3.539   4.688
39849SOL    HW121554   0.612   3.471  26.700
39849SOL    HW221555   0.641   3.618   4.639
39850SOL     OW21556   8.946   0.250   6.099
39850SOL    HW121557  20.046   0.201   6.043
39850SOL    HW221558  19.967   0.330   6.050
39851SOL     OW21559   8.203   8.945   2.597
39851SOL    HW121560  -2.779   9.014   2.631
39851SOL    HW221561 -13.919  -2.054   2.521
39852SOL     OW21562   7.971   8.584   4.568
39852SOL    HW121563   7.876   8.573   4.564
39852SOL    HW221564  30.062   8.673   4.601
39853SOL     OW21565   8.356   9.655   7.366
39853SOL    HW121566   8.319  20.752   7.433
39853SOL    HW221567   8.415   9.597 -14.666
39854SOL     OW21568   6.526   7.087   9.827
39854SOL    HW121569  17.575  -3.859   9.812
39854SOL    HW221570  17.556   7.078   9.922
39855SOL     OW21571   3.533   4.507  10.286
39855SOL    HW121572   3.438  48.672  10.292
39855SOL    HW221573   3.565  15.588 -22.752
39856SOL     OW21574   0.707   5.170   5.368
39856SOL    HW121575  11.682   5.212   5.311
39856SOL    HW221576  11.705  -5.950  16.437
39857SOL     OW21577   1.131   4.230   2.567
39857SOL    HW121578   1.054  -6.827  -8.419
39857SOL    HW221579  12.225  -6.752   2.621
39858SOL     OW21580   3.622   5.870   3.318
39858SOL    HW121581  36.801   5.920   3.373
39858SOL    HW221582  25.662   5.935   3.259
39859SOL     OW21583   2.582   2.280   9.274
39859SOL    HW121584   2.670   2.245   9.260
39859SOL    HW221585   2.586   2.369  20.280
39860SOL     OW21586  10.163   5.649   8.791
39860SOL    HW121587  10.153   5.742  -2.269
39860SOL    HW221588  10.220   5.648   8.868
39861SOL     OW21589   1.428   8.789   3.864
39861SOL    HW121590  34.542   8.708   3.914
39861SOL    HW221591   1.510   8.829   3.891
39862SOL     OW21592   3.949   2.094   5.778
39862SOL    HW121593  15.058   2.128   5.835
39862SOL    HW221594  15.021   2.107   5.689
39863SOL     OW21595   9.722  10.254   4.004
39863SOL    HW121596   9.754  -0.695   4.001
39863SOL    HW221597   9.756  -0.825  26.003
39864SOL     OW21598   6.109   2.276   6.798
39864SOL    HW121599   6.093   2.301   6.707
39864SOL    HW221600  -4.938   2.358   6.847
39865SOL     OW21601   2.985  11.246  10.276
39865SOL    HW121602   2.930   0.285  10.282
39865SOL    HW221603 -19.041  11.259 -11.881
39866SOL     OW21604   3.661   5.923   7.635
39866SOL    HW121605  -7.450   5.866 -25.454
39866SOL    HW221606  14.761   5.864   7.590
39867SOL     OW21607   5.043   3.463  10.437
39867SOL    HW121608  16.002  14.525  10.391
39867SOL    HW221609  16.133 -40.613  10.439
39868SOL     OW21610   7.514   4.307   0.868
39868SOL    HW121611   7.450  15.378   0.932
39868SOL    HW221612   7.564   4.240   0.914
39869SOL     OW21613   9.091   5.244   6.129
39869SOL    HW121614  20.083  -5.836  -4.838
39869SOL    HW221615   9.046   5.327   6.114
39870SOL     OW21616   7.294   2.196   9.040
39870SOL    HW121617  -3.653   2.186   9.062
39870SOL    HW221618   7.293  -8.789 -13.118
39871SOL     OW21619   7.742   4.631   6.303
39871SOL    HW121620   7.773   4.651  -4.825
39871SOL    HW221621 -25.458   4.682  17.350
39872SOL     OW21622  -0.699  10.499   5.213
39872SOL    HW121623  -0.741  10.425   5.255
39872SOL    HW221624  21.377  10.569   5.279
39873SOL     OW21625   7.478   6.424   4.769
39873SOL    HW121626  18.494  17.437  15.897
39873SOL    HW221627   7.550  -4.673   4.744
39874SOL     OW21628  10.312   4.842   6.045
39874SOL    HW121629  10.325   4.926   6.089
39874SOL    HW221630  10.374   4.843  28.050
39875SOL     OW21631   8.112   2.800   7.388
39875SOL    HW121632   8.048   2.871  -3.649
39875SOL    HW221633   8.085   2.741 -25.661
39876SOL     OW21634   3.253  10.765   4.496
39876SOL    HW121635   3.198  10.817 -39.604
39876SOL    HW221636   3.232  10.797  -6.632
39877SOL     OW21637   0.466   4.921   8.539
39877SOL    HW121638  11.490   4.953   8.450
39877SOL    HW221639   0.440 -39.329   8.536
39878SOL     OW21640   9.484  -1.229   3.303
39878SOL    HW121641   9.519   9.857  -7.812
39878SOL    HW221642   9.450  20.768   3.268
39879SOL     OW21643   2.850   8.698   3.872
39879SOL    HW121644   2.838   8.699   3.966
39879SOL    HW221645   2.943  19.718  -7.180
39880SOL     OW21646   9.194  -0.895   7.383
39880SOL    HW121647  -1.761  -0.886   7.426
39880SOL    HW221648   9.207  21.222   7.296
39881SOL     OW21649   0.835   4.180   4.672
39881SOL    HW121650   0.898   4.125  15.664
39881SOL    HW221651  11.792 -39.994   4.628
39882SOL     OW21652  12.145  11.683   9.844
39882SOL    HW121653  12.166 -10.312   9.804
39882SOL    HW221654  -9.983 -10.374   9.923
39883SOL     OW21655   5.864   7.525   5.843
39883SOL    HW121656   5.868   7.619  16.862
39883SOL    HW221657  16.868   7.522  -5.107
39884SOL     OW21658   3.204   9.370   2.445
39884SOL    HW121659   3.287   9.417   2.452
39884SOL    HW221660  14.268   9.283   2.413
39885SOL     OW21661   9.218   1.984   7.329
39885SOL    HW121662   9.302   1.938   7.318
39885SOL    HW221663   9.227   2.031   7.412
39886SOL     OW21664  10.249   9.441   1.146
39886SOL    HW121665  10.224   9.508   1.083
39886SOL    HW221666  -0.749   9.490   1.217
39887SOL     OW21667   3.831  -0.989   7.043
39887SOL    HW121668   3.827  -1.039  29.040
39887SOL    HW221669  14.791  21.066   7.090
39888SOL     OW21670   9.450   5.957   0.955
39888SOL    HW121671   9.520 -16.185  23.055
39888SOL    HW221672   9.478   6.038   0.996
39889SOL     OW21673   8.771   4.110   7.506
39889SOL    HW121674   8.689 -17.932  -3.498
39889SOL    HW221675  19.810   4.134  29.493
39890SOL     OW21676   7.928   8.921   3.590
39890SOL    HW121677   7.932   8.881  14.543
39890SOL    HW221678   7.836   8.913 -29.503
39891SOL     OW21679  10.977  11.946   5.333
39891SOL    HW121680  10.932 -10.218  -5.710
39891SOL    HW221681  10.933  11.999  16.306
39892SOL     OW21682   9.004   5.348   6.485
39892SOL    HW121683   8.973 -16.788   6.556
39892SOL    HW221684  -2.113   5.358   6.429
39893SOL     OW21685   3.150   8.164   6.633
39893SOL    HW121686   3.108   8.250   6.633
39893SOL    HW221687   3.193   8.157   6.548
39894SOL     OW21688   2.908   6.486   7.909
39894SOL    HW121689   2.868  -4.544   7.822
39894SOL    HW221690   2.990  -4.601   7.891
39895SOL     OW21691   3.180   9.057   0.058
39895SOL    HW121692   3.209   9.116   0.128
39895SOL    HW221693   3.224   9.092  -0.020
39896SOL     OW21694   4.949   3.533   1.065
39896SOL    HW121695   4.948   3.437   1.070
39896SOL    HW221696   4.981   3.560  12.191
39897SOL     OW21697   1.003   4.090  10.259
39897SOL    HW121698  11.960   4.047  10.280
39897SOL    HW221699   1.006   4.092  10.163
39898SOL     OW21700   9.361   4.494   7.312
39898SOL    HW121701   9.365  -6.618  18.413
39898SOL    HW221702   9.363   4.452   7.226
39899SOL     OW21703   1.062  10.981   7.137
39899SOL    HW121704   1.006 -11.116  18.101
39899SOL    HW221705   1.016  21.981   7.211
39900SOL     OW21706   6.446   7.543   7.092
39900SOL    HW121707   6.519 -25.583   7.153
39900SOL    HW221708  -4.646  -3.575  40.225
39901SOL     OW21709   9.826   1.481   6.416
39901SOL    HW121710  20.828   1.569   6.422
39901SOL    HW221711   9.753  12.465   6.388
39902SOL     OW21712   7.022  10.478   7.589
39902SOL    HW121713   7.022  10.565   7.549
39902SOL    HW221714  18.118 -11.593   7.665
39903SOL     OW21715   9.998   6.769   4.622
39903SOL    HW121716   9.968  17.786  -6.329
39903SOL    HW221717  21.121   6.723   4.612
39904SOL     OW21718   1.528  10.406   2.838
39904SOL    HW121719  12.515  10.329  24.941
39904SOL    HW221720  12.568  10.460   2.917
39905SOL     OW21721   5.528   9.541  11.114
39905SOL    HW121722   5.572   9.626 -10.963
39905SOL    HW221723   5.596   9.478 -21.979
39906SOL     OW21724   5.594   1.972   5.829
39906SOL    HW121725  27.752  13.054   5.863
39906SOL    HW221726  27.608   2.042  -5.214
39907SOL     OW21727  11.020   1.872   7.161
39907SOL    HW121728  11.025   1.815   7.084
39907SOL    HW221729  11.100   1.924   7.158
39908SOL     OW21730   8.816   8.825   2.230
39908SOL    HW121731   8.874   8.851   2.157
39908SOL    HW221732   8.730 -13.262 -19.889
39909SOL     OW21733   1.816   8.077   4.884
39909SOL    HW121734   1.888  19.151 -39.222
39909SOL    HW221735   1.747   8.143   4.890
39910SOL     OW21736   7.797   9.314   8.041
39910SOL    HW121737  29.786  -1.757   8.038
39910SOL    HW221738  18.830   9.403   8.077
39911SOL     OW21739  11.289   9.833   5.409
39911SOL    HW121740  11.278  -1.111  60.608
39911SOL    HW221741   0.293   9.815  16.366
39912SOL     OW21742   3.789   8.186   3.389
39912SOL    HW121743  14.902  -2.798   3.363
39912SOL    HW221744  25.908   8.104   3.417
39913SOL     OW21745   9.955   8.506   8.331
39913SOL    HW121746 -23.183   8.554   8.411
39913SOL    HW221747  10.045  -2.510   8.309
39914SOL     OW21748   3.226  -0.558   0.643
39914SOL    HW121749   3.289  10.553   0.645
39914SOL    HW221750   3.206  10.470   0.550
39915SOL     OW21751   8.014   3.203  10.525
39915SOL    HW121752   8.018   3.299  10.524
39915SOL    HW221753  -2.962   3.178  10.592
39916SOL     OW21754   0.762   7.578   1.734
39916SOL    HW121755   0.706   7.505  -9.276
39916SOL    HW221756   0.736   7.593  12.683
39917SOL     OW21757  10.072   7.884   7.006
39917SOL    HW121758  10.000   7.886   7.068
39917SOL    HW221759  10.092   7.976   6.988
39918SOL     OW21760   7.362   7.699   1.248
39918SOL    HW121761   7.382   7.610   1.216
39918SOL    HW221762   7.440   7.725   1.297
39919SOL     OW21763   9.401  11.450   1.076
39919SOL    HW121764   9.456  11.520   1.112
39919SOL    HW221765   9.449   0.381   0.998
39920SOL     OW21766   7.700   5.217   2.140
39920SOL    HW121767   7.794  -5.838   2.143
39920SOL    HW221768  18.723   5.245   2.050
39921SOL     OW21769  12.651   7.766  10.589
39921SOL    HW121770  -9.474   7.848  10.571
39921SOL    HW221771  -9.443   7.749  10.682
39922SOL     OW21772   4.858  10.337   4.690
39922SOL    HW121773   4.929  10.319  15.668
39922SOL    HW221774   4.803  10.401  -6.394
39923SOL     OW21775   1.385  12.063   1.322
39923SOL    HW121776   1.404  12.014  -9.638
39923SOL    HW221777  23.372 -21.076  -9.737
39924SOL     OW21778   5.296   4.566   2.708
39924SOL    HW121779   5.296  -6.540 -19.440
39924SOL    HW221780   5.272  -6.393 -19.416
39925SOL     OW21781  11.365   5.829   3.684
39925SOL    HW121782   0.249  16.924   3.699
39925SOL    HW221783  11.438   5.891   3.678
39926SOL     OW21784   5.312   2.180   0.056
39926SOL    HW121785   5.348   2.186   0.145
39926SOL    HW221786   5.362   2.110   0.014
39927SOL     OW21787   6.195   1.146   4.625
39927SOL    HW121788   6.232   1.135  15.752
39927SOL    HW221789   6.119   1.088   4.624
39928SOL     OW21790   1.095   1.466   4.606
39928SOL    HW121791   1.023   1.405   4.591
39928SOL    HW221792   1.082   1.535  37.660
39929SOL     OW21793  10.682   2.825   0.575
39929SOL    HW121794 -11.411   2.845   0.482
39929SOL    HW221795  10.671   2.909   0.619
39930SOL     OW21796   9.513   8.850  10.488
39930SOL    HW121797   9.596  -2.213  10.531
39930SOL    HW221798   9.485   8.769  10.445
39931SOL     OW21799  10.566   7.401  10.804
39931SOL    HW121800  10.599   7.418  10.892
39931SOL    HW221801  10.538   7.487  10.772
39932SOL     OW21802   0.575   0.771   4.098
39932SOL    HW121803   0.536 -10.231  -6.863
39932SOL    HW221804   0.577   0.843 -40.123
39933SOL     OW21805   0.162   2.063   5.199
39933SOL    HW121806   0.203   2.145  16.265
39933SOL    HW221807   0.123  -9.011   5.279
39934SOL     OW21808   0.823   8.299   4.620
39934SOL    HW121809   0.807   8.362  -6.489
39934SOL    HW221810   0.736  19.304 -17.437
39935SOL     OW21811   7.052  10.945   8.575
39935SOL    HW121812   7.009  10.910   8.497
39935SOL    HW221813  18.101  11.039   8.557
39936SOL     OW21814   0.391  10.564   7.082
39936SOL    HW121815   0.298  -0.463   7.103
39936SOL    HW221816  11.476  10.585   7.163
39937SOL     OW21817  -0.285   7.687   2.105
39937SOL    HW121818  21.778   7.604   2.150
39937SOL    HW221819  -0.229  -3.376   2.031
39938SOL     OW21820  10.715  11.013   8.959
39938SOL    HW121821  10.628  10.996  31.072
39938SOL    HW221822  10.774  10.995   9.032
39939SOL     OW21823   0.969   1.159   9.878
39939SOL    HW121824   1.033   1.228   9.895
39939SOL    HW221825  22.976   1.203   9.834
39940SOL     OW21826   5.326   5.283   7.284
39940SOL    HW121827   5.414   5.272   7.319
39940SOL    HW221828   5.277  -5.714   7.355
39941SOL     OW21829   7.372   8.748   8.670
39941SOL    HW121830   7.397   8.725   8.580
39941SOL    HW221831   7.359   8.664   8.713
39942SOL     OW21832   4.276  10.997   4.829
39942SOL    HW121833   4.314  11.077   4.866
39942SOL    HW221834 -17.728  10.945   4.802
39943SOL     OW21835  10.436  10.407   1.606
39943SOL    HW121836  10.512  10.413  12.704
39943SOL    HW221837  10.449  10.325 -20.521
39944SOL     OW21838   8.386   5.690   6.589
39944SOL    HW121839  30.458  -5.445   6.589
39944SOL    HW221840   8.453   5.709   6.525
39945SOL     OW21841   6.343   3.946   9.979
39945SOL    HW121842   6.334  -7.070  -0.968
39945SOL    HW221843   6.425  14.936   9.975
39946SOL     OW21844   9.150   7.275   9.618
39946SOL    HW121845  20.180  -3.757  -1.516
39946SOL    HW221846   9.224   7.215   9.631
39947SOL     OW21847   2.783   2.230   1.618
39947SOL    HW121848 -19.281   2.238   1.712
39947SOL    HW221849   2.692  24.338   1.606
39948SOL     OW21850   9.030   9.737   4.636
39948SOL    HW121851   9.062   9.762   4.723
39948SOL    HW221852  31.042  -1.368   4.653
39949SOL     OW21853   7.457   4.285   2.886
39949SOL    HW121854   7.519  26.414   2.938
39949SOL    HW221855   7.422   4.219   2.946
39950SOL     OW21856   5.966   9.535   9.490
39950SOL    HW121857   5.886  20.524  20.534
39950SOL    HW221858   6.009   9.520  20.614
39951SOL     OW21859   7.137   4.968   8.090
39951SOL    HW121860   7.171  -6.127  19.059
39951SOL    HW221861 -14.979   5.044  -2.994
39952SOL     OW21862   5.316   6.736   0.904
39952SOL    HW121863   5.337  28.839   0.814
39952SOL    HW221864  16.269   6.772   0.920
39953SOL     OW21865   6.773   5.596   8.710
39953SOL    HW121866   6.686   5.613  -2.363
39953SOL    HW221867   6.759   5.559   8.798
39954SOL     OW21868   7.000   8.283  11.393
39954SOL    HW121869   7.044  -2.837  11.365
39954SOL    HW221870   7.002   8.339   0.276
39955SOL     OW21871   5.551   5.142   9.550
39955SOL    HW121872   5.631 -28.028   9.538
39955SOL    HW221873  16.593 -16.871   9.481
39956SOL     OW21874  10.442   0.992   1.363
39956SOL    HW121875  -0.674   0.985   1.421
39956SOL    HW221876  21.503   1.085   1.364
39957SOL     OW21877   6.060   1.243   1.383
39957SOL    HW121878   6.018   1.207 -20.618
39957SOL    HW221879  39.261  -9.760   1.413
39958SOL     OW21880   8.874   4.052   7.235
39958SOL    HW121881   8.943   4.030   7.298
39958SOL    HW221882  19.877   3.967   7.209
39959SOL     OW21883   5.646   7.178   2.886
39959SOL    HW121884   5.643   7.195   2.792
39959SOL    HW221885  -5.396   7.082   2.892
39960SOL     OW21886   8.525   8.954   9.592
39960SOL    HW121887   8.454  20.021   9.650
39960SOL    HW221888   8.593   9.019   9.605
39961SOL     OW21889  -0.002  10.712   9.915
39961SOL    HW121890   0.070  10.705   9.977
39961SOL    HW221891  -0.015  10.806   9.903
39962SOL     OW21892   4.314  14.384   2.748
39962SOL    HW121893  15.353  -7.605   2.781
39962SOL    HW221894   4.292 -29.828  -8.215
39963SOL     OW21895   3.452   6.843  10.496
39963SOL    HW121896  -7.611   6.879 -22.537
39963SOL    HW221897   3.369   6.813  10.459
39964SOL     OW21898   7.959   1.234   4.359
39964SOL    HW121899   7.905  23.261  15.339
39964SOL    HW221900   7.914  23.397  15.405
39965SOL     OW21901   6.448   7.153   4.362
39965SOL    HW121902  17.520   7.084   4.304
39965SOL    HW221903   6.419  29.185   4.441
39966SOL     OW21904   5.938   3.089  -0.501
39966SOL    HW121905   6.013   3.146  -0.521
39966SOL    HW221906   5.911   3.116  10.626
39967SOL     OW21907  10.696   1.245   2.859
39967SOL    HW121908  -0.348   1.280   2.770
39967SOL    HW221909  10.604  -9.803  -8.154
39968SOL     OW21910   9.736   8.703   6.171
39968SOL    HW121911   9.751   8.757   6.249
39968SOL    HW221912   9.758   8.614  28.278
39969SOL     OW21913   0.484   0.654   8.936
39969SOL    HW121914  22.535   0.669  31.105
39969SOL    HW221915   0.475   0.739   8.893
39970SOL     OW21916   7.388   8.321   8.560
39970SOL    HW121917  18.421   8.295  19.692
39970SOL    HW221918   7.464   8.378   8.556
39971SOL     OW21919   0.103   2.386   3.580
39971SOL    HW121920   0.085   2.314  14.681
39971SOL    HW221921   0.018  -8.610   3.570
39972SOL     OW21922   1.657   7.764   8.272
39972SOL    HW121923   1.732  40.922  30.306
39972SOL    HW221924   1.616   7.707  19.246
39973SOL     OW21925   5.118   8.547   0.451
39973SOL    HW121926   5.120  30.530  22.523
39973SOL    HW221927   5.057  30.643   0.523
39974SOL     OW21928   1.217  11.655  -0.052
39974SOL    HW121929   1.150  11.649  32.998
39974SOL    HW221930   1.299 -10.416  -0.100
39975SOL     OW21931   5.700   5.236   5.894
39975SOL    HW121932   5.618   5.262   5.936
39975SOL    HW221933  -5.293   5.318   5.878
39976SOL     OW21934   7.036  10.733   7.773
39976SOL    HW121935   6.947  10.710   7.799
39976SOL    HW221936   7.026  10.808  40.833
39977SOL     OW21937   9.810  -0.176   3.138
39977SOL    HW121938   9.733  -0.190   3.082
39977SOL    HW221939   9.834  32.855   3.167
39978SOL     OW21940   5.902   9.006   3.216
39978SOL    HW121941  38.943   9.053  -7.792
39978SOL    HW221942   5.917  -1.998   3.128
39979SOL     OW21943   4.449   7.391   7.315
39979SOL    HW121944   4.488   7.332  -3.660
39979SOL    HW221945   4.467   7.350   7.231
39980SOL     OW21946   6.132   4.349   1.394
39980SOL    HW121947   6.195   4.290   1.353
39980SOL    HW221948   6.047  -6.731  12.417
39981SOL     OW21949   8.854   4.060   4.776
39981SOL    HW121950 -13.294   4.109  -6.221
39981SOL    HW221951   8.808  15.031   4.726
39982SOL     OW21952   6.511   6.358   9.143
39982SOL    HW121953 -15.563   6.453   9.134
39982SOL    HW221954   6.549   6.339   9.229
39983SOL     OW21955  -0.556   3.126   9.837
39983SOL    HW121956  -0.596  -7.857   9.771
39983SOL    HW221957  10.409  -7.959   9.877
39984SOL     OW21958   1.971  10.752   8.371
39984SOL    HW121959  46.208  10.700  -2.652
39984SOL    HW221960   1.974  -0.270   8.277
39985SOL     OW21961  10.627   3.323   5.000
39985SOL    HW121962  10.550   3.305 -17.132
39985SOL    HW221963  10.698   3.276   4.957
39986SOL     OW21964   2.379   5.231   9.852
39986SOL    HW121965   2.394  49.297  20.911
39986SOL    HW221966  -8.750   5.248   9.883
39987SOL     OW21967   1.232  10.615   3.625
39987SOL    HW121968   1.320  10.586   3.601
39987SOL    HW221969   1.246  10.672  -7.339
39988SOL     OW21970   5.841   0.325  12.080
39988SOL    HW121971   5.911   0.264  12.057
39988SOL    HW221972 -16.299   0.320 -10.073
39989SOL     OW21973   3.842   5.328  -0.852
39989SOL    HW121974   3.793   5.274  21.289
39989SOL    HW221975   3.780   5.346  10.117
39990SOL     OW21976   7.852   2.803   3.136
39990SOL    HW121977   7.900   2.807   3.053
39990SOL    HW221978  18.809   2.761   3.114
39991SOL     OW21979   9.720   1.038   7.368
39991SOL    HW121980  20.691  -9.948   7.328
39991SOL    HW221981   9.681   1.005  -3.591
39992SOL     OW21982   0.395   7.058   4.654
39992SOL    HW121983   0.427  -3.945   4.572
39992SOL    HW221984  11.436   7.131   4.716
39993SOL     OW21985   4.634   7.509   5.697
39993SOL    HW121986   4.645   7.589  16.685
39993SOL    HW221987   4.615   7.441   5.633
39994SOL     OW21988   1.607   2.677   8.846
39994SOL    HW121989  34.707   2.770   8.850
39994SOL    HW221990   1.652   2.664   8.762
39995SOL     OW21991   4.928   4.926   5.650
39995SOL    HW121992   4.892   4.854   5.701
39995SOL    HW221993 -28.142   4.978 -16.365
39996SOL     OW21994   9.345   2.088   3.982
39996SOL    HW121995   9.410   2.060  15.085
39996SOL    HW221996   9.396  13.164   3.909
39997SOL     OW21997   4.476   5.100   0.843
39997SOL    HW121998   4.456  16.233   0.833
39997SOL    HW221999  15.603  16.130   0.805
39998SOL     OW22000   2.082   3.548   8.528
39998SOL    HW122001   2.103  -7.487   8.435
39998SOL    HW222002   2.167   3.548   8.572
39999SOL     OW22003   9.144   9.346  10.254
39999SOL    HW122004   9.126   9.273 -11.883
39999SOL    HW222005  -1.974   9.353  -0.731
40000SOL     OW22006   8.822   7.169   5.613
40000SOL    HW122007  19.926  18.251   5.557
40000SOL    HW222008   8.761  -3.801  -5.402
40001SOL     OW22009   4.796   0.812   0.867
40001SOL    HW122010   4.891  11.859  11.911
40001SOL    HW222011   4.774   0.828   0.775
40002SOL     OW22012   7.717   3.326   7.164
40002SOL    HW122013   7.675  14.284  18.231
40002SOL    HW222014   7.803  25.378   7.132
40003SOL     OW22015   4.263   7.084   3.906
40003SOL    HW122016   4.285   7.010   3.850
40003SOL    HW222017   4.347  18.150   3.945
40004SOL     OW22018   4.929  11.037   6.805
40004SOL    HW122019   5.018  -0.014   6.839
40004SOL    HW222020  15.972  11.120  17.798
40005SOL     OW22021   4.028  -1.023   4.745
40005SOL    HW122022  26.194  21.020   4.762
40005SOL    HW222023   4.019  -1.026  26.729
40006SOL     OW22024   3.014   7.271   9.450
40006SOL    HW122025  14.079   7.197   9.394
40006SOL    HW222026   2.958   7.325  -1.645
40007SOL     OW22027   5.389   3.809   2.672
40007SOL    HW122028   5.408   3.734   2.616
40007SOL    HW222029   5.300   3.834   2.650
40008SOL     OW22030   4.333   8.237   9.827
40008SOL    HW122031  15.319   8.312  20.839
40008SOL    HW222032   4.391   8.273   9.894
40009SOL     OW22033   7.014   9.268   7.363
40009SOL    HW122034   7.085   9.273 -14.780
40009SOL    HW222035   7.056   9.281  -3.592
40010SOL     OW22036   9.029   3.905   2.987
40010SOL    HW122037   8.963   3.925   3.054
40010SOL    HW222038   9.040  47.968  14.032
40011SOL     OW22039   7.281   9.413   6.696
40011SOL    HW122040  -3.767  -1.690  28.704
40011SOL    HW222041  18.414   9.411   6.719
40012SOL     OW22042   4.503   1.606   6.153
40012SOL    HW122043  26.529   1.622   6.231
40012SOL    HW222044  15.631  12.632   6.187
40013SOL     OW22045  11.839   7.838   9.297
40013SOL    HW122046   0.736   7.820   9.366
40013SOL    HW222047 -10.289  18.861   9.216
40014SOL     OW22048   9.635   6.103   7.688
40014SOL    HW122049   9.616   6.011  -3.370
40014SOL    HW222050   9.572   6.152   7.635
40015SOL     OW22051   3.683   8.248   4.936
40015SOL    HW122052   3.759  19.287  -6.161
40015SOL    HW222053   3.717   8.218  16.060
40016SOL     OW22054   3.970   2.285   7.005
40016SOL    HW122055   4.052   2.321   6.973
40016SOL    HW222056   3.979  -8.849  29.074
40017SOL     OW22057   7.608   2.822   4.329
40017SOL    HW122058   7.516  -8.210   4.356
40017SOL    HW222059  -3.436  13.829  15.279
40018SOL     OW22060   2.265   8.243   7.375
40018SOL    HW122061   2.235   8.287   7.296
40018SOL    HW222062   2.185   8.206   7.414
40019SOL     OW22063   7.558   1.943   5.756
40019SOL    HW122064  -3.404   1.990   5.724
40019SOL    HW222065  18.535   2.012   5.779
40020SOL     OW22066  10.666   3.955   8.642
40020SOL    HW122067  10.748   3.988   8.605
40020SOL    HW222068  -0.405  15.065   8.698
40021SOL     OW22069   9.854  10.548   6.178
40021SOL    HW122070   9.794  10.493   6.228
40021SOL    HW222071   9.804  10.627   6.157
40022SOL     OW22072   1.172   7.535   6.163
40022SOL    HW122073  12.300   7.547  -4.911
40022SOL    HW222074  12.203   7.601  -4.808
40023SOL     OW22075   8.710   8.433   1.830
40023SOL    HW122076   8.763  41.631   1.828
40023SOL    HW222077   8.622   8.464 -20.227
40024SOL     OW22078   9.775   0.065   6.911
40024SOL    HW122079  -1.318   0.142  17.969
40024SOL    HW222080   9.859   0.082  29.033
40025SOL     OW22081   5.890   4.398   2.147
40025SOL    HW122082  -5.196  15.508   2.102
40025SOL    HW222083  -5.065  26.515   2.172
40026SOL     OW22084   9.111   8.818   9.305
40026SOL    HW122085   9.151   8.840  -1.650
40026SOL    HW222086   9.184  30.895  31.323
40027SOL     OW22087   0.855   6.504   9.821
40027SOL    HW122088   0.849   6.588  20.815
40027SOL    HW222089   0.893   6.525   9.906
40028SOL     OW22090   8.628   1.083   8.782
40028SOL    HW122091 -13.392   1.154   8.755
40028SOL    HW222092   8.626  12.128  41.996
40029SOL     OW22093   5.804   4.030   8.432
40029SOL    HW122094   5.869   4.095   8.404
40029SOL    HW222095   5.756  -7.032   8.353
40030SOL     OW22096   2.493  -1.328   2.130
40030SOL    HW122097   2.471  20.684   2.066
40030SOL    HW222098   2.430  31.861   2.116
40031SOL     OW22099   6.982   1.714   9.740
40031SOL    HW122100   6.980  12.804 -12.420
40031SOL    HW222101 -15.189   1.690  -1.285
40032SOL     OW22102   7.879   5.020   0.566
40032SOL    HW122103 -14.162  27.090   0.479
40032SOL    HW222104   7.955  60.229   0.624
40033SOL     OW22105  11.713   7.807   9.665
40033SOL    HW122106 -21.460  18.841  31.665
40033SOL    HW222107  11.771   7.731   9.660
40034SOL     OW22108  -0.812   4.054   5.357
40034SOL    HW122109  10.141   4.045   5.317
40034SOL    HW222110  10.221 -17.947   5.412
40035SOL     OW22111  10.907   1.033   1.080
40035SOL    HW122112  10.871   1.118   1.055
40035SOL    HW222113  10.894   1.028   1.174
40036SOL     OW22114  10.414   5.974   2.341
40036SOL    HW122115  10.321  17.032   2.336
40036SOL    HW222116 -11.630   6.001   2.257
40037SOL     OW22117   2.222   2.568   8.297
40037SOL    HW122118   2.154 -41.653   8.319
40037SOL    HW222119   2.279   2.569   8.374
40038SOL     OW22120   4.691  10.951   6.939
40038SOL    HW122121   4.630  10.995  -4.160
40038SOL    HW222122   4.778  10.968   6.902
40039SOL     OW22123   7.904   3.040   6.629
40039SOL    HW122124   7.888   2.956   6.671
40039SOL    HW222125   7.879   3.028  17.578
40040SOL     OW22126   8.059   3.898   6.912
40040SOL    HW122127  19.098   3.905  -4.223
40040SOL    HW222128   8.017  15.017 -15.137
40041SOL     OW22129  -0.802   1.596   1.742
40041SOL    HW122130  -0.803   1.600   1.646
40041SOL    HW222131  21.261   1.504   1.762
40042SOL     OW22132   2.153   9.451   8.173
40042SOL    HW122133   2.231 -12.666   8.213
40042SOL    HW222134  -8.864   9.461   8.080
40043SOL     OW22135   2.610   8.464   3.275
40043SOL    HW122136  -8.502   8.427   3.225
40043SOL    HW222137   2.669 -13.689  -7.749
40044SOL     OW22138  -0.433   0.313   2.063
40044SOL    HW122139  32.689   0.392   2.117
40044SOL    HW222140  -0.363   0.325   1.999
40045SOL     OW22141   4.742   3.926   5.048
40045SOL    HW122142   4.661   3.886  -5.960
40045SOL    HW222143 -17.318   3.995  -5.927
40046SOL     OW22144   1.945   6.629   6.295
40046SOL    HW122145   2.025   6.635   6.348
40046SOL    HW222146   1.889  -4.471   6.343
40047SOL     OW22147   2.192  10.208   1.799
40047SOL    HW122148  24.244  10.124   1.837
40047SOL    HW222149   2.276  10.189  23.836
40048SOL     OW22150   8.827   4.259   5.417
40048SOL    HW122151   8.871   4.189 -16.614
40048SOL    HW222152 -13.182   4.318   5.391
40049SOL     OW22153   5.575   1.782   7.797
40049SOL    HW122154   5.546   1.721   7.865
40049SOL    HW222155   5.521   1.761   7.721
40050SOL     OW22156   6.590   2.742   7.671
40050SOL    HW122157   6.650   2.668  -3.357
40050SOL    HW222158  -4.437  13.835   7.749
40051SOL     OW22159   6.443   1.315   8.115
40051SOL    HW122160   6.396   1.395   8.134
40051SOL    HW222161   6.532  -9.696  -2.946
40052SOL     OW22162   7.372  11.553   5.980
40052SOL    HW122163  -3.689  11.463   5.954
40052SOL    HW222164   7.310   0.568   5.931
40053SOL     OW22165   5.982   2.838   4.429
40053SOL    HW122166  17.074   2.918   4.423
40053SOL    HW222167  28.086   2.787  15.391
40054SOL     OW22168   7.572   4.341   1.145
40054SOL    HW122169  -3.439   4.280   1.213
40054SOL    HW222170   7.477  -6.697   1.154
40055SOL     OW22171   3.931   6.004   0.815
40055SOL    HW122172   3.985   5.986   0.892
40055SOL    HW222173   3.913   6.098   0.820
40056SOL     OW22174  10.249   8.909  10.871
40056SOL    HW122175  21.276   8.997  10.905
40056SOL    HW222176  10.301  -2.119  -0.249
40057SOL     OW22177  12.123   4.801   6.724
40057SOL    HW122178  23.114   4.723  17.738
40057SOL    HW222179 -43.127   4.874  17.729
40058SOL     OW22180   2.912   5.273   4.797
40058SOL    HW122181   2.972   5.318   4.737
40058SOL    HW222182  13.899   5.216   4.740
40059SOL     OW22183   1.255   5.631   7.011
40059SOL    HW122184   1.188 -16.465   7.077
40059SOL    HW222185   1.258   5.727  18.043
40060SOL     OW22186   3.277  10.421   1.554
40060SOL    HW122187   3.359  10.470   1.547
40060SOL    HW222188   3.298  10.345  12.647
40061SOL     OW22189   3.345   5.272  10.201
40061SOL    HW122190  -7.783  27.336  10.234
40061SOL    HW222191   3.386   5.328  21.307
40062SOL     OW22192   7.671  10.436   9.766
40062SOL    HW122193  -3.373  10.478   9.680
40062SOL    HW222194   7.581  10.433   9.796
40063SOL     OW22195   7.148   2.698  10.679
40063SOL    HW122196   7.155  24.805  10.588
40063SOL    HW222197 -14.841   2.679  10.705
40064SOL     OW22198   8.703  10.251  -0.849
40064SOL    HW122199  -2.293  10.169  32.292
40064SOL    HW222200   8.737  10.273  -0.936
40065SOL     OW22201  -1.660   5.009   2.019
40065SOL    HW122202   9.395   5.097   2.055
40065SOL    HW222203  20.503   4.983   1.981
40066SOL     OW22204   8.127   4.861  -2.256
40066SOL    HW122205   8.036  15.879   8.801
40066SOL    HW222206  19.206   4.778  30.835
40067SOL     OW22207   7.709   0.428   0.889
40067SOL    HW122208   7.672   0.344   0.863
40067SOL    HW222209   7.772   0.407   0.958
40068SOL     OW22210   6.182   1.884   3.551
40068SOL    HW122211  17.241  -9.163   3.457
40068SOL    HW222212   6.266   1.903   3.592
40069SOL     OW22213   4.505  -0.258  10.937
40069SOL    HW122214   4.466  10.755  10.854
40069SOL    HW222215  26.511  -0.257  10.998
40070SOL     OW22216   8.221   9.636   8.515
40070SOL    HW122217  19.232   9.571  19.619
40070SOL    HW222218   8.140  20.709  -2.562
40071SOL     OW22219  10.302   7.936   3.761
40071SOL    HW122220  -0.767 -14.063  14.843
40071SOL    HW222221  21.267   7.876   3.769
40072SOL     OW22222   6.403   7.741   5.422
40072SOL    HW122223   6.347   7.663   5.430
40072SOL    HW222224   6.414 -36.386  -5.527
40073SOL     OW22225   7.268  -1.824   3.303
40073SOL    HW122226   7.285  -1.803 -18.868
40073SOL    HW222227   7.212  31.216   3.300
40074SOL     OW22228   2.255   6.275   1.463
40074SOL    HW122229  -8.780   6.202 -20.555
40074SOL    HW222230   2.326   6.259   1.401
40075SOL     OW22231   7.354   5.315   9.628
40075SOL    HW122232   7.370   5.239   9.573
40075SOL    HW222233 -14.653 -16.704   9.607
40076SOL     OW22234   2.948   9.092   4.908
40076SOL    HW122235  14.066   9.054  15.986
40076SOL    HW222236   2.883  -2.018   4.911
40077SOL     OW22237   0.469   4.853   4.288
40077SOL    HW122238 -10.574  38.042  15.392
40077SOL    HW222239  11.595   4.861   4.247
40078SOL     OW22240   4.895   1.976   2.144
40078SOL    HW122241  15.953   2.025   2.065
40078SOL    HW222242   4.832   1.909  24.195
40079SOL     OW22243  10.016   1.790   2.680
40079SOL    HW122244  10.042   1.772   2.771
40079SOL    HW222245  10.099   1.800  13.673
40080SOL     OW22246   6.908   4.981   6.502
40080SOL    HW122247   6.850   4.949 -15.646
40080SOL    HW222248   6.994   4.947   6.478
40081SOL     OW22249   2.891   5.374   7.520
40081SOL    HW122250   2.966   5.323   7.550
40081SOL    HW222251   2.867   5.335   7.437
40082SOL     OW22252   8.546   1.298   5.390
40082SOL    HW122253   8.489   1.324   5.463
40082SOL    HW222254   8.599   1.227   5.426
40083SOL     OW22255   7.781   7.159   3.874
40083SOL    HW122256   7.856   7.176  -7.223
40083SOL    HW222257 -14.269  -3.951   3.932
40084SOL     OW22258   9.070   1.635   3.591
40084SOL    HW122259   9.047   1.639  -7.542
40084SOL    HW222260   9.160  -9.372   3.594
40085SOL     OW22261   3.102   3.390   5.526
40085SOL    HW122262   3.134   3.355   5.609
40085SOL    HW222263   3.055   3.317  16.525
40086SOL     OW22264   8.522   9.082   9.141
40086SOL    HW122265   8.497   9.122  42.177
40086SOL    HW222266   8.453   9.108   9.202
40087SOL     OW22267   7.110   9.640  11.810
40087SOL    HW122268 -14.947   9.634  11.717
40087SOL    HW222269  18.079   9.705 -10.266
40088SOL     OW22270   5.682   1.749   6.957
40088SOL    HW122271  16.800   1.789   6.919
40088SOL    HW222272   5.654   1.812   7.024
40089SOL     OW22273   8.869   6.997   3.323
40089SOL    HW122274   8.940  -3.999   3.371
40089SOL    HW222275   8.790  -3.994   3.348
40090SOL     OW22276   5.811   6.802   9.963
40090SOL    HW122277   5.779   6.734   9.903
40090SOL    HW222278   5.902  -4.263  -1.059
40091SOL     OW22279  10.392   6.894   8.400
40091SOL    HW122280 -11.622  -4.216  -2.630
40091SOL    HW222281  -0.628  17.971  -2.726
40092SOL     OW22282   8.428   8.378   1.891
40092SOL    HW122283   8.358 -24.801  -9.126
40092SOL    HW222284   8.415   8.397   1.798
40093SOL     OW22285   4.944   6.733   3.433
40093SOL    HW122286  -6.111   6.736   3.527
40093SOL    HW222287   4.984  17.856  -7.628
40094SOL     OW22288   7.707   8.406   0.698
40094SOL    HW122289   7.698   8.331   0.640
40094SOL    HW222290  -3.257   8.454  11.703
40095SOL     OW22291   6.618   9.118   1.316
40095SOL    HW122292  17.720   9.071  12.413
40095SOL    HW222293  17.647   9.203   1.358
40096SOL     OW22294   5.462   0.369   8.427
40096SOL    HW122295   5.501   0.449   8.461
40096SOL    HW222296  16.443  11.438   8.357
40097SOL     OW22297  -0.657   0.294  10.474
40097SOL    HW122298  21.366  11.267  10.434
40097SOL    HW222299  -0.609   0.247  10.543
40098SOL     OW22300   4.805   6.456  11.599
40098SOL    HW122301   4.794   6.526  11.535
40098SOL    HW222302   4.716  -4.612   0.580
40099SOL     OW22303   3.200   1.412   8.047
40099SOL    HW122304  69.383   1.358   7.991
40099SOL    HW222305  14.186  -9.551   8.067
40100SOL     OW22306   1.348   0.475   9.061
40100SOL    HW122307   1.346   0.543  -1.911
40100SOL    HW222308   1.324   0.395  31.186
40101SOL     OW22309   6.713   2.926   8.317
40101SOL    HW122310   6.761   3.000 -13.800
40101SOL    HW222311   6.776   2.884   8.376
40102SOL     OW22312   4.711  10.659   3.943
40102SOL    HW122313  26.783  10.636   3.850
40102SOL    HW222314  37.878  -0.298   3.944
40103SOL     OW22315   5.523  -0.897   4.748
40103SOL    HW122316   5.499  -0.910   4.840
40103SOL    HW222317   5.494  21.270   4.728
40104SOL     OW22318   0.778   3.088  10.371
40104SOL    HW122319   0.760  25.152  10.464
40104SOL    HW222320  22.790   3.037  10.326
40105SOL     OW22321  10.454   2.180   8.994
40105SOL    HW122322  10.518   2.227  19.980
40105SOL    HW222323  10.401   2.250   9.033
40106SOL     OW22324  11.932   8.745  10.130
40106SOL    HW122325   0.918  19.707  21.120
40106SOL    HW222326 -10.209  19.752  10.196
40107SOL     OW22327   3.878   8.652  12.242
40107SOL    HW122328   3.960  19.717  -9.880
40107SOL    HW222329   3.820   8.727  12.230
40108SOL     OW22330   1.262  10.194   2.909
40108SOL    HW122331  12.395  10.174   2.901
40108SOL    HW222332   1.224  -0.924   2.950
40109SOL     OW22333   6.134  10.926   0.992
40109SOL    HW122334  -4.847  -0.189  12.035
40109SOL    HW222335  -4.847  11.001   0.982
40110SOL     OW22336   2.196   2.565   3.803
40110SOL    HW122337   2.243   2.608   3.875
40110SOL    HW222338   2.256   2.570   3.728
40111SOL     OW22339   5.983   4.553  10.858
40111SOL    HW122340   6.061   4.512  10.821
40111SOL    HW222341   5.964  15.666  10.799
40112SOL     OW22342   9.777  10.545   7.246
40112SOL    HW122343   9.818  10.545   7.332
40112SOL    HW222344   9.735  10.631   7.239
40113SOL     OW22345   6.444   8.280   4.891
40113SOL    HW122346  17.453   8.209   4.834
40113SOL    HW222347  17.571   8.253  38.037
40114SOL     OW22348   7.788   1.134   4.192
40114SOL    HW122349   7.745   1.148  -6.932
40114SOL    HW222350   7.716   1.113   4.252
40115SOL     OW22351   3.864   1.382   9.314
40115SOL    HW122352   3.807   1.456   9.335
40115SOL    HW222353 -18.194   1.344   9.398
40116SOL     OW22354   3.618   8.152  10.975
40116SOL    HW122355   3.596   8.059  10.977
40116SOL    HW222356   3.592   8.186  11.061
40117SOL     OW22357   8.798   3.793   0.329
40117SOL    HW122358   8.789   3.771   0.422
40117SOL    HW222359 -13.369  14.819   0.293
40118SOL     OW22360   0.870  10.525   9.029
40118SOL    HW122361   0.802  -0.451   9.007
40118SOL    HW222362   0.891  10.482   8.946
40119SOL     OW22363   4.547   1.927   4.919
40119SOL    HW122364  15.522   1.858  -6.132
40119SOL    HW222365   4.582  12.983  26.911
40120SOL     OW22366   9.181   9.681   3.470
40120SOL    HW122367   9.185   9.696   3.376
40120SOL    HW222368   9.216  31.841   3.509
40121SOL     OW22369   4.143   5.145   6.406
40121SOL    HW122370   4.151  16.246   6.479
40121SOL    HW222371   4.172   5.194  17.369
40122SOL     OW22372   1.916   3.738  13.243
40122SOL    HW122373   1.967   3.659 -30.900
40122SOL    HW222374   1.829   3.717   2.238
40123SOL     OW22375   3.581   6.286   4.047
40123SOL    HW122376   3.652   6.240   4.090
40123SOL    HW222377   3.620  17.408   4.017
40124SOL     OW22378   5.256   2.520   3.493
40124SOL    HW122379   5.214 -19.546   3.578
40124SOL    HW222380   5.301  -8.604   3.500
40125SOL     OW22381   8.897   3.977   1.299
40125SOL    HW122382   8.928  25.986   1.242
40125SOL    HW222383   8.892  -6.986   1.242
40126SOL     OW22384   4.183   2.430   2.891
40126SOL    HW122385   4.190 -19.554   2.898
40126SOL    HW222386   4.095  13.449   2.920
40127SOL     OW22387   2.435   1.797  11.001
40127SOL    HW122388  13.467  12.744  10.979
40127SOL    HW222389  13.388  12.860 -11.045
40128SOL     OW22390  11.480   9.311   4.424
40128SOL    HW122391 -10.603  -1.648   4.374
40128SOL    HW222392   0.456   9.340   4.514
40129SOL     OW22393   7.008   6.354  10.077
40129SOL    HW122394 -14.982   6.345  10.112
40129SOL    HW222395  18.042 -26.673  21.089
40130SOL     OW22396   3.557   8.401   3.896
40130SOL    HW122397   3.542   8.330   3.834
40130SOL    HW222398 -29.505   8.362   3.964
40131SOL     OW22399   3.678   5.550   0.087
40131SOL    HW122400   3.616   5.499   0.035
40131SOL    HW222401   3.626   5.587   0.159
40132SOL     OW22402   6.353   1.681   6.393
40132SOL    HW122403   6.407   1.728   6.329
40132SOL    HW222404   6.268   1.670   6.349
40133SOL     OW22405  10.397   9.896   6.357
40133SOL    HW122406  10.387   9.804  -4.706
40133SOL    HW222407  10.335   9.910   6.429
40134SOL     OW22408   7.121  11.498   1.523
40134SOL    HW122409   7.170   0.393   1.572
40134SOL    HW222410   7.030   0.447   1.552
40135SOL     OW22411   2.736   1.087   1.163
40135SOL    HW122412   2.716   1.173  12.164
40135SOL    HW222413   2.765   1.107   1.252
40136SOL     OW22414   4.662  10.031   4.315
40136SOL    HW122415  -6.416  21.032   4.237
40136SOL    HW222416   4.734 -11.994   4.283
40137SOL     OW22417   6.951   9.222   8.572
40137SOL    HW122418   7.001   9.232   8.491
40137SOL    HW222419   6.908   9.306   8.585
40138SOL     OW22420   1.353   6.856   7.834
40138SOL    HW122421  -9.770   6.866   7.880
40138SOL    HW222422   1.331   6.805   7.756
40139SOL     OW22423   2.506   8.863   4.040
40139SOL    HW122424   2.425   8.902   4.006
40139SOL    HW222425  -8.479   8.938   4.063
40140SOL     OW22426   2.870   9.359   7.914
40140SOL    HW122427   2.959   9.335   7.938
40140SOL    HW222428   2.841   9.418   7.983
40141SOL     OW22429  11.780  10.584   6.044
40141SOL    HW122430  11.760  10.622   6.130
40141SOL    HW222431 -10.214  10.621   6.021
40142SOL     OW22432   1.668   4.306   9.690
40142SOL    HW122433 -20.408  15.441   9.697
40142SOL    HW222434   1.760  26.358   9.690
40143SOL     OW22435   2.951   8.839   4.596
40143SOL    HW122436  36.017   8.825   4.675
40143SOL    HW222437   2.919   8.922   4.560
40144SOL     OW22438   3.430   1.716   1.917
40144SOL    HW122439   3.501   1.747  12.900
40144SOL    HW222440   3.394   1.796   1.956
40145SOL     OW22441   2.504   1.245   9.129
40145SOL    HW122442  13.455   1.261   9.098
40145SOL    HW222443   2.559   1.304 -13.002
40146SOL     OW22444   0.762   4.690   3.081
40146SOL    HW122445   0.770   4.720  14.030
40146SOL    HW222446   0.840   4.725   3.125
40147SOL     OW22447   7.689   0.762   2.761
40147SOL    HW122448   7.682   0.696   2.830
40147SOL    HW222449   7.753   0.726 -19.380
40148SOL     OW22450   3.945   7.372   5.695
40148SOL    HW122451   3.951  18.331   5.643
40148SOL    HW222452   3.934  18.381   5.785
40149SOL     OW22453   9.058   4.029   2.734
40149SOL    HW122454   9.074  15.158   2.763
40149SOL    HW222455  20.090   3.977  13.854
40150SOL     OW22456   1.898   6.090   1.114
40150SOL    HW122457   1.903  -4.872  12.099
40150SOL    HW222458   1.841   6.114   1.187
40151SOL     OW22459   2.511   6.476   8.427
40151SOL    HW122460   2.582   6.537  -2.593
40151SOL    HW222461 -19.535   6.423   8.354
40152SOL     OW22462   5.595   3.691   4.525
40152SOL    HW122463   5.642   3.638  -6.450
40152SOL    HW222464   5.585   3.776   4.567
40153SOL     OW22465   8.774   1.876   4.112
40153SOL    HW122466   8.772  23.888   4.044
40153SOL    HW222467   8.866   1.887   4.133
40154SOL     OW22468   0.366   5.995   4.007
40154SOL    HW122469   0.318   6.027   3.931
40154SOL    HW222470   0.419  17.109  15.075
40155SOL     OW22471   5.332   7.313   2.407
40155SOL    HW122472   5.311   7.371   2.480
40155SOL    HW222473  16.325  29.311   2.425
40156SOL     OW22474   8.430  10.308   6.218
40156SOL    HW122475   8.399  10.220  -4.841
40156SOL    HW222476  -2.689  10.360   6.225
40157SOL     OW22477   7.271   9.946   7.420
40157SOL    HW122478  -3.838  20.970   7.355
40157SOL    HW222479   7.312   9.860  -3.608
40158SOL     OW22480   5.691   9.800   3.834
40158SOL    HW122481   5.670   9.792   3.741
40158SOL    HW222482   5.678  31.791   3.869
40159SOL     OW22483   3.945   0.794   6.839
40159SOL    HW122484   3.896 -10.237   6.758
40159SOL    HW222485   4.028  11.879   6.823
40160SOL     OW22486   0.031  -2.839   9.191
40160SOL    HW122487  -0.021  19.162  20.253
40160SOL    HW222488   0.052  30.268   9.098
40161SOL     OW22489   5.011   8.221   3.275
40161SOL    HW122490   5.094  30.284  -7.810
40161SOL    HW222491  16.033  19.353  36.380
40162SOL     OW22492  10.383   0.962   7.764
40162SOL    HW122493  -0.687   0.876 -14.287
40162SOL    HW222494  10.426 -10.093   7.680
40163SOL     OW22495   3.429   7.179   1.122
40163SOL    HW122496   3.415  18.312   1.108
40163SOL    HW222497   3.424  29.220  23.113
40164SOL     OW22498   2.891   4.396   7.212
40164SOL    HW122499   2.971 -17.733  29.278
40164SOL    HW222500   2.821   4.332  40.321
40165SOL     OW22501  10.385   9.586   0.641
40165SOL    HW122502  10.468   9.603   0.686
40165SOL    HW222503  -0.633 -23.531  11.587
40166SOL     OW22504   0.503   3.755   9.414
40166SOL    HW122505   0.452   3.835   9.427
40166SOL    HW222506   0.455  -7.352   9.462
40167SOL     OW22507   4.024   1.146   7.987
40167SOL    HW122508   4.088   1.076   7.995
40167SOL    HW222509   3.960   1.113   7.924
40168SOL     OW22510   6.660   0.817   6.015
40168SOL    HW122511   6.624 -10.311   6.026
40168SOL    HW222512   6.597   0.874 -16.019
40169SOL     OW22513   4.096   0.391   4.960
40169SOL    HW122514   4.040   0.381   4.883
40169SOL    HW222515   4.035   0.410   5.032
40170SOL     OW22516   2.961   3.587   7.083
40170SOL    HW122517   3.019  -7.399   7.138
40170SOL    HW222518   2.942   3.510 -14.943
40171SOL     OW22519   8.005   5.490   1.535
40171SOL    HW122520  18.970   5.482  12.516
40171SOL    HW222521   8.073  16.476   1.494
40172SOL     OW22522   9.526  12.080   8.511
40172SOL    HW122523  31.635  12.053   8.424
40172SOL    HW222524   9.442  -9.958   8.495
40173SOL     OW22525   3.122   7.888   5.361
40173SOL    HW122526   3.160   7.868  -5.765
40173SOL    HW222527   3.190   7.940   5.405
40174SOL     OW22528   2.695  10.264   4.098
40174SOL    HW122529  -8.360  10.358  15.145
40174SOL    HW222530   2.714  10.235  15.227
40175SOL     OW22531   5.418   5.061   4.812
40175SOL    HW122532  -5.604   5.150   4.783
40175SOL    HW222533  38.442  16.097 -17.258
40176SOL     OW22534   8.192   4.531  11.455
40176SOL    HW122535   8.238   4.554 -43.823
40176SOL    HW222536   8.246 -17.617  11.494
40177SOL     OW22537   1.312   2.274   9.881
40177SOL    HW122538  23.331   2.223   9.935
40177SOL    HW222539   1.384   2.296  20.979
40178SOL     OW22540   4.261   3.495   4.972
40178SOL    HW122541   4.254  -7.578   5.061
40178SOL    HW222542   4.174  -7.509  -6.087
40179SOL     OW22543   7.715   0.839   3.683
40179SOL    HW122544  -3.382   0.763  -7.353
40179SOL    HW222545   7.774   0.821   3.609
40180SOL     OW22546   4.477   5.805   3.413
40180SOL    HW122547   4.435   5.779   3.332
40180SOL    HW222548   4.555   5.750   3.419
40181SOL     OW22549   1.127   6.740   3.306
40181SOL    HW122550  12.200   6.806   3.366
40181SOL    HW222551   1.120   6.785  25.301
40182SOL     OW22552   6.062   7.930   6.114
40182SOL    HW122553   6.115  19.042  -4.892
40182SOL    HW222554   6.126   7.866   6.081
40183SOL     OW22555   3.153   5.542  -0.580
40183SOL    HW122556  -7.853   5.629  10.439
40183SOL    HW222557   3.223   5.482  -0.605
40184SOL     OW22558  11.296   9.742   0.151
40184SOL    HW122559   0.307   9.736   0.232
40184SOL    HW222560  11.338  -1.227   0.102
40185SOL     OW22561   3.620   7.763  12.040
40185SOL    HW122562  14.644   7.747  11.947
40185SOL    HW222563  -7.328   7.738 -21.064
40186SOL     OW22564   3.496   2.396  10.439
40186SOL    HW122565  -7.598   2.466  -0.564
40186SOL    HW222566   3.481  13.361  21.536
40187SOL     OW22567   1.845  11.610  -0.526
40187SOL    HW122568  -9.107  11.570 -11.559
40187SOL    HW222569   1.836   0.594  21.461
40188SOL     OW22570   2.948   9.538  10.067
40188SOL    HW122571  14.037   9.471 -11.964
40188SOL    HW222572   2.878   9.563  10.127
40189SOL     OW22573   0.250   0.689   7.551
40189SOL    HW122574  22.319   0.622   7.619
40189SOL    HW222575   0.180  11.791   7.569
40190SOL     OW22576   5.576   3.364   7.064
40190SOL    HW122577  16.642   3.451   7.034
40190SOL    HW222578  16.540  14.381 -15.069
40191SOL     OW22579  10.389   1.261   4.080
40191SOL    HW122580  -0.694   1.252   3.995
40191SOL    HW222581  -0.657   1.174  15.159
40192SOL     OW22582   3.470   1.051   6.505
40192SOL    HW122583   3.407   1.044   6.434
40192SOL    HW222584   3.551  12.120  28.542
40193SOL     OW22585  -0.251   5.769   7.313
40193SOL    HW122586  -0.271  27.942  -3.721
40193SOL    HW222587  32.802   5.734   7.253
40194SOL     OW22588   4.900   1.228   8.509
40194SOL    HW122589   4.846   1.308   8.508
40194SOL    HW222590   4.836   1.157   8.509
40195SOL     OW22591  10.020   7.586   7.799
40195SOL    HW122592  21.133   7.556   7.746
40195SOL    HW222593  10.009   7.678   7.776
40196SOL     OW22594   1.299   8.621   8.711
40196SOL    HW122595   1.381   8.669   8.723
40196SOL    HW222596   1.320   8.532   8.737
40197SOL     OW22597   6.738   3.140   9.621
40197SOL    HW122598  17.829   3.095   9.688
40197SOL    HW222599  -4.384   3.091  20.658
40198SOL     OW22600   8.578   8.867   5.380
40198SOL    HW122601   8.574   8.909  -5.746
40198SOL    HW222602   8.489   8.836   5.395
40199SOL     OW22603   6.123   9.325   8.721
40199SOL    HW122604   6.196   9.295  30.854
40199SOL    HW222605  -4.981   9.358  -2.257
40200SOL     OW22606   5.483   3.074   7.584
40200SOL    HW122607   5.504  14.175   7.514
40200SOL    HW222608  27.636   3.081   7.645
40201SOL     OW22609   5.571   1.821   0.211
40201SOL    HW122610   5.500   1.826   0.275
40201SOL    HW222611   5.603  -9.129   0.202
40202SOL     OW22612   0.946   7.750   3.546
40202SOL    HW122613   1.041   7.755   3.535
40202SOL    HW222614 -10.129  29.862   3.464
40203SOL     OW22615  10.030   5.292  10.367
40203SOL    HW122616  10.026   5.212  10.417
40203SOL    HW222617   9.954   5.342  10.395
40204SOL     OW22618   0.322  11.018   5.905
40204SOL    HW122619   0.309  10.952  17.012
40204SOL    HW222620   0.251  11.004   5.843
40205SOL     OW22621   8.621   1.128   4.501
40205SOL    HW122622   8.698  12.209   4.462
40205SOL    HW222623   8.548  -9.853   4.480
40206SOL     OW22624   4.463   2.857   0.732
40206SOL    HW122625  -6.598  13.893  11.865
40206SOL    HW222626   4.508   2.941  11.761
40207SOL     OW22627   5.242   8.344  10.751
40207SOL    HW122628   5.162   8.396  10.749
40207SOL    HW222629  -5.728  41.526  10.771
40208SOL     OW22630   4.822   8.239   1.304
40208SOL    HW122631   4.784   8.316   1.346
40208SOL    HW222632  15.952   8.237  -9.706
40209SOL     OW22633   6.938   2.101   1.923
40209SOL    HW122634   7.019  -8.980  23.971
40209SOL    HW222635   6.948   2.193  23.978
40210SOL     OW22636   4.304   4.157   4.069
40210SOL    HW122637   4.388   4.171   4.112
40210SOL    HW222638   4.255   4.101   4.129
40211SOL     OW22639   0.816   3.977   3.278
40211SOL    HW122640   0.726   4.003   3.298
40211SOL    HW222641   0.815  26.036  14.224
40212SOL     OW22642   1.618   7.921   6.392
40212SOL    HW122643   1.679   7.871  -4.595
40212SOL    HW222644   1.546  -3.180   6.374
40213SOL     OW22645   0.078   6.992   7.877
40213SOL    HW122646   0.047   6.902   7.869
40213SOL    HW222647   0.155  29.065  18.974
40214SOL     OW22648   0.875   5.390   5.006
40214SOL    HW122649   0.910 -38.849   5.045
40214SOL    HW222650   0.828 -16.719  -6.111
40215SOL     OW22651  10.336   8.466  10.473
40215SOL    HW122652  10.380   8.546  10.445
40215SOL    HW222653  10.301   8.487  -0.480
40216SOL     OW22654   2.490   0.471  10.522
40216SOL    HW122655   2.493   0.397  10.582
40216SOL    HW222656   2.539   0.540  10.567
40217SOL     OW22657   5.632   5.677   8.803
40217SOL    HW122658  -5.486   5.719   8.768
40217SOL    HW222659  16.651   5.584   8.802
40218SOL     OW22660   9.061   5.758   0.048
40218SOL    HW122661   9.122   5.684   0.044
40218SOL    HW222662   8.981   5.721   0.086
40219SOL     OW22663   2.969  -0.534  10.826
40219SOL    HW122664   2.906  -0.587  10.874
40219SOL    HW222665   2.986  10.457  10.746
40220SOL     OW22666   3.852   0.035   3.863
40220SOL    HW122667   3.911  -0.041  14.909
40220SOL    HW222668  25.920   0.049   3.769
40221SOL     OW22669   2.335   6.780   4.217
40221SOL    HW122670  24.423  28.893   4.306
40221SOL    HW222671  13.335  17.892  15.207
40222SOL     OW22672   4.129   3.429  10.833
40222SOL    HW122673   4.159   3.339  10.818
40222SOL    HW222674   4.111   3.463  10.745
40223SOL     OW22675   2.055  13.278   7.021
40223SOL    HW122676  13.079   2.207   7.110
40223SOL    HW222677   2.143 -30.843   7.023
40224SOL     OW22678   7.762  10.169  10.005
40224SOL    HW122679   7.733  21.120  10.026
40224SOL    HW222680   7.718  10.225  10.069
40225SOL     OW22681   8.790  10.508   4.061
40225SOL    HW122682   8.784  10.440   4.128
40225SOL    HW222683   8.835  10.466   3.988
40226SOL     OW22684  10.430  -0.354  10.662
40226SOL    HW122685  10.388  -0.287 -11.362
40226SOL    HW222686  10.363  21.658  10.651
40227SOL     OW22687   5.137   5.260   9.523
40227SOL    HW122688   5.148   5.282   9.616
40227SOL    HW222689   5.099  16.212   9.523
40228SOL     OW22690  -1.763  10.616   8.767
40228SOL    HW122691  -1.669  10.632   8.773
40228SOL    HW222692  31.326  10.674   8.696
40229SOL     OW22693   3.015   4.698   7.755
40229SOL    HW122694 -30.070   4.749 -25.290
40229SOL    HW222695   3.085   4.637   7.733
40230SOL     OW22696   7.662   3.703   3.587
40230SOL    HW122697   7.663   3.641   3.660
40230SOL    HW222698   7.692   3.653   3.512
40231SOL     OW22699   3.959   8.119   4.104
40231SOL    HW122700   3.867   8.134  -6.916
40231SOL    HW222701   3.979  19.221   4.034
40232SOL     OW22702   2.561   7.537   0.163
40232SOL    HW122703  24.663  18.550  11.113
40232SOL    HW222704   2.537   7.629  22.235
40233SOL     OW22705   4.731   4.411   3.179
40233SOL    HW122706  -6.376   4.447   3.237
40233SOL    HW222707   4.809  26.485   3.234
40234SOL     OW22708   3.689   2.058   4.883
40234SOL    HW122709   3.690   2.135   4.826
40234SOL    HW222710  14.755   1.986   4.826
40235SOL     OW22711  11.627   9.497   0.253
40235SOL    HW122712  11.553   9.520   0.310
40235SOL    HW222713   0.572   9.406   0.229
40236SOL     OW22714   5.303  12.621   6.430
40236SOL    HW122715   5.326  12.699   6.380
40236SOL    HW222716  16.391 -31.608   6.387
40237SOL     OW22717  10.725   4.705   3.459
40237SOL    HW122718  10.688   4.791   3.477
40237SOL    HW222719  10.810   4.706   3.504
40238SOL     OW22720   6.276   0.320   9.839
40238SOL    HW122721  -4.849   0.283   9.817
40238SOL    HW222722 -26.831   0.393   9.779
40239SOL     OW22723  -0.711   0.616  -1.038
40239SOL    HW122724  32.483   0.675  -1.036
40239SOL    HW222725  32.444   0.532  21.015
40240SOL     OW22726  10.818   5.252   4.321
40240SOL    HW122727  10.857 -16.907   4.284
40240SOL    HW222728  10.724 -27.877   4.305
40241SOL     OW22729   9.739   9.290   7.977
40241SOL    HW122730   9.808   9.290   8.043
40241SOL    HW222731   9.658   9.280   8.026
40242SOL     OW22732   2.057   8.926   2.925
40242SOL    HW122733   2.010 -13.121  -8.191
40242SOL    HW222734   2.149  -2.101   2.904
40243SOL     OW22735   6.908   5.120   0.567
40243SOL    HW122736   6.958   5.063   0.509
40243SOL    HW222737   6.818   5.089   0.560
40244SOL     OW22738   2.539   4.020  -0.373
40244SOL    HW122739   2.489   4.079  10.724
40244SOL    HW222740   2.513   3.932  21.735
40245SOL     OW22741   7.785   6.027   7.536
40245SOL    HW122742   7.696  -5.032   7.506
40245SOL    HW222743   7.776   6.043   7.629
40246SOL     OW22744   0.826   1.639   1.262
40246SOL    HW122745 -10.198   1.553   1.300
40246SOL    HW222746   0.898   1.650  45.357
40247SOL     OW22747   4.909   1.580   5.827
40247SOL    HW122748   4.893 -20.405   5.820
40247SOL    HW222749   4.990   1.566   5.779
40248SOL     OW22750   7.677   9.446   2.669
40248SOL    HW122751   7.626   9.434 -19.330
40248SOL    HW222752   7.612 -12.630  -8.441
40249SOL     OW22753   5.036   7.589   6.987
40249SOL    HW122754  -5.954  -3.530  18.047
40249SOL    HW222755   5.026   7.587  17.931
40250SOL     OW22756   2.730   8.610   5.504
40250SOL    HW122757   2.764   8.585   5.590
40250SOL    HW222758   2.686   8.694  38.638
40251SOL     OW22759   7.166   6.850   1.160
40251SOL    HW122760  -3.926 -15.168   1.213
40251SOL    HW222761  18.226   6.899   1.081
40252SOL     OW22762  10.921   6.829   2.230
40252SOL    HW122763  10.876   6.848 -19.766
40252SOL    HW222764  10.905   6.906  13.216
40253SOL     OW22765   6.912  -1.218   1.267
40253SOL    HW122766   6.967  20.799   1.315
40253SOL    HW222767  17.941  20.935   1.326
40254SOL     OW22768   8.516   0.260   0.662
40254SOL    HW122769   8.474   0.333   0.707
40254SOL    HW222770   8.498   0.276   0.570
40255SOL     OW22771   1.417   8.302  10.266
40255SOL    HW122772  12.426   8.218  21.341
40255SOL    HW222773  12.542 -13.797  10.228
40256SOL     OW22774   4.926   3.773   4.942
40256SOL    HW122775   4.889   3.836 -28.115
40256SOL    HW222776   4.853  -7.326 -17.157
40257SOL     OW22777  10.584   3.931   9.036
40257SOL    HW122778  10.558   3.925   9.127
40257SOL    HW222779  10.643   3.857  -2.017
40258SOL     OW22780   6.492   1.217  -0.145
40258SOL    HW122781  17.471  -9.847  10.964
40258SOL    HW222782  17.486   1.195  10.813
40259SOL     OW22783  10.527   5.101   0.158
40259SOL    HW122784  10.486   5.018  22.216
40259SOL    HW222785  10.617   5.079   0.181
40260SOL     OW22786  10.475   3.769   8.240
40260SOL    HW122787  10.501  14.717   8.232
40260SOL    HW222788  10.406   3.769   8.307
40261SOL     OW22789   0.049   6.415   1.672
40261SOL    HW122790  -0.006   6.466  12.770
40261SOL    HW222791  11.168 -15.612   1.662
40262SOL     OW22792  10.342   9.244   2.125
40262SOL    HW122793  10.433   9.272  -8.907
40262SOL    HW222794  10.293  20.345   2.180
40263SOL     OW22795   6.753   1.478   4.755
40263SOL    HW122796   6.807   1.401  15.815
40263SOL    HW222797   6.777   1.501  -6.374
40264SOL     OW22798   1.467   7.999  10.617
40264SOL    HW122799  -9.538  19.127  10.628
40264SOL    HW222800   1.372  19.050  10.615
40265SOL     OW22801  10.492   8.868   7.040
40265SOL    HW122802  10.488   8.936  18.013
40265SOL    HW222803  10.526  -2.249   6.994
40266SOL     OW22804   2.621   5.310   7.824
40266SOL    HW122805   2.544   5.314   7.769
40266SOL    HW222806   2.674   5.239   7.787
40267SOL     OW22807   8.263   8.331   9.296
40267SOL    HW122808  19.314   8.423   9.323
40267SOL    HW222809   8.326   8.319   9.226
40268SOL     OW22810   7.089   6.447   1.473
40268SOL    HW122811  29.112  -4.662   1.508
40268SOL    HW222812   7.166   6.402  -9.600
40269SOL     OW22813   2.232   7.139   2.827
40269SOL    HW122814   2.242  -3.893   2.732
40269SOL    HW222815  -8.727   7.095   2.855
40270SOL     OW22816   3.741   5.762   5.624
40270SOL    HW122817   3.775   5.852   5.630
40270SOL    HW222818  14.859   5.707   5.629
40271SOL     OW22819   6.871   2.906   4.458
40271SOL    HW122820  17.821   2.886   4.430
40271SOL    HW222821   6.861  14.014  15.564
40272SOL     OW22822   9.501   0.279   5.819
40272SOL    HW122823   9.578  22.393   5.775
40272SOL    HW222824  20.570   0.198   5.860
40273SOL     OW22825  10.322   1.263  11.639
40273SOL    HW122826  -0.781   1.224  11.699
40273SOL    HW222827  10.407   1.229   0.628
40274SOL     OW22828   7.095   8.976   9.304
40274SOL    HW122829 -14.977  -2.019  20.259
40274SOL    HW222830   7.130  -2.151  -1.752
40275SOL     OW22831   5.760   5.065   8.628
40275SOL    HW122832  16.751   5.114   8.562
40275SOL    HW222833  16.877 -16.961   8.645
40276SOL     OW22834   4.434   6.465   1.572
40276SOL    HW122835   4.470   6.538   1.522
40276SOL    HW222836   4.476   6.387   1.534
40277SOL     OW22837   1.381   8.148  11.252
40277SOL    HW122838  12.362   8.073  11.243
40277SOL    HW222839   1.337   8.219   0.167
40278SOL     OW22840   6.635   0.562   2.652
40278SOL    HW122841   6.636   0.654   2.626
40278SOL    HW222842   6.705   0.522  24.680
40279SOL     OW22843   4.339   8.066   4.650
40279SOL    HW122844   4.419  19.140  -6.350
40279SOL    HW222845   4.351   8.080   4.556
40280SOL     OW22846   7.373   8.572   2.674
40280SOL    HW122847   7.380   8.481   2.701
40280SOL    HW222848   7.279   8.587  -8.376
40281SOL     OW22849  10.220   6.579   7.855
40281SOL    HW122850  10.136   6.625   7.856
40281SOL    HW222851  10.231  28.630  29.844
40282SOL     OW22852   6.827   0.531   6.590
40282SOL    HW122853  17.810   0.595   6.633
40282SOL    HW222854  28.853   0.452   6.584
40283SOL     OW22855   8.396   3.585   6.697
40283SOL    HW122856   8.404  -7.359  -4.350
40283SOL    HW222857  30.518   3.550   6.619
40284SOL     OW22858   8.258   1.877   8.060
40284SOL    HW122859   8.342  12.894   8.020
40284SOL    HW222860   8.200   1.804  -3.001
40285SOL     OW22861   5.886   7.727  10.372
40285SOL    HW122862   5.872   7.633  10.363
40285SOL    HW222863   5.921   7.755  10.287
40286SOL     OW22864   1.574   9.592   4.236
40286SOL    HW122865  -9.489   9.647   4.311
40286SOL    HW222866   1.661   9.558   4.257
40287SOL     OW22867   5.673   9.711   5.436
40287SOL    HW122868   5.743   9.651  27.540
40287SOL    HW222869  -5.322   9.794   5.420
40288SOL     OW22870   9.974   0.722   3.643
40288SOL    HW122871  10.002   0.688   3.728
40288SOL    HW222872 -12.174 -10.379   3.615
40289SOL     OW22873   9.343   0.314   7.996
40289SOL    HW122874   9.382  11.344  19.122
40289SOL    HW222875  20.314   0.247   7.993
40290SOL     OW22876   2.856  10.760  10.332
40290SOL    HW122877  -8.266  10.786  10.375
40290SOL    HW222878  47.067  10.840  10.331
40291SOL     OW22879   6.236   3.869   4.298
40291SOL    HW122880   6.250   3.885   4.392
40291SOL    HW222881 -15.928   3.908   4.279
40292SOL     OW22882   5.651   1.486   7.525
40292SOL    HW122883  -5.375   1.487   7.431
40292SOL    HW222884  38.731   1.571  18.584
40293SOL     OW22885   0.470   0.444  10.851
40293SOL    HW122886   0.406  11.454  10.787
40293SOL    HW222887  11.576   0.375  10.853
40294SOL     OW22888   5.420   2.042   9.092
40294SOL    HW122889   5.440  13.069   9.185
40294SOL    HW222890  -5.643   2.134   9.085
40295SOL     OW22891   0.138   7.049   2.865
40295SOL    HW122892   0.090  -3.989  36.067
40295SOL    HW222893   0.109  18.007  13.863
40296SOL     OW22894   8.149   9.256   7.032
40296SOL    HW122895   8.211   9.226   7.098
40296SOL    HW222896   8.120   9.176   6.988
40297SOL     OW22897   6.131   1.637   6.817
40297SOL    HW122898   6.208   1.667   6.770
40297SOL    HW222899   6.125  -9.496  -4.244
40298SOL     OW22900   9.992   0.073   9.087
40298SOL    HW122901   9.983  22.120   9.177
40298SOL    HW222902  10.029   0.161   9.097
40299SOL     OW22903   5.250   4.956  10.661
40299SOL    HW122904  38.411   4.907  10.591
40299SOL    HW222905   5.159   4.964  10.633
40300SOL     OW22906   3.678   7.216   7.327
40300SOL    HW122907   3.752  -3.870   7.367
40300SOL    HW222908   3.601   7.166   7.355
40301SOL     OW22909   1.415   8.013   9.165
40301SOL    HW122910   1.503   7.987   9.191
40301SOL    HW222911   1.424  -2.998  31.153
40302SOL     OW22912   9.441   5.415   7.122
40302SOL    HW122913  -1.541  16.459   7.046
40302SOL    HW222914   9.360   5.458   7.093
40303SOL     OW22915   8.870   0.977   3.167
40303SOL    HW122916   8.938   1.037  14.177
40303SOL    HW222917   8.918 -10.140   3.198
40304SOL     OW22918   9.687   8.805   6.815
40304SOL    HW122919  31.783   8.832   6.906
40304SOL    HW222920   9.740  -2.174   6.763
40305SOL     OW22921  10.405  10.205   5.267
40305SOL    HW122922  10.487  10.218  -5.820
40305SOL    HW222923  10.431  -0.852  -5.683
40306SOL     OW22924  10.058  -0.502   8.089
40306SOL    HW122925  10.109  10.582   8.022
40306SOL    HW222926  21.163  -0.545  -2.895
40307SOL     OW22927   8.826   4.652   5.828
40307SOL    HW122928  19.834   4.728  27.956
40307SOL    HW222929   8.835   4.685  27.817
40308SOL     OW22930   2.082   5.306   2.746
40308SOL    HW122931  -8.875  16.311   2.713
40308SOL    HW222932   2.018  -5.803  24.809
40309SOL     OW22933   9.815   6.943   3.492
40309SOL    HW122934   9.879  -4.048   3.543
40309SOL    HW222935  20.772   6.990   3.504
40310SOL     OW22936  -0.352   6.409   4.187
40310SOL    HW122937  -0.432  -4.588   4.218
40310SOL    HW222938  10.682 -15.665   4.091
40311SOL     OW22939   9.652   7.833  11.197
40311SOL    HW122940   9.674   7.923 -55.064
40311SOL    HW222941   9.689   7.822  11.284
40312SOL     OW22942   1.134   8.356   2.841
40312SOL    HW122943  12.223   8.426  13.925
40312SOL    HW222944  12.105   8.332   2.903
40313SOL     OW22945  -2.101   9.011   2.045
40313SOL    HW122946  53.057   9.021   1.959
40313SOL    HW222947   9.014   9.070   2.044
40314SOL     OW22948   2.126   9.478  -0.388
40314SOL    HW122949   2.121   9.537  10.577
40314SOL    HW222950 -30.931   9.410  21.663
40315SOL     OW22951   7.496   3.694   2.041
40315SOL    HW122952   7.411   3.655   2.019
40315SOL    HW222953   7.537   3.711   1.956
40316SOL     OW22954   9.216  11.015   9.438
40316SOL    HW122955   9.175  10.929   9.436
40316SOL    HW222956  20.212   0.021 -12.569
40317SOL     OW22957   5.703   5.253   2.924
40317SOL    HW122958   5.659   5.268  36.126
40317SOL    HW222959  -5.400   5.205   2.871
40318SOL     OW22960   2.883  10.893   4.783
40318SOL    HW122961   2.941  10.817   4.798
40318SOL    HW222962  -8.100  10.957   4.739
40319SOL     OW22963   1.810   9.890  12.501
40319SOL    HW122964   1.903   9.878 -20.600
40319SOL    HW222965   1.806   9.933   1.376
40320SOL     OW22966   1.473   2.334   8.220
40320SOL    HW122967   1.394   2.339   8.273
40320SOL    HW222968   1.498  13.281   8.224
40321SOL     OW22969  -0.788  10.389   3.592
40321SOL    HW122970  -0.862 -22.777   3.631
40321SOL    HW222971  21.279  21.420   3.498
40322SOL     OW22972   9.135   0.627   1.289
40322SOL    HW122973 -12.863   0.640   1.339
40322SOL    HW222974   9.079   0.701   1.315
40323SOL     OW22975   5.923   4.316  -0.541
40323SOL    HW122976   5.848   4.289  -0.594
40323SOL    HW222977   5.987   4.245  21.526
40324SOL     OW22978   6.670   7.865   3.444
40324SOL    HW122979  17.744   7.813  14.411
40324SOL    HW222980   6.732  18.889   3.515
40325SOL     OW22981  10.018   0.991   6.027
40325SOL    HW122982  10.046   0.925  -5.076
40325SOL    HW222983  -0.964   1.066   6.011
40326SOL     OW22984   2.184   9.884   4.625
40326SOL    HW122985   2.224 -12.266   4.575
40326SOL    HW222986  24.260   9.852   4.715
40327SOL     OW22987   6.026   2.578   9.682
40327SOL    HW122988   6.008   2.491   9.646
40327SOL    HW222989   6.089   2.616   9.621
40328SOL     OW22990  10.401   7.005   8.146
40328SOL    HW122991  10.470   7.037   8.088
40328SOL    HW222992  10.330   6.980   8.087
40329SOL     OW22993   4.562   3.245   1.757
40329SOL    HW122994   4.644   3.284  12.766
40329SOL    HW222995   4.514   3.225   1.677
40330SOL     OW22996   5.617   9.570   6.904
40330SOL    HW122997   5.610   9.491   6.958
40330SOL    HW222998   5.549   9.561   6.838
40331SOL     OW22999   5.710   7.598   7.217
40331SOL    HW123000  27.838   7.675   7.247
40331SOL    HW223001   5.717  18.575   7.289
40332SOL     OW23002   9.971   9.949   2.662
40332SOL    HW123003  10.057   9.945   2.622
40332SOL    HW223004 -12.116   9.869   2.713
40333SOL     OW23005   3.189   7.364   3.388
40333SOL    HW123006   3.181   7.457   3.411
40333SOL    HW223007   3.118 -25.770   3.326
40334SOL     OW23008   5.290   0.279   9.113
40334SOL    HW123009 -27.899   0.343   9.100
40334SOL    HW223010 -38.889   0.237  -1.843
40335SOL     OW23011   6.866   3.260   0.470
40335SOL    HW123012   6.942 -18.798  11.564
40335SOL    HW223013  28.969   3.291  11.423
40336SOL     OW23014   0.840   8.030   0.502
40336SOL    HW123015   0.825   8.122   0.481
40336SOL    HW223016   0.780   8.012   0.574
40337SOL     OW23017   9.804   4.137   4.552
40337SOL    HW123018  20.862   4.046   4.576
40337SOL    HW223019   9.743   4.168  -6.421
40338SOL     OW23020  11.019   9.632   4.094
40338SOL    HW123021  10.960   9.572   4.049
40338SOL    HW223022  10.969   9.663   4.169
40339SOL     OW23023   6.555   9.312   7.580
40339SOL    HW123024   6.479   9.265   7.545
40339SOL    HW223025  -4.421   9.312   7.508
40340SOL     OW23026   1.718   6.875   2.297
40340SOL    HW123027   1.768   6.869   2.378
40340SOL    HW223028  12.711   6.791   2.290
40341SOL     OW23029   4.018   8.400   8.388
40341SOL    HW123030   3.943 -13.644  30.419
40341SOL    HW223031   4.030  19.351   8.353
40342SOL     OW23032   7.106   2.769   8.655
40342SOL    HW123033   7.113   2.811   8.741
40342SOL    HW223034 -25.937   2.711   8.651
40343SOL     OW23035   8.815   3.693   6.980
40343SOL    HW123036  19.927   3.753   6.962
40343SOL    HW223037   8.799   3.650   6.896
40344SOL     OW23038   5.873   9.025   8.164
40344SOL    HW123039   5.944  -2.025  -2.812
40344SOL    HW223040   5.865  -1.920   8.154
40345SOL     OW23041  11.251   7.497   0.425
40345SOL    HW123042   0.248   7.566   0.480
40345SOL    HW223043  11.189   7.451   0.483
40346SOL     OW23044   9.223   3.876   9.346
40346SOL    HW123045   9.249   3.800  20.334
40346SOL    HW223046   9.305   3.915   9.375
40347SOL     OW23047  10.805   2.259  10.230
40347SOL    HW123048  10.815   2.213  10.313
40347SOL    HW223049  -0.323  -8.743  -0.806
40348SOL     OW23050   6.716   6.274   7.738
40348SOL    HW123051   6.774   6.198   7.746
40348SOL    HW223052  17.802  -4.696   7.784
40349SOL     OW23053   5.873  10.083  10.857
40349SOL    HW123054   5.887   9.991  10.879
40349SOL    HW223055   5.944  10.104 -22.322
40350SOL     OW23056   6.510   4.312   8.815
40350SOL    HW123057   6.500   4.407   8.815
40350SOL    HW223058   6.427   4.279   8.779
40351SOL     OW23059   8.648   7.546  -0.039
40351SOL    HW123060   8.610   7.482  11.061
40351SOL    HW223061 -13.363 -14.489   0.012
40352SOL     OW23062  -0.330  -2.306   3.967
40352SOL    HW123063  -0.256  30.872   3.981
40352SOL    HW223064  10.751   8.648  14.989
40353SOL     OW23065   8.537   5.503   7.243
40353SOL    HW123066   8.630   5.485   7.252
40353SOL    HW223067   8.502  27.502   7.202
40354SOL     OW23068   2.697   6.812   8.325
40354SOL    HW123069  13.643  17.835   8.337
40354SOL    HW223070   2.724   6.750   8.258
40355SOL     OW23071   9.130   5.634   1.437
40355SOL    HW123072   9.052   5.579   1.440
40355SOL    HW223073   9.138  27.749  -9.514
40356SOL     OW23074   2.443   4.422   7.878
40356SOL    HW123075 -19.642   4.417   7.782
40356SOL    HW223076   2.530   4.458 -14.184
40357SOL     OW23077   4.950   1.116   0.765
40357SOL    HW123078 -17.083   1.035  11.785
40357SOL    HW223079   5.012  12.225  22.823
40358SOL     OW23080  11.038  -0.402  10.975
40358SOL    HW123081  10.958  -0.423  11.024
40358SOL    HW223082  11.101  10.573  11.004
40359SOL     OW23083   9.352   4.116   5.568
40359SOL    HW123084   9.423  15.129 -16.570
40359SOL    HW223085 -34.764  15.218  -5.411
40360SOL     OW23086   4.986   4.730   8.671
40360SOL    HW123087   5.072  -6.305   8.629
40360SOL    HW223088   5.003   4.698   8.759
40361SOL     OW23089   8.104   7.296   9.363
40361SOL    HW123090  19.053   7.299  -1.708
40361SOL    HW223091   8.154   7.343   9.297
40362SOL     OW23092   9.393   4.409   1.350
40362SOL    HW123093   9.423   4.410  12.480
40362SOL    HW223094   9.308   4.452   1.352
40363SOL     OW23095   2.156   8.943   9.257
40363SOL    HW123096   2.143   9.038   9.257
40363SOL    HW223097   2.251   8.933  20.290
40364SOL     OW23098   3.165   4.038   3.048
40364SOL    HW123099   3.206   4.101   2.988
40364SOL    HW223100  14.165   4.093  -7.924
40365SOL     OW23101   5.193  10.245   9.495
40365SOL    HW123102   5.122  10.230   9.557
40365SOL    HW223103   5.189  10.339  -1.562
40366SOL     OW23104   3.304   1.847   2.783
40366SOL    HW123105   3.296   1.760   2.742
40366SOL    HW223106   3.310   1.829   2.877
40367SOL     OW23107   4.584   7.029   9.333
40367SOL    HW123108   4.624   7.004   9.250
40367SOL    HW223109   4.524   6.958  20.393
40368SOL     OW23110   8.549   5.749   0.571
40368SOL    HW123111  19.605  16.764 -10.560
40368SOL    HW223112   8.473   5.697  11.636
40369SOL     OW23113   9.287   1.518   9.787
40369SOL    HW123114   9.234   1.459  31.920
40369SOL    HW223115   9.377  34.610  -1.234
40370SOL     OW23116   1.038   2.461   7.708
40370SOL    HW123117  12.151   2.483   7.765
40370SOL    HW223118   1.078  -8.604   7.625
40371SOL     OW23119   3.173   9.528   8.658
40371SOL    HW123120  25.212   9.474   8.726
40371SOL    HW223121   3.111   9.526  -2.454
40372SOL     OW23122   9.883   3.204   4.959
40372SOL    HW123123   9.788   3.187   4.960
40372SOL    HW223124   9.918   3.144   5.025
40373SOL     OW23125   7.430   9.208   9.826
40373SOL    HW123126   7.403  31.195  20.858
40373SOL    HW223127  -3.671   9.246   9.889
40374SOL     OW23128  10.752   3.096  11.319
40374SOL    HW123129  10.804  14.192  11.377
40374SOL    HW223130  10.761  36.254   0.193
40375SOL     OW23131   2.911   3.439   6.422
40375SOL    HW123132  -8.156  14.516   6.506
40375SOL    HW223133 -19.134  -7.687  39.563
40376SOL     OW23134   1.494   5.063   2.597
40376SOL    HW123135  12.472  16.095   2.523
40376SOL    HW223136  34.698  -5.962  24.634
40377SOL     OW23137   5.437   2.195   3.604
40377SOL    HW123138   5.449   2.210  25.590
40377SOL    HW223139  16.384   2.214  14.660
40378SOL     OW23140   6.815   8.002   2.866
40378SOL    HW123141   6.723   7.983   2.883
40378SOL    HW223142  17.896  30.079   2.952
40379SOL     OW23143   5.189  10.155   1.365
40379SOL    HW123144   5.179  10.234   1.417
40379SOL    HW223145   5.100  10.121   1.355
40380SOL     OW23146   8.715  -1.139   0.966
40380SOL    HW123147   8.698  -1.233 -10.066
40380SOL    HW223148   8.628  54.099   0.973
40381SOL     OW23149   4.626   1.304   8.931
40381SOL    HW123150  15.634   1.303   8.840
40381SOL    HW223151  26.730   1.395   8.947
40382SOL     OW23152   4.929  10.731   1.809
40382SOL    HW123153   4.840  10.747  12.879
40382SOL    HW223154   4.954  10.812   1.764
40383SOL     OW23155   6.951   8.106   4.913
40383SOL    HW123156 -15.038  -2.906   4.897
40383SOL    HW223157   6.898   8.178   4.879
40384SOL     OW23158   3.953   2.025   9.794
40384SOL    HW123159   3.874   2.058   9.752
40384SOL    HW223160   3.934   1.933   9.813
40385SOL     OW23161   0.140   2.410   1.784
40385SOL    HW123162   0.123   2.497  12.788
40385SOL    HW223163   0.168  -8.681  12.748
40386SOL     OW23164  10.384   1.092   4.915
40386SOL    HW123165 -11.637   1.121   4.844
40386SOL    HW223166 -33.728   1.019   4.956
40387SOL     OW23167   1.286   5.742   4.955
40387SOL    HW123168   1.191  16.775 -17.110
40387SOL    HW223169   1.295   5.742   4.859
40388SOL     OW23170   7.781   0.975   0.924
40388SOL    HW123171   7.747   0.887  22.991
40388SOL    HW223172   7.800   1.006  11.875
40389SOL     OW23173  -0.174   5.895   9.976
40389SOL    HW123174  10.841   5.967   9.917
40389SOL    HW223175  -0.252   5.880  10.028
40390SOL     OW23176   3.281   4.067   5.840
40390SOL    HW123177  -7.771   4.160   5.826
40390SOL    HW223178   3.194   4.034   5.863
40391SOL     OW23179   7.562   7.930   2.514
40391SOL    HW123180  -3.511   8.002  -8.579
40391SOL    HW223181   7.647   7.959  13.584
40392SOL     OW23182   1.075   3.409  10.680
40392SOL    HW123183  23.140  14.504  10.604
40392SOL    HW223184   1.167   3.420  10.701
40393SOL     OW23185   0.434   5.510   5.542
40393SOL    HW123186   0.352   5.471  16.550
40393SOL    HW223187   0.440   5.481   5.633
40394SOL     OW23188   5.819  -0.409   1.468
40394SOL    HW123189  -5.177  21.749 -20.579
40394SOL    HW223190  16.894 -11.520   1.522
40395SOL     OW23191   3.930   1.226   9.531
40395SOL    HW123192   3.892   1.140  20.585
40395SOL    HW223193   3.929   1.268   9.617
40396SOL     OW23194   0.195  10.150   4.715
40396SOL    HW123195  11.159  10.195  26.757
40396SOL    HW223196   0.162  10.063  26.817
40397SOL     OW23197  -2.093   7.847   3.697
40397SOL    HW123198  -2.087   7.752   3.708
40397SOL    HW223199  53.109   7.860   3.602
40398SOL     OW23200   2.886   5.188   7.325
40398SOL    HW123201   2.906  27.306   7.240
40398SOL    HW223202   2.896   5.093   7.311
40399SOL     OW23203   1.590  10.865   5.116
40399SOL    HW123204  -9.413  10.948   5.086
40399SOL    HW223205   1.568  10.880   5.208
40400SOL     OW23206   8.052   6.839   1.767
40400SOL    HW123207   8.073  -4.112   1.798
40400SOL    HW223208   7.998   6.801  -9.203
40401SOL     OW23209   3.370   2.733   2.678
40401SOL    HW123210   3.465   2.723  -8.361
40401SOL    HW223211   3.340  13.713 -19.470
40402SOL     OW23212   6.843   1.180   8.637
40402SOL    HW123213  -4.119   1.233   8.653
40402SOL    HW223214  28.879   1.175   8.723
40403SOL     OW23215   6.532   0.484   3.529
40403SOL    HW123216   6.583   0.564   3.543
40403SOL    HW223217   6.474  22.584  14.495
40404SOL     OW23218   3.532   9.685   6.761
40404SOL    HW123219   3.480  -1.311   6.694
40404SOL    HW223220   3.568   9.756   6.814
40405SOL     OW23221   9.194   5.891   1.000
40405SOL    HW123222  31.241  17.020 -10.027
40405SOL    HW223223   9.288  50.059   0.983
40406SOL     OW23224   7.343  10.089   4.489
40406SOL    HW123225   7.371  10.172   4.528
40406SOL    HW223226   7.335  -0.931   4.395
40407SOL     OW23227  10.251   4.914   9.210
40407SOL    HW123228  10.174  15.913   9.250
40407SOL    HW223229  10.296   4.841   9.166
40408SOL     OW23230   7.894   6.172   4.531
40408SOL    HW123231   7.887   6.077   4.538
40408SOL    HW223232   7.911   6.188  -6.601
40409SOL     OW23233   0.034   7.168   5.180
40409SOL    HW123234   0.001   7.087   5.142
40409SOL    HW223235  22.050 -14.844  -5.887
40410SOL     OW23236   0.908   6.312   8.316
40410SOL    HW123237  11.960   6.335  19.447
40410SOL    HW223238   0.884   6.220  -2.723
40411SOL     OW23239   4.699   6.866   6.668
40411SOL    HW123240   4.767  50.999 -15.473
40411SOL    HW223241  26.823  17.961   6.732
40412SOL     OW23242   1.342   2.029  12.014
40412SOL    HW123243   1.258  24.113   0.928
40412SOL    HW223244   1.352  -8.924   1.014
40413SOL     OW23245   8.501   8.222   5.667
40413SOL    HW123246 -13.563  19.254   5.573
40413SOL    HW223247  -2.451  -2.823 -27.412
40414SOL     OW23248   1.656   0.681   7.642
40414SOL    HW123249   1.566   0.654   7.661
40414SOL    HW223250   1.649   0.730   7.560
40415SOL     OW23251   8.140  10.011   2.782
40415SOL    HW123252  -2.900  -1.079   2.863
40415SOL    HW223253 -13.849  21.079   2.771
40416SOL     OW23254   8.069   3.689   8.783
40416SOL    HW123255  19.057   3.671  19.902
40416SOL    HW223256  19.164   3.762  19.846
40417SOL     OW23257   5.519   8.098   0.804
40417SOL    HW123258   5.526   8.044   0.725
40417SOL    HW223259   5.434   8.074   0.842
40418SOL     OW23260   8.723   1.369   8.183
40418SOL    HW123261   8.700   1.439   8.244
40418SOL    HW223262   8.728   1.412   8.098
40419SOL     OW23263   9.105   2.952   4.838
40419SOL    HW123264   9.194   2.918   4.850
40419SOL    HW223265   9.052   2.875  -6.222
40420SOL     OW23266   8.094   5.477   0.436
40420SOL    HW123267   8.060   5.537   0.503
40420SOL    HW223268  30.155   5.390   0.471
40421SOL     OW23269   9.359   8.905   2.741
40421SOL    HW123270   9.378  19.881   2.672
40421SOL    HW223271   9.386   8.861   2.822
40422SOL     OW23272   8.584   8.592   1.534
40422SOL    HW123273  30.613   8.518  -9.471
40422SOL    HW223274  19.619   8.658   1.602
40423SOL     OW23275   1.036  10.714  10.700
40423SOL    HW123276  23.102  10.784  10.763
40423SOL    HW223277   0.992  10.743  10.620
40424SOL     OW23278   5.564   2.964  11.133
40424SOL    HW123279   5.494   3.027 -10.963
40424SOL    HW223280   5.527   2.905  11.200
40425SOL     OW23281   7.910  10.165   4.566
40425SOL    HW123282   7.863  10.238   4.526
40425SOL    HW223283   7.848  10.092   4.561
40426SOL     OW23284   7.499   7.820  10.628
40426SOL    HW123285  -3.497   7.741  10.658
40426SOL    HW223286   7.441  18.884  -0.339
40427SOL     OW23287   4.639   8.094   1.124
40427SOL    HW123288  15.702  19.175   1.207
40427SOL    HW223289   4.632  19.206   1.062
40428SOL     OW23290   7.820   9.140   8.799
40428SOL    HW123291   7.915   9.133 -13.290
40428SOL    HW223292   7.803  -1.805   8.802
40429SOL     OW23293   6.511   1.252   7.416
40429SOL    HW123294  28.637   1.313   7.472
40429SOL    HW223295   6.569   1.238  -3.698
40430SOL     OW23296   9.383   8.453   8.483
40430SOL    HW123297   9.420   8.427   8.567
40430SOL    HW223298  -1.623   8.389   8.421
40431SOL     OW23299   4.578   2.170   2.239
40431SOL    HW123300  15.550   2.235   2.221
40431SOL    HW223301   4.637   2.214   2.301
40432SOL     OW23302   8.161   8.042   6.810
40432SOL    HW123303   8.136  -2.969   6.898
40432SOL    HW223304   8.255   8.060  -4.234
40433SOL     OW23305   9.613   8.215  10.155
40433SOL    HW123306  -1.401  19.328 -11.980
40433SOL    HW223307   9.687   8.154  10.149
40434SOL     OW23308   4.081  10.802   5.113
40434SOL    HW123309  -6.865  10.787   5.108
40434SOL    HW223310  15.099  10.849   5.033
40435SOL     OW23311   1.102   7.619   5.873
40435SOL    HW123312  12.202   7.626  16.986
40435SOL    HW223313   1.055  -3.502   5.888
40436SOL     OW23314   7.563   7.279   2.840
40436SOL    HW123315   7.655   7.305   2.842
40436SOL    HW223316   7.527  -3.717   2.763
40437SOL     OW23317   8.648  10.002   2.574
40437SOL    HW123318   8.614   9.944   2.505
40437SOL    HW223319   8.583   9.996 -19.435
40438SOL     OW23320   8.592   4.408   3.553
40438SOL    HW123321   8.613   4.473   3.486
40438SOL    HW223322  -2.490  -6.703   3.505
40439SOL     OW23323   8.510   7.550   1.404
40439SOL    HW123324   8.450   7.579   1.473
40439SOL    HW223325   8.556   7.475   1.442
40440SOL     OW23326   1.823   0.528   9.675
40440SOL    HW123327  -9.173  22.685  20.680
40440SOL    HW223328   1.779   0.559   9.754
40441SOL     OW23329   9.575   9.819   3.779
40441SOL    HW123330   9.598   9.835   3.870
40441SOL    HW223331  20.533   9.868 -18.314
40442SOL     OW23332  10.598   9.356   6.813
40442SOL    HW123333  10.546  -1.696   6.733
40442SOL    HW223334  10.555  20.340   6.878
40443SOL     OW23335   0.716   8.478   7.372
40443SOL    HW123336  11.745   8.505   7.463
40443SOL    HW223337   0.706  19.423   7.374
40444SOL     OW23338   0.959   8.257   3.959
40444SOL    HW123339   1.011  41.395   3.880
40444SOL    HW223340   0.944  19.202   3.955
40445SOL     OW23341   8.646   9.740   3.445
40445SOL    HW123342   8.680   9.829 -18.639
40445SOL    HW223343   8.725  -1.355   3.444
40446SOL     OW23344   4.925   2.034   2.414
40446SOL    HW123345  -6.026  13.035   2.409
40446SOL    HW223346   4.883   2.007 -19.747
40447SOL     OW23347   9.332   6.000   2.427
40447SOL    HW123348   9.351   5.997  -8.707
40447SOL    HW223349   9.291  17.125   2.441
40448SOL     OW23350   7.192   7.699   6.594
40448SOL    HW123351   7.130   7.626 -15.495
40448SOL    HW223352   7.263   7.663   6.647
40449SOL     OW23353  10.638   4.209  11.209
40449SOL    HW123354  10.680   4.152   0.104
40449SOL    HW223355  10.557   4.163   0.193
40450SOL     OW23356   5.896   3.124   0.743
40450SOL    HW123357   5.984   3.162 -10.305
40450SOL    HW223358  16.930   3.097   0.834
40451SOL     OW23359   1.055   5.076  -1.818
40451SOL    HW123360   1.104   5.011  -1.868
40451SOL    HW223361   1.008   5.127  31.234
40452SOL     OW23362  -0.273   2.044   1.775
40452SOL    HW123363  -0.342   2.109  -9.251
40452SOL    HW223364  10.769   2.031  23.759
40453SOL     OW23365   9.929   8.283   2.696
40453SOL    HW123366   9.931  30.319  -8.429
40453SOL    HW223367   9.987   8.229   2.751
40454SOL     OW23368   9.343   0.024   8.987
40454SOL    HW123369  -1.739  11.107  20.100
40454SOL    HW223370   9.337  10.970   9.008
40455SOL     OW23371  10.202   9.563   7.242
40455SOL    HW123372  10.120  20.647   7.220
40455SOL    HW223373  21.239  -1.485   7.338
40456SOL     OW23374  11.034   0.009   9.343
40456SOL    HW123375  10.974  11.066   9.415
40456SOL    HW223376  11.121   0.010   9.383
40457SOL     OW23377  10.078   3.134   1.374
40457SOL    HW123378  -1.040   3.084  -9.645
40457SOL    HW223379  10.088   3.125  12.319
40458SOL     OW23380   9.913   6.274   8.484
40458SOL    HW123381  10.002  -4.792   8.461
40458SOL    HW223382   9.862   6.262   8.404
40459SOL     OW23383   4.253   5.264  10.745
40459SOL    HW123384   4.272   5.358  10.753
40459SOL    HW223385   4.339   5.223  10.738
40460SOL     OW23386   0.565   6.927   3.117
40460SOL    HW123387   0.617   6.848   3.100
40460SOL    HW223388   0.531  28.993   3.206
40461SOL     OW23389   9.302   7.519   3.816
40461SOL    HW123390   9.253   7.544   3.894
40461SOL    HW223391   9.306   7.423   3.820
40462SOL     OW23392   1.904  10.331  10.197
40462SOL    HW123393  -9.117  10.364  -0.930
40462SOL    HW223394   1.984  10.348  10.246
40463SOL     OW23395   5.493   9.860   1.620
40463SOL    HW123396   5.420   9.831   1.565
40463SOL    HW223397   5.504   9.789  12.724
40464SOL     OW23398   8.843  10.394   1.033
40464SOL    HW123399   8.900  10.374  12.147
40464SOL    HW223400  19.901  10.325   0.970
40465SOL     OW23401   2.805   1.318   7.052
40465SOL    HW123402   2.898  45.495   7.065
40465SOL    HW223403   2.761   1.399  18.115
40466SOL     OW23404   6.054   9.959   0.867
40466SOL    HW123405   5.990  20.989   0.797
40466SOL    HW223406  28.082  -1.091   0.948
40467SOL     OW23407  10.814   9.627   9.747
40467SOL    HW123408  10.743   9.569  31.854
40467SOL    HW223409 -22.289  31.763   9.822
40468SOL     OW23410  10.459   4.760   2.272
40468SOL    HW123411  10.393   4.700   2.307
40468SOL    HW223412  10.446  -6.281  -8.862
40469SOL     OW23413   8.051  10.974   4.903
40469SOL    HW123414   8.144  10.995   4.908
40469SOL    HW223415   8.021  -0.063   4.994
40470SOL     OW23416   0.863   4.678   6.012
40470SOL    HW123417   0.778   4.644   6.041
40470SOL    HW223418   0.859   4.676   5.917
40471SOL     OW23419   7.764   0.873  10.142
40471SOL    HW123420   7.728   0.816  10.211
40471SOL    HW223421   7.815  22.893  10.087
40472SOL     OW23422   9.986   4.420   5.121
40472SOL    HW123423  -1.116  -6.547   5.121
40472SOL    HW223424  -1.075   4.369   5.043
40473SOL     OW23425   6.565   7.090   5.011
40473SOL    HW123426  39.659  -3.861   4.986
40473SOL    HW223427   6.542 -15.043  -6.104
40474SOL     OW23428   5.664   1.425   2.211
40474SOL    HW123429   5.749   1.389   2.188
40474SOL    HW223430   5.612  12.459  13.170
40475SOL     OW23431   6.713   6.022   4.478
40475SOL    HW123432   6.735   5.930   4.465
40475SOL    HW223433   6.797   6.067   4.482
40476SOL     OW23434   2.901   0.910   7.811
40476SOL    HW123435   2.872  11.968   7.722
40476SOL    HW223436  13.861   0.887   7.859
40477SOL     OW23437   2.921   6.300   2.798
40477SOL    HW123438   2.940   6.207   2.812
40477SOL    HW223439   2.866   6.325   2.871
40478SOL     OW23440  13.896   0.018   6.221
40478SOL    HW123441 -30.198   0.086   6.242
40478SOL    HW223442   2.907  -0.050   6.178
40479SOL     OW23443   5.446   2.252   6.913
40479SOL    HW123444   5.425   2.342   6.889
40479SOL    HW223445  16.528  24.295   6.836
40480SOL     OW23446   5.312   5.810  11.457
40480SOL    HW123447   5.278   5.763  11.381
40480SOL    HW223448   5.405   5.786   0.422
40481SOL     OW23449   6.957   7.843   4.142
40481SOL    HW123450   6.986 -14.209  15.269
40481SOL    HW223451   7.013 -14.187   4.082
40482SOL     OW23452   2.924   8.068   4.966
40482SOL    HW123453  14.015   8.026   4.897
40482SOL    HW223454  13.993   8.159   4.967
40483SOL     OW23455  10.867   7.991  10.283
40483SOL    HW123456  10.951   8.036  10.271
40483SOL    HW223457  10.881  -3.106  10.358
40484SOL     OW23458   4.137   8.069   2.731
40484SOL    HW123459   4.208   8.132  35.833
40484SOL    HW223460  26.216  -2.981  35.945
40485SOL     OW23461   7.294   3.494  10.029
40485SOL    HW123462   7.383   3.462 -12.038
40485SOL    HW223463   7.252   3.484  10.114
40486SOL     OW23464   6.880   5.326   0.753
40486SOL    HW123465  17.932   5.256 -10.351
40486SOL    HW223466   6.941   5.305   0.823
40487SOL     OW23467   5.425   2.132   6.518
40487SOL    HW123468  -5.524  -8.874   6.525
40487SOL    HW223469   5.422   2.059   6.580
40488SOL     OW23470   7.403   1.483   2.525
40488SOL    HW123471  18.403   1.570   2.527
40488SOL    HW223472   7.360   1.436   2.597
40489SOL     OW23473   8.153   0.878   3.704
40489SOL    HW123474   8.131   0.969   3.723
40489SOL    HW223475   8.242   0.867 -18.340
40490SOL     OW23476   6.439   2.441   0.294
40490SOL    HW123477   6.427   2.533   0.270
40490SOL    HW223478   6.358   2.416   0.338
40491SOL     OW23479   4.666   5.270   1.173
40491SOL    HW123480   4.578   5.242  -9.841
40491SOL    HW223481   4.718  16.299  12.292
40492SOL     OW23482   0.686   2.734  12.491
40492SOL    HW123483 -10.261   2.747  -9.567
40492SOL    HW223484   0.659   2.815   1.409
40493SOL     OW23485   7.294  10.801   6.090
40493SOL    HW123486  29.295  10.834  17.176
40493SOL    HW223487   7.345  10.757   6.158
40494SOL     OW23488   2.483   6.813   0.977
40494SOL    HW123489   2.535   6.893   0.983
40494SOL    HW223490   2.546   6.743   0.961
40495SOL     OW23491   1.179   3.146   4.247
40495SOL    HW123492   1.242  14.144  15.346
40495SOL    HW223493   1.233   3.193   4.185
40496SOL     OW23494   9.574   3.686   9.937
40496SOL    HW123495   9.651   3.691  -1.159
40496SOL    HW223496  20.619 -18.480   9.977
40497SOL     OW23497   2.236   5.854   6.673
40497SOL    HW123498   2.240  16.931   6.586
40497SOL    HW223499   2.159   5.895   6.714
40498SOL     OW23500   7.768   1.281   3.223
40498SOL    HW123501   7.843   1.326 -18.817
40498SOL    HW223502   7.791   1.272  -7.909
40499SOL     OW23503   4.398   0.878   4.020
40499SOL    HW123504   4.312   0.848   4.049
40499SOL    HW223505   4.380   0.953 -29.155
40500SOL     OW23506   7.175   4.189   9.449
40500SOL    HW123507   7.202   4.169  31.617
40500SOL    HW223508   7.140   4.277   9.454
40501SOL     OW23509   7.457  10.820   8.360
40501SOL    HW123510  18.578  10.771 -13.707
40501SOL    HW223511   7.388  10.755   8.371
40502SOL     OW23512   6.603   5.409   1.116
40502SOL    HW123513  39.724   5.460   1.036
40502SOL    HW223514  -4.441   5.474   1.186
40503SOL     OW23515   4.264  10.086   6.849
40503SOL    HW123516  15.324  10.040   6.768
40503SOL    HW223517   4.258 -11.901   6.823
40504SOL     OW23518   2.697   6.698  10.028
40504SOL    HW123519   2.730  17.742   9.938
40504SOL    HW223520   2.759   6.749  21.119
40505SOL     OW23521   6.180   9.070   0.630
40505SOL    HW123522   6.231  20.190 -10.419
40505SOL    HW223523   6.223  20.062   0.701
40506SOL     OW23524   2.538   1.007   5.710
40506SOL    HW123525   2.503   1.075   5.652
40506SOL    HW223526   2.463   0.979   5.763
40507SOL     OW23527   3.862   3.153   6.297
40507SOL    HW123528   3.886   3.075   6.248
40507SOL    HW223529   3.825  -7.920   6.379
40508SOL     OW23530   8.113   8.841   4.364
40508SOL    HW123531  -2.876   8.912  15.363
40508SOL    HW223532   8.129   8.765   4.307
40509SOL     OW23533   3.509   0.125  10.116
40509SOL    HW123534   3.555  22.204  -0.840
40509SOL    HW223535   3.502   0.033  10.091
40510SOL     OW23536   2.084   8.273   9.433
40510SOL    HW123537 -20.090  19.312   9.421
40510SOL    HW223538  -8.931  19.404   9.424
40511SOL     OW23539   5.166   2.915   6.504
40511SOL    HW123540   5.184   3.008  39.606
40511SOL    HW223541   5.190   2.903   6.596
40512SOL     OW23542   5.418   3.194   4.437
40512SOL    HW123543   5.331  14.262   4.407
40512SOL    HW223544   5.411   3.099   4.442
40513SOL     OW23545  -0.090   5.153   3.737
40513SOL    HW123546  10.898   5.208   3.796
40513SOL    HW223547  -0.006   5.143   3.782
40514SOL     OW23548   2.477   0.091   0.734
40514SOL    HW123549   2.497   0.004   0.699
40514SOL    HW223550   2.560   0.122   0.770
40515SOL     OW23551   5.670   4.532   5.427
40515SOL    HW123552   5.609   4.493   5.363
40515SOL    HW223553   5.741  15.507 -27.686
40516SOL     OW23554   2.435   3.073   4.533
40516SOL    HW123555  13.386  -8.002  26.619
40516SOL    HW223556   2.484   3.028   4.602
40517SOL     OW23557   2.325   7.238   3.730
40517SOL    HW123558   2.271   7.244 -29.467
40517SOL    HW223559   2.306  -3.722  -7.261
40518SOL     OW23560   7.390   5.914  -0.952
40518SOL    HW123561  18.431   5.853  21.053
40518SOL    HW223562   7.305   5.901  10.128
40519SOL     OW23563   9.191   8.163   5.103
40519SOL    HW123564   9.165 -13.896  -5.847
40519SOL    HW223565  20.149 -13.939  -5.980
40520SOL     OW23566   2.286   3.671   1.425
40520SOL    HW123567   2.282   3.737   1.356
40520SOL    HW223568   2.325   3.717   1.499
40521SOL     OW23569   7.440   6.557   2.985
40521SOL    HW123570 -25.755   6.506   3.011
40521SOL    HW223571   7.509   6.529   3.046
40522SOL     OW23572   0.675   9.604   4.395
40522SOL    HW123573  11.626   9.614   4.361
40522SOL    HW223574   0.731  -1.433   4.317
40523SOL     OW23575   7.508   8.988   5.886
40523SOL    HW123576   7.507   9.084 -16.199
40523SOL    HW223577   7.557   8.960 -27.310
40524SOL     OW23578   3.431   0.086   0.628
40524SOL    HW123579   3.418   0.006   0.678
40524SOL    HW223580   3.409   0.157   0.689
40525SOL     OW23581   8.941   2.788  10.085
40525SOL    HW123582   8.910   2.851  10.019
40525SOL    HW223583   9.036  13.836  10.083
40526SOL     OW23584   3.375   3.392   7.029
40526SOL    HW123585   3.450   3.445   7.055
40526SOL    HW223586   3.377  -7.647   6.934
40527SOL     OW23587   6.756   4.982   8.370
40527SOL    HW123588   6.830  27.014   8.332
40527SOL    HW223589  28.799   5.033   8.298
40528SOL     OW23590   0.120   4.034   7.448
40528SOL    HW123591   0.133   4.115   7.400
40528SOL    HW223592  11.158  -7.074   7.381
40529SOL     OW23593  10.853   5.397   6.629
40529SOL    HW123594  10.863   5.457   6.703
40529SOL    HW223595  10.943   5.380   6.600
40530SOL     OW23596  -0.443   5.513  11.743
40530SOL    HW123597  21.677  16.638   0.717
40530SOL    HW223598  -0.370   5.451   0.708
40531SOL     OW23599   4.185  11.964   0.095
40531SOL    HW123600  -6.880 -21.113   0.177
40531SOL    HW223601  15.242  12.037   0.035
40532SOL     OW23602   3.408   1.042   6.099
40532SOL    HW123603  25.455   1.001   6.019
40532SOL    HW223604   3.498   1.068   6.077
40533SOL     OW23605   6.788   8.301   1.160
40533SOL    HW123606  28.817  19.263   1.182
40533SOL    HW223607  17.887   8.273   1.091
40534SOL     OW23608   1.087   8.758   5.100
40534SOL    HW123609   1.080   8.834  16.082
40534SOL    HW223610  12.174   8.693  16.087
40535SOL     OW23611   5.179   5.125   2.335
40535SOL    HW123612   5.239   5.173  13.317
40535SOL    HW223613   5.099   5.115   2.283
40536SOL     OW23614   7.238   3.774   7.843
40536SOL    HW123615   7.217   3.843  18.820
40536SOL    HW223616  -3.726  14.769  -3.235
40537SOL     OW23617   7.686   1.557   7.036
40537SOL    HW123618   7.713  12.523   6.980
40537SOL    HW223619   7.620   1.520  29.173
40538SOL     OW23620   3.212   2.642  10.357
40538SOL    HW123621   3.219   2.722  10.408
40538SOL    HW223622   3.172  -8.371  10.274
40539SOL     OW23623   1.246   3.526   9.806
40539SOL    HW123624   1.251 -18.646   9.828
40539SOL    HW223625   1.298   3.569   9.875
40540SOL     OW23626   2.166   7.467  -1.192
40540SOL    HW123627   2.144   7.448  -1.101
40540SOL    HW223628  -8.958   7.465  20.841
40541SOL     OW23629   2.223   1.540   7.809
40541SOL    HW123630  13.201  -9.431  -3.255
40541SOL    HW223631   2.279  -9.510   7.733
40542SOL     OW23632   0.937  11.566   0.723
40542SOL    HW123633   0.851  11.528   0.706
40542SOL    HW223634   0.930   0.566   0.810
40543SOL     OW23635   3.097   2.309   4.247
40543SOL    HW123636   3.076  13.440 -17.851
40543SOL    HW223637   3.191   2.309   4.263
40544SOL     OW23638   0.851   6.774   8.413
40544SOL    HW123639 -10.115 -15.317  19.512
40544SOL    HW223640  11.822  -4.228  41.587
40545SOL     OW23641   0.156   3.092  10.514
40545SOL    HW123642   0.212   3.041  10.456
40545SOL    HW223643  22.285   3.100  10.596
40546SOL     OW23644   7.181   5.958   7.960
40546SOL    HW123645   7.122   5.967   7.885
40546SOL    HW223646   7.154 -27.243   8.001
40547SOL     OW23647  10.246   7.803   2.394
40547SOL    HW123648  -0.810  29.818  -8.576
40547SOL    HW223649  21.210   7.796   2.336
40548SOL     OW23650  10.219   5.011  10.038
40548SOL    HW123651  -0.739   5.061  10.042
40548SOL    HW223652  10.176   5.042  20.998
40549SOL     OW23653   8.259   2.675   4.748
40549SOL    HW123654   8.189   2.668  -6.355
40549SOL    HW223655  30.299  -8.391 -50.367
40550SOL     OW23656   0.276   1.952  10.953
40550SOL    HW123657   0.357  -9.122  10.914
40550SOL    HW223658   0.267 -20.176 -11.044
40551SOL     OW23659   5.772   3.875   2.967
40551SOL    HW123660  16.835   3.909 -19.199
40551SOL    HW223661   5.693   3.924   2.991
40552SOL     OW23662  12.325  10.578   5.173
40552SOL    HW123663 -31.782  10.582 -27.864
40552SOL    HW223664  23.349  10.670   5.151
40553SOL     OW23665   7.561   3.406   9.896
40553SOL    HW123666   7.571   3.461   9.974
40553SOL    HW223667  18.634   3.459   9.824
40554SOL     OW23668   2.124   6.095   7.378
40554SOL    HW123669   2.056  28.207   7.437
40554SOL    HW223670  13.223  17.086   7.435
40555SOL     OW23671   3.371   3.360   7.701
40555SOL    HW123672  25.394  14.415   7.626
40555SOL    HW223673   3.423  14.323   7.677
40556SOL     OW23674  10.366   9.142   8.092
40556SOL    HW123675  10.425   9.161   8.165
40556SOL    HW223676  10.288   9.105   8.133
40557SOL     OW23677   5.968   5.221   8.707
40557SOL    HW123678   5.974  -5.733   8.663
40557SOL    HW223679   6.059   5.192   8.715
40558SOL     OW23680   4.556   9.251   2.669
40558SOL    HW123681   4.580   9.324   2.612
40558SOL    HW223682   4.483   9.208   2.625
40559SOL     OW23683   7.833   3.634   2.431
40559SOL    HW123684   7.789   3.552   2.454
40559SOL    HW223685   7.767   3.702   2.448
40560SOL     OW23686   4.086   2.941   5.812
40560SOL    HW123687   4.127  14.014   5.732
40560SOL    HW223688   4.149  13.917   5.847
40561SOL     OW23689   9.666   2.023   4.567
40561SOL    HW123690   9.635   1.939   4.533
40561SOL    HW223691   9.626   2.031   4.654
40562SOL     OW23692   0.537  10.388   8.336
40562SOL    HW123693   0.525  10.398  30.510
40562SOL    HW223694   0.494  10.305   8.316
40563SOL     OW23695   7.417   0.754   7.938
40563SOL    HW123696   7.431  11.700   7.924
40563SOL    HW223697  -3.598   0.795   7.855
40564SOL     OW23698   6.559  10.828  -1.089
40564SOL    HW123699   6.522  10.887  31.964
40564SOL    HW223700   6.541  10.740  -1.123
40565SOL     OW23701  10.341   6.911   4.125
40565SOL    HW123702  10.316   6.890   4.215
40565SOL    HW223703  10.275  17.906  -6.968
40566SOL     OW23704   5.178   0.754   1.998
40566SOL    HW123705  -5.861   0.704 -20.000
40566SOL    HW223706  16.304 -10.245  -9.045
40567SOL     OW23707   3.201  10.470   2.239
40567SOL    HW123708   3.184  10.453   2.147
40567SOL    HW223709   3.117  10.499  -8.765
40568SOL     OW23710   3.692   3.452   5.838
40568SOL    HW123711   3.613   3.498   5.868
40568SOL    HW223712   3.699   3.474   5.745
40569SOL     OW23713   8.974   0.055  12.967
40569SOL    HW123714  19.973  -0.010 -31.249
40569SOL    HW223715   8.900   0.095  13.014
40570SOL     OW23716   8.820   1.343   2.098
40570SOL    HW123717  -2.208   1.249   2.112
40570SOL    HW223718   8.839   1.383   2.183
40571SOL     OW23719   7.284   1.166   7.414
40571SOL    HW123720   7.242   1.243   7.452
40571SOL    HW223721   7.219  12.136  40.544
40572SOL     OW23722   0.843   4.392   0.090
40572SOL    HW123723   0.892  -6.712  11.079
40572SOL    HW223724  34.028  37.573  11.160
40573SOL     OW23725   8.303   3.877   0.141
40573SOL    HW123726   8.384   3.827   0.131
40573SOL    HW223727   8.291   3.885   0.235
40574SOL     OW23728   0.123   1.408   5.544
40574SOL    HW123729   0.028  -9.641   5.548
40574SOL    HW223730   0.152  -9.706  16.532
40575SOL     OW23731   2.536   7.354   6.364
40575SOL    HW123732   2.498   7.435   6.399
40575SOL    HW223733 -30.623  -3.755   6.415
40576SOL     OW23734   7.572   4.838   2.014
40576SOL    HW123735   7.478   4.857   2.018
40576SOL    HW223736   7.610   4.891  13.123
40577SOL     OW23737   6.599   0.377   7.027
40577SOL    HW123738   6.533  11.432   6.960
40577SOL    HW223739   6.663   0.319   6.986
40578SOL     OW23740   0.316   5.300   8.580
40578SOL    HW123741   0.371  27.372   8.502
40578SOL    HW223742  22.435   5.372   8.630
40579SOL     OW23743  -0.902  10.475   4.523
40579SOL    HW123744  -0.966  -0.514   4.572
40579SOL    HW223745  21.132  21.432   4.502
40580SOL     OW23746   9.870  10.907   1.495
40580SOL    HW123747   9.803  -0.093  12.479
40580SOL    HW223748   9.833 -11.257  12.559
40581SOL     OW23749   4.820  10.897   1.446
40581SOL    HW123750   4.805  10.886   1.352
40581SOL    HW223751  15.779  10.867   1.488
40582SOL     OW23752   0.569  -1.780   6.987
40582SOL    HW123753   0.631  42.352  18.095
40582SOL    HW223754   0.524  -1.703   7.023
40583SOL     OW23755   7.858   4.154   8.603
40583SOL    HW123756   7.817   4.145   8.517
40583SOL    HW223757   7.853 -29.052   8.641
40584SOL     OW23758   6.067   0.994   6.087
40584SOL    HW123759   6.123   1.034   6.154
40584SOL    HW223760   6.017   1.067  -4.989
40585SOL     OW23761   0.462   2.554  11.022
40585SOL    HW123762   0.395  -8.443  -0.071
40585SOL    HW223763   0.510 -19.453  11.061
40586SOL     OW23764   4.869   1.151  10.011
40586SOL    HW123765   4.873   1.244  21.028
40586SOL    HW223766  15.815   1.131  -1.029
40587SOL     OW23767   2.178   8.810   9.507
40587SOL    HW123768   2.110   8.877   9.515
40587SOL    HW223769  13.263  19.870  -1.614
40588SOL     OW23770   3.965   2.686   5.885
40588SOL    HW123771  -7.128   2.740   5.827
40588SOL    HW223772  15.006  -8.439   5.843
40589SOL     OW23773   9.533   9.549   0.848
40589SOL    HW123774   9.607   9.575 -10.136
40589SOL    HW223775  20.613   9.493   0.780
40590SOL     OW23776   8.899   1.417   9.326
40590SOL    HW123777   8.894   1.487   9.391
40590SOL    HW223778  19.953   1.463   9.243
40591SOL     OW23779   1.617   8.930   2.269
40591SOL    HW123780   1.657  -2.096   2.355
40591SOL    HW223781   1.691  -2.123  24.288
40592SOL     OW23782   4.503   8.033   6.861
40592SOL    HW123783   4.443  30.087   6.790
40592SOL    HW223784   4.468   7.989   6.938
40593SOL     OW23785   2.405   8.817   3.485
40593SOL    HW123786  13.535   8.820   3.516
40593SOL    HW223787   2.410   8.770   3.401
40594SOL     OW23788   2.984   1.628  10.110
40594SOL    HW123789   2.979   1.644  21.056
40594SOL    HW223790  -8.078   1.535  10.120
40595SOL     OW23791   8.215   9.396   3.128
40595SOL    HW123792   8.146   9.459   3.111
40595SOL    HW223793   8.190   9.354   3.210
40596SOL     OW23794   4.833   0.517   6.745
40596SOL    HW123795   4.851  11.638   6.697
40596SOL    HW223796   4.805   0.546   6.832
40597SOL     OW23797   6.829   9.729   8.908
40597SOL    HW123798   6.845  -1.249   8.980
40597SOL    HW223799   6.749  20.722  19.972
40598SOL     OW23800   9.795  10.072   9.163
40598SOL    HW123801   9.701 -23.032   9.153
40598SOL    HW223802   9.837  10.148   9.123
40599SOL     OW23803   1.656  10.145  10.515
40599SOL    HW123804   1.720  10.216  10.523
40599SOL    HW223805  23.727  10.109  10.603
40600SOL     OW23806   5.960   3.966   9.044
40600SOL    HW123807   5.946   4.054   9.010
40600SOL    HW223808   6.055   3.959  31.134
40601SOL     OW23809   7.880  13.179   1.324
40601SOL    HW123810   7.808   2.086   1.290
40601SOL    HW223811  -3.098 -30.973   1.250
40602SOL     OW23812   6.480   2.892   4.583
40602SOL    HW123813  17.559   2.973  15.589
40602SOL    HW223814  17.428   2.898  15.597
40603SOL     OW23815   2.290   9.104   2.090
40603SOL    HW123816   2.296   9.015   2.123
40603SOL    HW223817   2.371 -12.933   2.119
40604SOL     OW23818   8.836   6.117   8.154
40604SOL    HW123819   8.887  17.128   8.079
40604SOL    HW223820   8.789   6.195  -2.915
40605SOL     OW23821   8.667   1.287   1.673
40605SOL    HW123822   8.698   1.372   1.641
40605SOL    HW223823  -2.420   1.308  12.793
40606SOL     OW23824   7.113   4.168   7.982
40606SOL    HW123825 -15.028  -6.944  30.059
40606SOL    HW223826   7.195   4.129   8.013
40607SOL     OW23827   0.513   0.935   0.089
40607SOL    HW123828   0.480   1.020   0.060
40607SOL    HW223829   0.584  22.995   0.028
40608SOL     OW23830   9.614   4.846   7.796
40608SOL    HW123831   9.518  -6.197  29.872
40608SOL    HW223832   9.642   4.816   7.710
40609SOL     OW23833  11.895   9.540   1.969
40609SOL    HW123834  11.935   9.622   1.998
40609SOL    HW223835 -10.258  -1.513  13.069
40610SOL     OW23836   5.930   8.838   9.839
40610SOL    HW123837   5.998   8.851   9.906
40610SOL    HW223838   5.885  19.798   9.866
40611SOL     OW23839  11.460   3.198   9.588
40611SOL    HW123840  11.472   3.176   9.496
40611SOL    HW223841   0.486  -7.893   9.634
40612SOL     OW23842   6.803   9.028   4.125
40612SOL    HW123843   6.817   9.035  -7.009
40612SOL    HW223844  -4.273   9.112   4.150
40613SOL     OW23845   5.675   0.851   0.082
40613SOL    HW123846   5.699  11.894  11.214
40613SOL    HW223847   5.585   0.881   0.079
40614SOL     OW23848   0.039  10.356   0.072
40614SOL    HW123849  -0.039  10.312   0.104
40614SOL    HW223850  11.115  10.400   0.150
40615SOL     OW23851   9.110   9.849  10.247
40615SOL    HW123852   9.183   9.835  -0.854
40615SOL    HW223853   9.146   9.826  10.332
40616SOL     OW23854   3.072   7.681   9.305
40616SOL    HW123855   2.990 -14.414   9.257
40616SOL    HW223856   3.131  -3.428   9.274
40617SOL     OW23857   7.834  10.853   5.952
40617SOL    HW123858   7.820  10.763 -38.176
40617SOL    HW223859   7.746  10.890 -16.134
40618SOL     OW23860   5.134   3.583   2.614
40618SOL    HW123861   5.165   3.547   2.697
40618SOL    HW223862   5.199  14.595  13.590
40619SOL     OW23863   5.817   9.110   4.724
40619SOL    HW123864   5.785 -13.046   4.771
40619SOL    HW223865   5.773   9.184   4.766
40620SOL     OW23866   3.083   5.845   5.771
40620SOL    HW123867  25.121   5.886   5.695
40620SOL    HW223868   3.136   5.915  -5.230
40621SOL     OW23869   9.555   2.373   7.760
40621SOL    HW123870   9.515  35.547   7.827
40621SOL    HW223871 -12.431   2.393  40.883
40622SOL     OW23872   6.888   3.514   4.365
40622SOL    HW123873   6.937   3.556  15.334
40622SOL    HW223874  -4.220   3.465   4.320
40623SOL     OW23875   7.398   6.669  -1.140
40623SOL    HW123876   7.377   6.576  -1.143
40623SOL    HW223877   7.318  -4.327  20.909
40624SOL     OW23878  11.406   5.969   9.899
40624SOL    HW123879   0.320 -16.071   9.973
40624SOL    HW223880  11.338 -27.191   9.847
40625SOL     OW23881   1.952   7.423   3.450
40625SOL    HW123882   1.991   7.471   3.377
40625SOL    HW223883   1.897   7.488   3.495
40626SOL     OW23884   4.458   5.148   1.281
40626SOL    HW123885 -17.648   5.206   1.353
40626SOL    HW223886  26.480   5.072  12.328
40627SOL     OW23887  11.388   9.209  10.344
40627SOL    HW123888  11.395   9.196  10.250
40627SOL    HW223889   0.438   9.216 -22.744
40628SOL     OW23890   9.678   3.786   4.916
40628SOL    HW123891  20.632   3.754   4.889
40628SOL    HW223892   9.659  -7.174   4.966
40629SOL     OW23893   1.422   1.347   6.525
40629SOL    HW123894   1.430   1.253  -4.526
40629SOL    HW223895   1.483   1.368   6.596
40630SOL     OW23896   4.730   2.543  14.482
40630SOL    HW123897  -6.276   2.536 -51.844
40630SOL    HW223898  -6.231   2.543  14.537
40631SOL     OW23899  -0.042   2.386   9.504
40631SOL    HW123900  22.059   2.295   9.486
40631SOL    HW223901  11.082  13.469   9.516
40632SOL     OW23902   1.515   2.109   6.090
40632SOL    HW123903  12.559  -8.957   6.182
40632SOL    HW223904   1.423   2.095   6.065
40633SOL     OW23905   8.290   9.192   2.510
40633SOL    HW123906   8.302   9.157   2.421
40633SOL    HW223907   8.250   9.278   2.497
40634SOL     OW23908   8.145   2.175   4.571
40634SOL    HW123909   8.067   2.230  15.603
40634SOL    HW223910   8.145   2.145  15.701
40635SOL     OW23911   0.726   1.163  11.284
40635SOL    HW123912   0.735   1.068 -10.784
40635SOL    HW223913 -10.224   1.195   0.234
40636SOL     OW23914   6.163   2.448   7.819
40636SOL    HW123915  -4.929  13.555  -3.179
40636SOL    HW223916   6.253   2.463   7.850
40637SOL     OW23917  10.686   7.766   0.311
40637SOL    HW123918  10.639  29.809  11.426
40637SOL    HW223919  10.659  40.831   0.237
40638SOL     OW23920   0.444  10.146   6.509
40638SOL    HW123921  11.464  21.153   6.421
40638SOL    HW223922   0.428  10.071  17.606
40639SOL     OW23923   4.117   7.932   7.587
40639SOL    HW123924   4.147   7.873   7.656
40639SOL    HW223925   4.027   7.954   7.611
40640SOL     OW23926   7.229   6.802  -1.412
40640SOL    HW123927  -3.887   6.784  -1.467
40640SOL    HW223928   7.298   6.828  53.725
40641SOL     OW23929   4.863   6.177   3.831
40641SOL    HW123930  15.878   6.242   3.897
40641SOL    HW223931  15.909   6.227   3.750
40642SOL     OW23932  11.958   1.872   5.342
40642SOL    HW123933  12.034   1.871   5.284
40642SOL    HW223934 -10.092 -20.254   5.420
40643SOL     OW23935   4.391   5.376   8.587
40643SOL    HW123936   4.377   5.413   8.500
40643SOL    HW223937 -28.775   5.435   8.646
40644SOL     OW23938   5.355   0.188   4.273
40644SOL    HW123939   5.381   0.212  -6.678
40644SOL    HW223940  16.477   0.166   4.229
40645SOL     OW23941   3.143   2.138   5.313
40645SOL    HW123942   3.129   2.231   5.333
40645SOL    HW223943   3.168 -19.980   5.398
40646SOL     OW23944   1.292   4.354   3.329
40646SOL    HW123945   1.357   4.322   3.392
40646SOL    HW223946   1.210   4.314   3.359
40647SOL     OW23947   8.841   1.199   2.380
40647SOL    HW123948   8.899   1.169   2.311
40647SOL    HW223949   8.900   1.236   2.446
40648SOL     OW23950   4.094   4.375   2.243
40648SOL    HW123951   4.117   4.352   2.332
40648SOL    HW223952   4.126  37.583   2.232
40649SOL     OW23953   9.065   1.358   1.585
40649SOL    HW123954   9.020   1.358 -20.410
40649SOL    HW223955  20.087   1.445   1.548
40650SOL     OW23956   8.316   6.954   4.325
40650SOL    HW123957   8.349   6.902  -6.641
40650SOL    HW223958   8.228 -26.138   4.351
40651SOL     OW23959   1.714   7.178   0.569
40651SOL    HW123960   1.714   7.220  11.523
40651SOL    HW223961  -9.381  -3.939   0.557
40652SOL     OW23962   3.550  10.484   0.061
40652SOL    HW123963   3.618  10.416  11.100
40652SOL    HW223964   3.575 -11.537   0.132
40653SOL     OW23965   7.923   4.250   6.505
40653SOL    HW123966 -14.126   4.336  17.513
40653SOL    HW223967   7.891   4.206  28.505
40654SOL     OW23968  10.010   6.873  11.924
40654SOL    HW123969  21.064  17.875  11.837
40654SOL    HW223970  10.086  17.968 -21.179
40655SOL     OW23971   2.774   4.342   6.170
40655SOL    HW123972   2.795  -6.675  17.301
40655SOL    HW223973  13.899   4.333   6.128
40656SOL     OW23974   3.821   2.386   7.636
40656SOL    HW123975   3.861  24.519   7.568
40656SOL    HW223976   3.738   2.431  18.695
40657SOL     OW23977   6.940   9.127   3.208
40657SOL    HW123978   6.850   9.137   3.179
40657SOL    HW223979  29.024   9.038   3.243
40658SOL     OW23980   6.220   0.397   3.621
40658SOL    HW123981   6.212   0.331  -7.488
40658SOL    HW223982   6.279   0.463   3.585
40659SOL     OW23983   9.565   4.557   5.248
40659SOL    HW123984   9.609  15.610   5.332
40659SOL    HW223985   9.503  -6.554   5.264
40660SOL     OW23986   8.743   9.744   3.974
40660SOL    HW123987   8.717  20.719   4.040
40660SOL    HW223988   8.673 -23.376  14.949
40661SOL     OW23989   4.761   2.920   5.805
40661SOL    HW123990  15.855 -19.234  16.821
40661SOL    HW223991  37.893   2.931   5.899
40662SOL     OW23992   2.882   6.516   1.383
40662SOL    HW123993 -19.247  39.669  23.388
40662SOL    HW223994   2.819   6.513   1.455
40663SOL     OW23995   9.479   5.390  10.947
40663SOL    HW123996   9.518   5.369  -0.177
40663SOL    HW223997   9.393  38.544  21.966
40664SOL     OW23998   2.638   7.409   9.221
40664SOL    HW123999   2.647   7.487   9.277
40664SOL    HW224000   2.552  18.413   9.242
40665SOL     OW24001   1.510   3.524  10.446
40665SOL    HW124002   1.427   3.540  10.401
40665SOL    HW224003   1.573   3.507  -0.664
40666SOL     OW24004   1.130   5.851  11.252
40666SOL    HW124005  -9.907   5.869  11.346
40666SOL    HW224006   1.222   5.848   0.185
40667SOL     OW24007   0.236   9.792  10.383
40667SOL    HW124008   0.286  -1.314  10.430
40667SOL    HW224009  11.193   9.798  10.431
40668SOL     OW24010   8.614   1.187   0.405
40668SOL    HW124011   8.535   1.136  11.427
40668SOL    HW224012   8.614   1.199  22.579
40669SOL     OW24013   9.080   2.877   9.164
40669SOL    HW124014   9.046  -8.245  20.239
40669SOL    HW224015   9.151  -8.190   9.105
40670SOL     OW24016   2.811   8.139   0.897
40670SOL    HW124017   2.894   8.182   0.918
40670SOL    HW224018   2.744   8.205   0.914
40671SOL     OW24019   8.142   0.377   2.754
40671SOL    HW124020   8.232   0.411  13.791
40671SOL    HW224021  30.225   0.295  24.784
40672SOL     OW24022  11.274   2.631   0.199
40672SOL    HW124023   0.198  24.704   0.287
40672SOL    HW224024  11.286   2.541   0.171
40673SOL     OW24025   0.081   7.255   5.622
40673SOL    HW124026   0.147   7.307  16.706
40673SOL    HW224027   0.019   7.319  16.626
40674SOL     OW24028   0.738   8.722   4.573
40674SOL    HW124029   0.665   8.659   4.571
40674SOL    HW224030   0.763   8.725   4.665
40675SOL     OW24031   4.738   9.950   8.739
40675SOL    HW124032  15.727  -1.023   8.693
40675SOL    HW224033  15.793  -1.157   8.673
40676SOL     OW24034   3.419   6.318   0.742
40676SOL    HW124035   3.339 -26.762   0.706
40676SOL    HW224036   3.429  -4.679 -10.212
40677SOL     OW24037   2.966   9.679  10.389
40677SOL    HW124038   2.892   9.643  -0.699
40677SOL    HW224039 -19.149  31.782  10.475
40678SOL     OW24040   2.081  -0.065   4.817
40678SOL    HW124041   2.032  22.028  -6.141
40678SOL    HW224042  24.114  10.903   4.773
40679SOL     OW24043   6.832   6.998   5.424
40679SOL    HW124044 -15.336   7.007 -16.621
40679SOL    HW224045   6.862   7.089   5.415
40680SOL     OW24046   8.267   5.908  11.084
40680SOL    HW124047  19.317  16.968 -10.902
40680SOL    HW224048  -2.823   5.981 -22.070
40681SOL     OW24049   8.732   1.907   4.766
40681SOL    HW124050   8.698   1.994   4.747
40681SOL    HW224051   8.654   1.851  15.805
40682SOL     OW24052   7.191   5.822  -0.099
40682SOL    HW124053   7.250   5.751  10.962
40682SOL    HW224054   7.158  16.840  10.853
40683SOL     OW24055   9.488  -0.120   8.615
40683SOL    HW124056   9.477  10.902   8.709
40683SOL    HW224057   9.462  -0.029   8.605
40684SOL     OW24058   9.572   3.392   6.566
40684SOL    HW124059   9.497 -18.734   6.601
40684SOL    HW224060   9.644   3.371   6.626
40685SOL     OW24061  11.465   5.309   7.189
40685SOL    HW124062  11.529   5.379   7.173
40685SOL    HW224063   0.438   5.248   7.116
40686SOL     OW24064   6.826   2.961   4.107
40686SOL    HW124065   6.920   2.957   4.123
40686SOL    HW224066   6.791 -19.199  15.184
40687SOL     OW24067   9.619   4.561  10.638
40687SOL    HW124068   9.634   4.655  10.629
40687SOL    HW224069   9.700   4.527  -0.363
40688SOL     OW24070   5.480   6.927   2.262
40688SOL    HW124071   5.504   7.007   2.216
40688SOL    HW224072   5.466   6.863   2.193
40689SOL     OW24073   8.334   7.416   0.031
40689SOL    HW124074  -2.695  -3.590  22.200
40689SOL    HW224075   8.362   7.325  11.076
40690SOL     OW24076   4.905   6.437   7.774
40690SOL    HW124077  15.975  -4.632   7.860
40690SOL    HW224078  15.854   6.407  18.809
40691SOL     OW24079  10.814  10.113   5.941
40691SOL    HW124080  10.909  10.120  -5.108
40691SOL    HW224081  -0.246  10.170   6.015
40692SOL     OW24082   5.654   8.472   3.669
40692SOL    HW124083   5.662  -2.487  14.760
40692SOL    HW224084   5.675   8.499   3.580
40693SOL     OW24085  -0.391   7.102   0.897
40693SOL    HW124086  -0.440   7.107   0.979
40693SOL    HW224087  32.756   7.011  34.010
40694SOL     OW24088   9.901   9.701   4.226
40694SOL    HW124089   9.887   9.783   4.273
40694SOL    HW224090   9.968   9.721   4.161
40695SOL     OW24091  11.875   8.666   8.739
40695SOL    HW124092   0.793   8.717   8.808
40695SOL    HW224093 -43.236  -2.334   8.729
40696SOL     OW24094   2.002   6.228   5.213
40696SOL    HW124095   2.004   6.225 -16.962
40696SOL    HW224096  12.970   6.288   5.234
40697SOL     OW24097   9.589   7.535   0.234
40697SOL    HW124098   9.648 -14.493  22.368
40697SOL    HW224099   9.525  18.637   0.202
40698SOL     OW24100   8.533   0.930   6.834
40698SOL    HW124101  -2.457   0.926  -4.287
40698SOL    HW224102   8.598   0.910 -15.177
40699SOL     OW24103   2.582   1.389   0.782
40699SOL    HW124104   2.543   1.464   0.826
40699SOL    HW224105  -8.515   1.315 -10.236
40700SOL     OW24106  10.823   6.459   2.552
40700SOL    HW124107  10.915   6.481   2.540
40700SOL    HW224108  10.781  39.661   2.574
40701SOL     OW24109   3.127   4.330   0.737
40701SOL    HW124110  -7.958   4.319   0.821
40701SOL    HW224111   3.158   4.420   0.738
40702SOL     OW24112   0.828   8.858   6.213
40702SOL    HW124113   0.804   8.879   6.303
40702SOL    HW224114   0.902  19.955  17.233
40703SOL     OW24115   3.516   7.519   2.124
40703SOL    HW124116   3.596   7.536 -19.905
40703SOL    HW224117   3.534   7.438   2.076
40704SOL     OW24118   0.034   3.645   9.101
40704SOL    HW124119   0.026   3.551   9.113
40704SOL    HW224120   0.108   3.656  20.080
40705SOL     OW24121   9.847   4.931   5.839
40705SOL    HW124122   9.861  27.100  16.909
40705SOL    HW224123   9.857  27.016   5.744
40706SOL     OW24124   5.002   0.612   6.105
40706SOL    HW124125   5.075 -10.488 -27.028
40706SOL    HW224126 -17.089  22.692  17.240
40707SOL     OW24127   3.183   8.812   7.113
40707SOL    HW124128   3.250   8.875  -3.954
40707SOL    HW224129   3.209 -13.349 -15.007
40708SOL     OW24130   1.395   2.822   5.705
40708SOL    HW124131   1.427   2.862   5.624
40708SOL    HW224132   1.300   2.836   5.703
40709SOL     OW24133   7.763   4.924   5.237
40709SOL    HW124134   7.814   4.865  16.332
40709SOL    HW224135  51.873  -6.174  16.218
40710SOL     OW24136   8.996   7.465   8.929
40710SOL    HW124137   8.979   7.498   8.841
40710SOL    HW224138   8.940  18.428   8.938
40711SOL     OW24139   9.599   5.834   2.089
40711SOL    HW124140   9.658   5.910   2.096
40711SOL    HW224141   9.656   5.758   2.101
40712SOL     OW24142   9.839   7.093   6.167
40712SOL    HW124143   9.861   7.069  17.296
40712SOL    HW224144   9.802  18.221   6.174
40713SOL     OW24145   1.181  10.132   2.308
40713SOL    HW124146  12.293  10.091 -19.820
40713SOL    HW224147   1.134  10.058   2.348
40714SOL     OW24148   3.368  10.936   0.843
40714SOL    HW124149  -7.755  10.941   0.891
40714SOL    HW224150   3.426  10.887   0.901
40715SOL     OW24151  10.127   1.083   7.136
40715SOL    HW124152  -0.980   1.124   7.082
40715SOL    HW224153  -0.956   1.060   7.218
40716SOL     OW24154   5.829   4.374   7.112
40716SOL    HW124155   5.913  15.447  -3.895
40716SOL    HW224156   5.778  15.396   7.192
40717SOL     OW24157   7.959   4.808   5.481
40717SOL    HW124158  18.950   4.766   5.552
40717SOL    HW224159   8.012   4.874   5.525
40718SOL     OW24160   3.879   5.899   3.683
40718SOL    HW124161   3.874 -49.377   3.737
40718SOL    HW224162  25.973 -16.109   3.746
40719SOL     OW24163   1.764   3.174   4.606
40719SOL    HW124164   1.719   3.126   4.537
40719SOL    HW224165   1.703  -7.796  -6.408
40720SOL     OW24166   6.806   9.174   5.874
40720SOL    HW124167   6.811   9.217  16.999
40720SOL    HW224168   6.802   9.080  16.934
40721SOL     OW24169  10.172   6.844  10.442
40721SOL    HW124170  21.210  17.936  10.361
40721SOL    HW224171  10.251 -15.206 -11.592
40722SOL     OW24172   6.853   4.379   4.336
40722SOL    HW124173   6.876   4.435  26.342
40722SOL    HW224174   6.839   4.292  -6.743
40723SOL     OW24175   6.118   7.044   2.077
40723SOL    HW124176   6.212  -3.986   2.093
40723SOL    HW224177  -4.957   7.013   2.161
40724SOL     OW24178   9.520   7.101   2.713
40724SOL    HW124179 -34.686   7.058   2.642
40724SOL    HW224180   9.512   7.195   2.693
40725SOL     OW24181   2.114   2.404   5.153
40725SOL    HW124182  35.192 -19.650   5.236
40725SOL    HW224183   2.112   2.308   5.153
40726SOL     OW24184   9.373   2.739   1.869
40726SOL    HW124185  -1.713   2.745 -20.127
40726SOL    HW224186   9.417   2.823   1.860
40727SOL     OW24187   2.349   3.359   2.641
40727SOL    HW124188   2.327   3.434   2.586
40727SOL    HW224189  -8.689  -7.755   2.579
40728SOL     OW24190   3.762   9.981   5.377
40728SOL    HW124191  14.853   9.986  16.497
40728SOL    HW224192   3.825   9.958   5.309
40729SOL     OW24193   6.876   9.852   8.671
40729SOL    HW124194  -4.150   9.823  -2.278
40729SOL    HW224195   6.782  20.910  30.745
40730SOL     OW24196   8.054   8.479  10.187
40730SOL    HW124197  -3.029  19.447  10.141
40730SOL    HW224198  -2.945   8.438  10.263
40731SOL     OW24199   8.744   1.980   2.230
40731SOL    HW124200   8.753   2.069   2.265
40731SOL    HW224201   8.655 -20.125   2.253
40732SOL     OW24202   8.041   7.352   6.434
40732SOL    HW124203   8.016   7.360  17.381
40732SOL    HW224204  19.161   7.300  28.512
40733SOL     OW24205   4.717   0.422   9.707
40733SOL    HW124206   4.755   0.458   9.627
40733SOL    HW224207  15.684   0.481   9.728
40734SOL     OW24208   3.964  11.619   3.589
40734SOL    HW124209   4.041  11.645   3.640
40734SOL    HW224210 -40.181   0.620  -7.536
40735SOL     OW24211   6.537   6.835   9.738
40735SOL    HW124212   6.530   6.920   9.781
40735SOL    HW224213  28.708   6.811   9.746
40736SOL     OW24214   6.833  10.514   6.497
40736SOL    HW124215  17.921 -11.492   6.459
40736SOL    HW224216  28.930  -0.600   6.440
40737SOL     OW24217   8.392   3.294  10.445
40737SOL    HW124218  19.458  14.278  10.372
40737SOL    HW224219   8.308  25.410  10.418
40738SOL     OW24220  10.809   5.364   7.153
40738SOL    HW124221  10.821   5.324  18.279
40738SOL    HW224222  10.871   5.437   7.151
40739SOL     OW24223   1.856   9.225   3.792
40739SOL    HW124224   1.943   9.233   3.830
40739SOL    HW224225  12.902  20.189   3.733
40740SOL     OW24226   2.037   2.249  10.672
40740SOL    HW124227   1.980 -19.785 -11.345
40740SOL    HW224228 -19.956  -8.789  10.713
40741SOL     OW24229   2.034   7.682   5.341
40741SOL    HW124230   1.957   7.692   5.397
40741SOL    HW224231   2.095   7.630   5.394
40742SOL     OW24232   2.894  10.921   0.211
40742SOL    HW124233   2.834  -0.180   0.252
40742SOL    HW224234  13.979  10.871  44.302
40743SOL     OW24235   6.285   2.916   4.382
40743SOL    HW124236   6.311  35.967   4.319
40743SOL    HW224237   6.221  14.009   4.336
40744SOL     OW24238   0.620   0.841   2.850
40744SOL    HW124239   0.524   0.843   2.842
40744SOL    HW224240   0.642   0.749   2.839
40745SOL     OW24241   9.259   6.065   6.511
40745SOL    HW124242   9.213   6.059  -4.444
40745SOL    HW224243   9.195  -4.934   6.452
40746SOL     OW24244   6.030  10.475   1.928
40746SOL    HW124245   5.960  10.469   1.862
40746SOL    HW224246   6.108 -11.580   1.877
40747SOL     OW24247   2.030   3.227   5.665
40747SOL    HW124248  -9.062   3.179   5.602
40747SOL    HW224249   2.048   3.163  38.853
40748SOL     OW24250   3.240   8.193   3.992
40748SOL    HW124251   3.186   8.255   3.944
40748SOL    HW224252   3.190  19.151   3.989
40749SOL     OW24253   4.495   2.185   3.592
40749SOL    HW124254  -6.534  13.278   3.513
40749SOL    HW224255  15.624   2.174   3.625
40750SOL     OW24256   6.162   8.751   4.649
40750SOL    HW124257  17.181   8.842   4.627
40750SOL    HW224258   6.104   8.699   4.593
40751SOL     OW24259   7.139   5.094   8.343
40751SOL    HW124260  -3.864   5.058   8.263
40751SOL    HW224261   7.140   5.189   8.330
40752SOL     OW24262   2.147   4.407   4.294
40752SOL    HW124263   2.167   4.313   4.292
40752SOL    HW224264   2.067   4.416   4.242
40753SOL     OW24265   5.981   4.616   8.274
40753SOL    HW124266  -5.070   4.634   8.181
40753SOL    HW224267  -5.046   4.701  -2.725
40754SOL     OW24268   3.491   6.545   0.929
40754SOL    HW124269   3.546   6.609  12.014
40754SOL    HW224270  25.507   6.517   0.995
40755SOL     OW24271   3.292   8.532   6.702
40755SOL    HW124272   3.344  30.679   6.660
40755SOL    HW224273   3.335   8.450   6.678
40756SOL     OW24274   7.406   1.396   6.102
40756SOL    HW124275   7.443   1.313  28.210
40756SOL    HW224276  29.559  23.537  17.144
40757SOL     OW24277  10.354   3.511   4.724
40757SOL    HW124278  10.376  14.546  15.856
40757SOL    HW224279  10.334  -7.618   4.699
40758SOL     OW24280   3.225   4.686   3.033
40758SOL    HW124281   3.237   4.642   3.117
40758SOL    HW224282   3.148  26.820  -7.994
40759SOL     OW24283   5.399   7.442   6.326
40759SOL    HW124284   5.490  -3.569   6.335
40759SOL    HW224285  16.422   7.391   6.405
40760SOL     OW24286   8.078   7.287  11.593
40760SOL    HW124287   8.140  -3.683   0.573
40760SOL    HW224288   8.107   7.213  11.646
40761SOL     OW24289   6.657   9.797   5.932
40761SOL    HW124290   6.612   9.730   5.879
40761SOL    HW224291   6.640   9.771 -16.057
40762SOL     OW24292   2.788   1.664   7.507
40762SOL    HW124293   2.731   1.725  -3.581
40762SOL    HW224294   2.738   1.643   7.585
40763SOL     OW24295   6.693   8.633   5.558
40763SOL    HW124296  50.840   8.556 -16.465
40763SOL    HW224297   6.680  19.747   5.617
40764SOL     OW24298   1.669   5.476   1.920
40764SOL    HW124299  23.721 -16.678   1.974
40764SOL    HW224300   1.725   5.437   1.853
40765SOL     OW24301   5.413   5.180   9.187
40765SOL    HW124302   5.381  16.268   9.263
40765SOL    HW224303   5.493   5.226   9.162
40766SOL     OW24304   3.576   2.807   2.438
40766SOL    HW124305   3.659   2.811  35.508
40766SOL    HW224306   3.597   2.757   2.517
40767SOL     OW24307   9.322   7.821   5.454
40767SOL    HW124308 -12.719   7.754   5.398
40767SOL    HW224309   9.395  -3.160   5.476
40768SOL     OW24310   9.817   9.180  11.532
40768SOL    HW124311   9.898 -12.924 -10.503
40768SOL    HW224312   9.834   9.161  11.439
40769SOL     OW24313  10.371   6.328   1.677
40769SOL    HW124314  32.543   6.320   1.699
40769SOL    HW224315 -11.732   6.242   1.642
40770SOL     OW24316   4.343   1.430   9.607
40770SOL    HW124317   4.306  12.556  -1.450
40770SOL    HW224318   4.401  23.492   9.533
40771SOL     OW24319   7.164   2.500   5.838
40771SOL    HW124320   7.176   2.592   5.862
40771SOL    HW224321 -14.974   2.502   5.762
40772SOL     OW24322   2.961   6.071   5.279
40772SOL    HW124323  14.014   6.006   5.210
40772SOL    HW224324 -19.213   6.069 -16.783
40773SOL     OW24325   4.406   4.225   9.935
40773SOL    HW124326   4.376   4.159   9.997
40773SOL    HW224327   4.381  -6.731  -1.066
40774SOL     OW24328   8.040   0.285  12.665
40774SOL    HW124329   8.018   0.277 -42.440
40774SOL    HW224330 -13.949  11.293 -20.460
40775SOL     OW24331   8.092   5.928  10.810
40775SOL    HW124332   8.039   5.880  10.747
40775SOL    HW224333   8.158   5.865  10.839
40776SOL     OW24334   7.078   1.003   0.745
40776SOL    HW124335 -26.121  11.994   0.729
40776SOL    HW224336   7.121   0.954  11.856
40777SOL     OW24337  10.434   0.370   9.910
40777SOL    HW124338  -0.538  11.342 -23.208
40777SOL    HW224339 -11.641  22.487   9.822
40778SOL     OW24340   9.251   2.251   4.165
40778SOL    HW124341   9.273  -8.863   4.108
40778SOL    HW224342 -12.812   2.219   4.253
40779SOL     OW24343   7.948   8.890   6.385
40779SOL    HW124344  18.969  30.988  -4.746
40779SOL    HW224345  18.901   8.878  28.504
40780SOL     OW24346  10.690   3.465   2.165
40780SOL    HW124347  10.747   3.481   2.240
40780SOL    HW224348  10.602   3.486   2.196
40781SOL     OW24349   1.253   8.442   9.808
40781SOL    HW124350   1.194 -13.712   9.813
40781SOL    HW224351   1.270   8.466   9.900
40782SOL     OW24352   6.842   7.255   1.736
40782SOL    HW124353  -4.234   7.168   1.719
40782SOL    HW224354  40.055   7.244   1.723
40783SOL     OW24355   8.232   3.443   6.143
40783SOL    HW124356  19.354   3.398  17.196
40783SOL    HW224357 -24.883   3.473   6.052
40784SOL     OW24358   3.476   6.812  -0.964
40784SOL    HW124359  14.560   6.763 -12.073
40784SOL    HW224360  14.582   6.872  43.228
40785SOL     OW24361   1.491   4.543   5.532
40785SOL    HW124362   1.471   4.587 -27.669
40785SOL    HW224363   1.522   4.613   5.590
40786SOL     OW24364   4.012   5.004   5.137
40786SOL    HW124365   4.105   5.006   5.117
40786SOL    HW224366   3.997 -17.164  -5.869
40787SOL     OW24367  -1.617   4.747  -0.724
40787SOL    HW124368  31.470  -6.363  21.411
40787SOL    HW224369  -1.586  -6.225  -0.663
40788SOL     OW24370  10.261   9.328   0.230
40788SOL    HW124371  10.211  20.287  11.255
40788SOL    HW224372  -0.819   9.368  11.347
40789SOL     OW24373  -0.266   7.880  -0.054
40789SOL    HW124374  32.882   7.960  10.941
40789SOL    HW224375  21.751   7.912  11.051
40790SOL     OW24376   4.258   1.057   3.873
40790SOL    HW124377  37.320  -9.907  -7.152
40790SOL    HW224378   4.249   1.038 -18.299
40791SOL     OW24379   2.898   4.430   7.964
40791SOL    HW124380   2.870   4.358  18.947
40791SOL    HW224381   2.974   4.468  18.959
40792SOL     OW24382   2.764   0.781   8.567
40792SOL    HW124383   2.757   0.847   8.637
40792SOL    HW224384   2.852  22.872   8.532
40793SOL     OW24385   5.602   3.534   0.746
40793SOL    HW124386  -5.370  -7.573   0.744
40793SOL    HW224387   5.637   3.601 -10.235
40794SOL     OW24388   5.029  -1.132   8.996
40794SOL    HW124389 -16.986  20.949   8.925
40794SOL    HW224390   4.961  -1.070   8.969
40795SOL     OW24391   6.546   6.251   6.167
40795SOL    HW124392   6.544  17.196   6.154
40795SOL    HW224393 -26.634  -4.773   6.239
40796SOL     OW24394   3.331   6.785   3.055
40796SOL    HW124395   3.422 -26.355   3.035
40796SOL    HW224396   3.289   6.794   2.970
40797SOL     OW24397  -0.462   2.698  -0.204
40797SOL    HW124398  -0.477  24.768  10.930
40797SOL    HW224399  10.516   2.637  10.796
40798SOL     OW24400   7.773   0.456   4.685
40798SOL    HW124401 -14.349   0.374   4.663
40798SOL    HW224402   7.797   0.447   4.777
40799SOL     OW24403   1.146   9.124  10.358
40799SOL    HW124404   1.079  -1.930  10.291
40799SOL    HW224405  -9.817   9.076  10.326
40800SOL     OW24406   4.074   0.318   2.630
40800SOL    HW124407  15.057   0.364   2.568
40800SOL    HW224408   4.044   0.227   2.627
40801SOL     OW24409  10.003   9.306   4.788
40801SOL    HW124410   9.912   9.315   4.760
40801SOL    HW224411  10.003   9.330   4.880
40802SOL     OW24412   6.339   6.511   9.519
40802SOL    HW124413  17.371   6.536  -1.428
40802SOL    HW224414  28.389   6.588 -12.609
40803SOL     OW24415  -0.023   9.944   7.560
40803SOL    HW124416   0.059  -1.058   7.527
40803SOL    HW224417  44.072  10.015   7.553
40804SOL     OW24418   8.314   1.932   2.704
40804SOL    HW124419   8.348 -20.173  24.698
40804SOL    HW224420  -2.791   1.865   2.725
40805SOL     OW24421   6.486  -0.078   0.471
40805SOL    HW124422   6.490  -0.146   0.404
40805SOL    HW224423   6.455  11.039   0.425
40806SOL     OW24424   4.449   3.749   9.995
40806SOL    HW124425  -6.617  -7.203  10.023
40806SOL    HW224426   4.443  14.790 -12.180
40807SOL     OW24427   5.972   2.229   4.240
40807SOL    HW124428  -5.160   2.245  -6.783
40807SOL    HW224429   5.985   2.137   4.262
40808SOL     OW24430   2.642   2.210   4.792
40808SOL    HW124431   2.557   2.232   4.830
40808SOL    HW224432  -8.404  13.156   4.771
40809SOL     OW24433   5.510   2.735   2.870
40809SOL    HW124434   5.526   2.827  -8.190
40809SOL    HW224435   5.437   2.710  -8.225
40810SOL     OW24436   5.575   2.569   9.880
40810SOL    HW124437   5.664   2.589   9.905
40810SOL    HW224438   5.575   2.575   9.784
40811SOL     OW24439   6.161   3.851   8.821
40811SOL    HW124440  17.168   3.774   8.774
40811SOL    HW224441   6.108  26.003   8.788
40812SOL     OW24442   3.520   0.463   3.409
40812SOL    HW124443   3.437   0.495   3.444
40812SOL    HW224444   3.566   0.428  14.525
40813SOL     OW24445  10.072   0.096  10.752
40813SOL    HW124446  10.139   0.045  10.708
40813SOL    HW224447  10.108   0.185  -0.283
40814SOL     OW24448   7.094   5.342   3.538
40814SOL    HW124449   7.177  16.421   3.508
40814SOL    HW224450   7.072  49.438   3.469
40815SOL     OW24451   1.318   8.233   5.730
40815SOL    HW124452   1.391   8.182   5.766
40815SOL    HW224453   1.352 -13.757   5.724
40816SOL     OW24454   7.562   7.187   1.790
40816SOL    HW124455   7.627   7.255   1.769
40816SOL    HW224456   7.579   7.118   1.726
40817SOL     OW24457   1.666   5.262   3.726
40817SOL    HW124458   1.612   5.318   3.782
40817SOL    HW224459   1.678   5.313   3.646
40818SOL     OW24460   1.832   2.606   7.057
40818SOL    HW124461   1.913   2.615  18.046
40818SOL    HW224462   1.841   2.669   7.128
40819SOL     OW24463   7.083   9.099   5.747
40819SOL    HW124464   6.990  20.118   5.754
40819SOL    HW224465 -14.980  20.202  27.896
40820SOL     OW24466   5.028   3.104   1.288
40820SOL    HW124467   4.955  36.161   1.299
40820SOL    HW224468   5.104  14.088   1.272
40821SOL     OW24469   2.384   4.391  10.787
40821SOL    HW124470  13.387   4.377  10.874
40821SOL    HW224471   2.477   4.407  10.803
40822SOL     OW24472  11.712   3.729   0.394
40822SOL    HW124473 -10.426   3.802   0.411
40822SOL    HW224474  11.746   3.746   0.305
40823SOL     OW24475   1.040   9.966   5.175
40823SOL    HW124476   1.002   9.896   5.229
40823SOL    HW224477   1.121   9.988   5.220
40824SOL     OW24478   8.467   2.584  10.512
40824SOL    HW124479   8.389   2.535  10.486
40824SOL    HW224480  19.578   2.521  10.508
40825SOL     OW24481   1.637   9.808   7.662
40825SOL    HW124482  -9.362  20.760 -14.423
40825SOL    HW224483   1.553   9.793  -3.334
40826SOL     OW24484   2.714   2.749   9.604
40826SOL    HW124485  -8.253   2.810 -12.485
40826SOL    HW224486  -8.365  -8.269 -12.391
40827SOL     OW24487   5.955   1.592   9.545
40827SOL    HW124488   5.904   1.608  20.506
40827SOL    HW224489  27.971   1.560  20.649
40828SOL     OW24490   2.325   1.670   8.885
40828SOL    HW124491   2.254   1.732  -2.170
40828SOL    HW224492   2.405  12.761   8.878
40829SOL     OW24493  10.118   7.907   8.250
40829SOL    HW124494  10.036   7.949   8.277
40829SOL    HW224495 -22.933   7.954   8.298
40830SOL     OW24496   2.262   3.773   6.076
40830SOL    HW124497   2.319  25.866   6.151
40830SOL    HW224498   2.319   3.782   6.000
40831SOL     OW24499   3.835   5.871  -1.144
40831SOL    HW124500   3.885   5.932   9.950
40831SOL    HW224501   3.900   5.807   9.867
40832SOL     OW24502   8.687   3.824   1.359
40832SOL    HW124503  -2.312   3.793   1.440
40832SOL    HW224504   8.735   3.904   1.337
40833SOL     OW24505   9.433   0.993   5.883
40833SOL    HW124506   9.419  45.228   5.827
40833SOL    HW224507   9.470  23.006   5.823
40834SOL     OW24508   3.357   0.489   3.638
40834SOL    HW124509   3.308   0.409   3.656
40834SOL    HW224510   3.363   0.533   3.723
40835SOL     OW24511   0.892   6.745   9.664
40835SOL    HW124512   0.964   6.808   9.661
40835SOL    HW224513   0.823   6.790   9.713
40836SOL     OW24514   0.096   3.161  10.891
40836SOL    HW124515  22.159  14.281  10.841
40836SOL    HW224516   0.134  -7.848  10.974
40837SOL     OW24517   6.418   1.355   3.250
40837SOL    HW124518   6.504   1.313   3.256
40837SOL    HW224519   6.436   1.448   3.267
40838SOL     OW24520   5.930   3.243   4.507
40838SOL    HW124521   5.842   3.223  15.514
40838SOL    HW224522   5.968   3.300  26.520
40839SOL     OW24523   4.867   2.534  10.869
40839SOL    HW124524   4.788   2.578  10.837
40839SOL    HW224525  15.926 -19.504  10.952
40840SOL     OW24526   5.188   7.352  10.977
40840SOL    HW124527   5.104   7.312  10.998
40840SOL    HW224528   5.244   7.279  10.949
40841SOL     OW24529   4.805   9.734   0.594
40841SOL    HW124530   4.784   9.822   0.562
40841SOL    HW224531 -17.186   9.743   0.632
40842SOL     OW24532   1.249  10.774   7.503
40842SOL    HW124533  12.281  10.863  29.547
40842SOL    HW224534  -9.716  10.736   7.457
40843SOL     OW24535   9.233   5.964  10.941
40843SOL    HW124536  -1.892   5.928  -0.076
40843SOL    HW224537  20.336 -27.212 -11.093
40844SOL     OW24538   6.407   4.144   7.338
40844SOL    HW124539  -4.650   4.054  18.404
40844SOL    HW224540   6.501   4.154   7.348
40845SOL     OW24541   3.033   9.522   6.177
40845SOL    HW124542   3.121   9.518  -4.825
40845SOL    HW224543  -8.058   9.463   6.231
40846SOL     OW24544   3.226   1.155   1.892
40846SOL    HW124545   3.223  12.240   1.976
40846SOL    HW224546   3.134  -9.890   1.865
40847SOL     OW24547   2.857   8.971   9.746
40847SOL    HW124548   2.835   8.882   9.774
40847SOL    HW224549   2.909 -13.120  -1.373
40848SOL     OW24550   2.052   6.567   4.811
40848SOL    HW124551   2.012   6.555  -6.315
40848SOL    HW224552   2.140  -4.440   4.793
40849SOL     OW24553   5.169   2.522   9.690
40849SOL    HW124554   5.091  13.519  20.767
40849SOL    HW224555   5.167   2.499   9.598
40850SOL     OW24556   8.603   2.494   7.131
40850SOL    HW124557   8.570   2.432  18.235
40850SOL    HW224558   8.546   2.570   7.140
40851SOL     OW24559  11.392   7.906   3.759
40851SOL    HW124560  11.486   7.921   3.765
40851SOL    HW224561 -10.726  41.089  14.858
40852SOL     OW24562   6.749   9.282   6.428
40852SOL    HW124563   6.745   9.238   6.513
40852SOL    HW224564   6.757  20.415   6.449
40853SOL     OW24565   3.745   9.370   7.139
40853SOL    HW124566   3.713   9.413   7.218
40853SOL    HW224567  -7.247  20.478  40.210
40854SOL     OW24568   5.749   7.288   4.091
40854SOL    HW124569  16.740   7.206  -6.956
40854SOL    HW224570  -5.358   7.356  -6.948
40855SOL     OW24571   8.991   0.211   5.751
40855SOL    HW124572  20.125   0.201   5.739
40855SOL    HW224573   8.953  11.173 -16.371
40856SOL     OW24574   7.607   5.588   6.812
40856SOL    HW124575  -3.428   5.521   6.744
40856SOL    HW224576 -25.604  38.707   6.839
40857SOL     OW24577   5.120   6.245   1.250
40857SOL    HW124578   5.137  17.226  -9.863
40857SOL    HW224579   5.030   6.224  34.395
40858SOL     OW24580   8.246   1.393   6.970
40858SOL    HW124581  30.368  12.377   7.036
40858SOL    HW224582   8.154  12.408   6.975
40859SOL     OW24583   1.369   8.951   5.013
40859SOL    HW124584   1.401   8.865   4.986
40859SOL    HW224585   1.433  -2.027   4.977
40860SOL     OW24586   2.041   2.414   5.436
40860SOL    HW124587  24.132   2.325   5.468
40860SOL    HW224588  13.063   2.466  -5.525
40861SOL     OW24589   4.473   0.761   3.321
40861SOL    HW124590   4.417  11.788   3.398
40861SOL    HW224591   4.508   0.673  -7.737
40862SOL     OW24592   8.992  11.631   0.296
40862SOL    HW124593   9.008   0.685  11.353
40862SOL    HW224594   8.896  11.623 -10.743
40863SOL     OW24595   6.805   7.826   7.763
40863SOL    HW124596   6.824  18.784   7.809
40863SOL    HW224597   6.890   7.858   7.733
40864SOL     OW24598   8.711   2.080   4.288
40864SOL    HW124599  19.780   2.019  15.260
40864SOL    HW224600   8.616  24.146  15.332
40865SOL     OW24601   4.087  10.844   7.546
40865SOL    HW124602  -6.857  10.852   7.546
40865SOL    HW224603   4.056  10.931   7.572
40866SOL     OW24604   6.615   2.028   8.840
40866SOL    HW124605   6.628   2.005   8.748
40866SOL    HW224606   6.547   2.095   8.839
40867SOL     OW24607   8.888   6.400   1.826
40867SOL    HW124608   8.911   6.313   1.860
40867SOL    HW224609   8.819 -37.775   1.762
40868SOL     OW24610   3.046   9.143   0.361
40868SOL    HW124611   3.141   9.145  22.437
40868SOL    HW224612   3.024   9.145   0.455
40869SOL     OW24613   4.697  10.193   5.303
40869SOL    HW124614   4.750  10.270  16.321
40869SOL    HW224615   4.608  10.218  16.318
40870SOL     OW24616   2.547   6.981   6.265
40870SOL    HW124617   2.520   7.012   6.351
40870SOL    HW224618   2.474   6.928   6.234
40871SOL     OW24619   0.972   9.133   7.503
40871SOL    HW124620  -9.993  -1.856  -3.505
40871SOL    HW224621   1.011 -13.024  -3.577
40872SOL     OW24622   3.104  10.208   3.541
40872SOL    HW124623   3.173  -0.789   3.490
40872SOL    HW224624 -18.979  10.118   3.506
40873SOL     OW24625   8.136   2.535   4.984
40873SOL    HW124626   8.117   2.589   5.060
40873SOL    HW224627  41.171  -8.546  16.002
40874SOL     OW24628  -0.497   5.526   0.985
40874SOL    HW124629  -0.485   5.541  11.931
40874SOL    HW224630  10.560   5.433  12.037
40875SOL     OW24631   3.355   1.858  11.636
40875SOL    HW124632   3.422 -20.244   0.533
40875SOL    HW224633   3.395   1.926  11.690
40876SOL     OW24634   9.980   6.245   7.479
40876SOL    HW124635  20.945   6.205   7.435
40876SOL    HW224636   9.944  17.324   7.558
40877SOL     OW24637   6.139   1.130   9.371
40877SOL    HW124638   6.232  12.146   9.372
40877SOL    HW224639   6.134   1.211  31.500
40878SOL     OW24640  10.641   2.721   4.904
40878SOL    HW124641  10.585   2.667  15.999
40878SOL    HW224642  10.686   2.659  15.886
40879SOL     OW24643   7.041   2.690   7.344
40879SOL    HW124644  -3.980   2.731   7.429
40879SOL    HW224645   6.951   2.657   7.352
40880SOL     OW24646   1.845   3.409   2.903
40880SOL    HW124647   1.831   3.490   2.951
40880SOL    HW224648   1.840  14.474   2.811
40881SOL     OW24649   2.377   0.276   9.894
40881SOL    HW124650   2.362   0.222   9.971
40881SOL    HW224651  -8.732   0.252   9.833
40882SOL     OW24652   1.796   5.685   1.432
40882SOL    HW124653 -20.286  -5.428   1.372
40882SOL    HW224654   1.704   5.710   1.444
40883SOL     OW24655  10.500   3.976   6.455
40883SOL    HW124656  10.405   3.969   6.443
40883SOL    HW224657 -11.542  -7.109   6.380
40884SOL     OW24658   3.519   3.263   8.490
40884SOL    HW124659   3.550   3.349  30.539
40884SOL    HW224660   3.477  14.321  19.613
40885SOL     OW24661   8.826   3.039  -0.246
40885SOL    HW124662   8.807  14.164  54.990
40885SOL    HW224663 -13.253   3.055  43.818
40886SOL     OW24664   8.802   3.900   9.295
40886SOL    HW124665  -2.198   3.910 -12.697
40886SOL    HW224666  19.806  -7.228   9.296
40887SOL     OW24667   8.263   2.020   5.302
40887SOL    HW124668   8.327   2.084  16.311
40887SOL    HW224669   8.265   2.028   5.397
40888SOL     OW24670   8.428   9.036   8.548
40888SOL    HW124671   8.340   9.021   8.512
40888SOL    HW224672   8.487   9.028   8.473
40889SOL     OW24673   3.551   5.638   4.258
40889SOL    HW124674  14.518  27.700  -6.721
40889SOL    HW224675   3.575  -5.487   4.223
40890SOL     OW24676   3.179   4.520   9.872
40890SOL    HW124677   3.192   4.608   9.838
40890SOL    HW224678  25.339   4.500   9.920
40891SOL     OW24679   8.712   3.014   2.586
40891SOL    HW124680   8.632  -7.973   2.584
40891SOL    HW224681 -13.296   3.078   2.576
40892SOL     OW24682   5.021  10.166  -1.375
40892SOL    HW124683   5.021  10.075  -1.404
40892SOL    HW224684   4.930  21.233  42.778
40893SOL     OW24685  -0.561   7.459   4.534
40893SOL    HW124686  -0.487   7.464   4.474
40893SOL    HW224687  10.497  29.461   4.588
40894SOL     OW24688   4.079   5.839   4.833
40894SOL    HW124689   4.078  -5.125   4.891
40894SOL    HW224690 -17.920   5.849   4.782
40895SOL     OW24691  10.054   5.610   4.759
40895SOL    HW124692  10.150  -5.423   4.760
40895SOL    HW224693  10.029   5.639  -6.368
40896SOL     OW24694  10.862   8.018   9.004
40896SOL    HW124695  10.889   8.001   9.094
40896SOL    HW224696  10.820   7.937  20.015
40897SOL     OW24697   8.518   2.753   4.887
40897SOL    HW124698   8.561   2.684   4.837
40897SOL    HW224699   8.430   2.758   4.850
40898SOL     OW24700   1.712   1.866   9.666
40898SOL    HW124701  -9.316  46.058   9.577
40898SOL    HW224702  12.837   1.831  20.729
40899SOL     OW24703   7.998  11.619   9.616
40899SOL    HW124704   8.033   0.628   9.542
40899SOL    HW224705   8.076  11.582  20.699
40900SOL     OW24706   7.409   8.761   2.278
40900SOL    HW124707   7.334   8.776  13.375
40900SOL    HW224708  18.521  30.824   2.338
40901SOL     OW24709   7.583   9.329   2.020
40901SOL    HW124710  18.656  20.288   1.980
40901SOL    HW224711   7.566   9.305   2.111
40902SOL     OW24712   5.932   5.472   8.187
40902SOL    HW124713   5.909  -5.480 -36.001
40902SOL    HW224714   5.876   5.456  -2.777
40903SOL     OW24715   3.503   8.698   3.305
40903SOL    HW124716   3.521   8.712   3.212
40903SOL    HW224717   3.475   8.607   3.311
40904SOL     OW24718   5.066  10.066   6.962
40904SOL    HW124719  16.079  10.035  -3.991
40904SOL    HW224720   5.066   9.987  28.987
40905SOL     OW24721   2.767   2.352   4.192
40905SOL    HW124722  24.908   2.383   4.125
40905SOL    HW224723  13.805  13.297   4.182
40906SOL     OW24724   3.639   0.535  10.347
40906SOL    HW124725  14.620   0.494  10.283
40906SOL    HW224726   3.604  11.547  21.471
40907SOL     OW24727   6.380   0.918   7.336
40907SOL    HW124728   6.434  12.033   7.314
40907SOL    HW224729   6.425   0.877   7.410
40908SOL     OW24730   6.223   1.172   5.654
40908SOL    HW124731   6.287   1.100   5.658
40908SOL    HW224732  17.300   1.239  16.751
40909SOL     OW24733   9.875   5.960   6.703
40909SOL    HW124734   9.942   5.973  -4.270
40909SOL    HW224735   9.924  28.015  17.664
40910SOL     OW24736   9.852  -0.515   3.982
40910SOL    HW124737   9.905  10.559   3.910
40910SOL    HW224738   9.876  -0.461   4.057
40911SOL     OW24739   6.910   6.777   1.707
40911SOL    HW124740   6.853   6.709  23.824
40911SOL    HW224741   6.927  -4.294   1.618
40912SOL     OW24742   4.035   3.301  10.259
40912SOL    HW124743  15.068  -7.755  10.354
40912SOL    HW224744   4.127  -7.717  -0.795
40913SOL     OW24745   1.588  10.547   4.311
40913SOL    HW124746 -20.460  10.549   4.401
40913SOL    HW224747   1.666 -11.515 -17.821
40914SOL     OW24748   1.216   7.912   6.825
40914SOL    HW124749   1.224   7.820  17.839
40914SOL    HW224750  -9.825   7.910   6.921
40915SOL     OW24751   1.464   9.968  11.031
40915SOL    HW124752  12.478  -1.162  -0.027
40915SOL    HW224753  12.481  10.017  10.952
40916SOL     OW24754   4.502  10.707  -0.404
40916SOL    HW124755   4.426  10.653  -0.429
40916SOL    HW224756  -6.466  10.645  21.683
40917SOL     OW24757   1.216   2.001  -0.149
40917SOL    HW124758   1.158   1.995  21.855
40917SOL    HW224759   1.281  -9.108  -0.162
40918SOL     OW24760   5.329   5.421   2.917
40918SOL    HW124761   5.254   5.460  -8.078
40918SOL    HW224762   5.398   5.418   2.984
40919SOL     OW24763  -0.451   7.978   4.009
40919SOL    HW124764  21.585  -2.991   3.961
40919SOL    HW224765  -0.359  -3.037   4.010
40920SOL     OW24766   2.210   0.624  11.138
40920SOL    HW124767   2.248  11.680 -11.027
40920SOL    HW224768  13.178   0.562  11.120
40921SOL     OW24769   8.186   0.295   4.820
40921SOL    HW124770  -2.854   0.246  -6.301
40921SOL    HW224771  -2.762   0.298   4.846
40922SOL     OW24772   5.350   8.902   6.546
40922SOL    HW124773  16.416   8.982  28.668
40922SOL    HW224774   5.323   8.844   6.617
40923SOL     OW24775   2.296   1.712   7.501
40923SOL    HW124776   2.301   1.743   7.591
40923SOL    HW224777   2.202   1.711   7.481
40924SOL     OW24778   1.066  11.040   9.413
40924SOL    HW124779   1.126 -11.041   9.488
40924SOL    HW224780   1.060  10.948  -1.654
40925SOL     OW24781   7.160   8.607  11.573
40925SOL    HW124782   7.118   8.618  11.487
40925SOL    HW224783   7.207   8.689 -10.492
40926SOL     OW24784   7.936   1.900   5.775
40926SOL    HW124785   7.900   1.907   5.686
40926SOL    HW224786  18.936   1.820   5.811
40927SOL     OW24787   5.412  10.100  12.230
40927SOL    HW124788   5.450  -1.008   1.246
40927SOL    HW224789   5.335  10.131   1.239
40928SOL     OW24790  11.570   2.263   4.787
40928SOL    HW124791 -21.530  24.251   4.766
40928SOL    HW224792   0.615   2.308  15.816
40929SOL     OW24793   8.364   4.896   5.867
40929SOL    HW124794  -2.660   4.975   5.920
40929SOL    HW224795  19.470  15.939   5.798
40930SOL     OW24796   6.185   4.293   7.383
40930SOL    HW124797  17.258   4.322   7.468
40930SOL    HW224798   6.254 -17.844  18.388
40931SOL     OW24799   4.510   1.982   1.842
40931SOL    HW124800   4.588   1.939  12.918
40931SOL    HW224801   4.476   2.034   1.915
40932SOL     OW24802   6.984   6.810   5.308
40932SOL    HW124803   6.937   6.892  16.363
40932SOL    HW224804  -4.125  17.785   5.291
40933SOL     OW24805  11.414   9.954  10.714
40933SOL    HW124806   0.298  21.019 -11.315
40933SOL    HW224807  11.488   9.988  -0.276
40934SOL     OW24808   9.847  10.000   6.504
40934SOL    HW124809   9.770   9.966  -4.582
40934SOL    HW224810   9.862   9.936   6.574
40935SOL     OW24811   2.660   5.011   8.724
40935SOL    HW124812  13.768  -6.024   8.791
40935SOL    HW224813   2.707 -17.058  -2.398
40936SOL     OW24814   4.565   7.233   5.619
40936SOL    HW124815   4.581   7.174  -5.347
40936SOL    HW224816 -17.603  40.331   5.590
40937SOL     OW24817   8.326   7.794   3.852
40937SOL    HW124818  -2.785   7.766   3.909
40937SOL    HW224819   8.293   7.778   3.763
40938SOL     OW24820  11.200   2.351   8.908
40938SOL    HW124821 -32.979   2.384 -46.378
40938SOL    HW224822 -10.931 -19.808   8.916
40939SOL     OW24823   9.215   3.575   9.902
40939SOL    HW124824   9.245   3.489   9.934
40939SOL    HW224825   9.193   3.624   9.981
40940SOL     OW24826   1.625   6.378   0.517
40940SOL    HW124827   1.597  17.361   0.589
40940SOL    HW224828  -9.409   6.465   0.555
40941SOL     OW24829   4.150   6.948   9.522
40941SOL    HW124830   4.107   7.033  -1.525
40941SOL    HW224831   4.224   6.963   9.582
40942SOL     OW24832   4.438   6.248   6.312
40942SOL    HW124833 -17.549  17.304   6.288
40942SOL    HW224834  15.451   6.326   6.361
40943SOL     OW24835   0.743   3.546   9.747
40943SOL    HW124836   0.831  -7.493 -12.295
40943SOL    HW224837   0.747   3.480   9.677
40944SOL     OW24838   8.990   0.242   7.484
40944SOL    HW124839  20.062  11.193  29.579
40944SOL    HW224840  31.148   0.296   7.481
40945SOL     OW24841   8.409   0.109   9.811
40945SOL    HW124842   8.463  11.149   9.733
40945SOL    HW224843  19.461   0.022   9.849
40946SOL     OW24844   2.145   7.214   1.871
40946SOL    HW124845   2.086   7.200   1.796
40946SOL    HW224846  -8.953   7.232   1.945
40947SOL     OW24847   1.528   6.619   2.890
40947SOL    HW124848   1.534 -15.421  13.842
40947SOL    HW224849   1.434   6.603  -8.137
40948SOL     OW24850   1.659  10.048   6.219
40948SOL    HW124851   1.724  10.008 -15.918
40948SOL    HW224852   1.669 -12.078   6.302
40949SOL     OW24853   7.738   7.838   0.992
40949SOL    HW124854   7.748   7.933  12.028
40949SOL    HW224855   7.693  -3.219   1.074
40950SOL     OW24856   1.248   9.679   8.122
40950SOL    HW124857   1.207   9.604   8.078
40950SOL    HW224858   1.176   9.723   8.166
40951SOL     OW24859   6.416   3.431   1.949
40951SOL    HW124860   6.386   3.506  -9.142
40951SOL    HW224861   6.508   3.421   1.925
40952SOL     OW24862   2.926   4.023   9.462
40952SOL    HW124863   3.016  15.089 -12.597
40952SOL    HW224864  13.964   4.014 -23.752
40953SOL     OW24865   1.476   1.798   3.710
40953SOL    HW124866  12.521  12.839  -7.234
40953SOL    HW224867   1.486   1.705   3.687
40954SOL     OW24868   3.995   6.654   7.549
40954SOL    HW124869   3.945   6.582   7.587
40954SOL    HW224870   3.933   6.727   7.546
40955SOL     OW24871   6.688   6.477   6.103
40955SOL    HW124872   6.620  -4.497   6.118
40955SOL    HW224873  17.680   6.395   6.092
40956SOL     OW24874   3.005   5.190   9.721
40956SOL    HW124875  14.024   5.218   9.632
40956SOL    HW224876  25.004   5.209   9.771
40957SOL     OW24877   4.662   6.258  10.901
40957SOL    HW124878   4.644  -4.813  10.990
40957SOL    HW224879   4.712   6.186  -0.179
40958SOL     OW24880   8.180   3.587   4.108
40958SOL    HW124881   8.172   3.535  -7.012
40958SOL    HW224882  30.352  -7.432 -17.965
40959SOL     OW24883   2.819   7.510   4.355
40959SOL    HW124884  13.869   7.416   4.373
40959SOL    HW224885   2.825  18.591 -17.638
40960SOL     OW24886   3.242   8.992   1.397
40960SOL    HW124887   3.335   9.013   1.387
40960SOL    HW224888   3.231  31.054   1.491
40961SOL     OW24889   2.904   3.619   3.646
40961SOL    HW124890   2.952   3.536 -18.433
40961SOL    HW224891   2.844   3.612   3.720
40962SOL     OW24892   5.977   1.798   2.441
40962SOL    HW124893  -5.128   1.804  -8.529
40962SOL    HW224894   6.049   1.748  -8.560
40963SOL     OW24895   9.948   6.692   7.834
40963SOL    HW124896   9.878  -4.300  -3.250
40963SOL    HW224897   9.914   6.604   7.846
40964SOL     OW24898   2.393   2.610   7.332
40964SOL    HW124899   2.386   2.611   7.428
40964SOL    HW224900   2.487   2.605   7.315
40965SOL     OW24901   6.623   0.135   2.617
40965SOL    HW124902   6.679   0.140  24.774
40965SOL    HW224903   6.564   0.062   2.634
40966SOL     OW24904   2.821   4.977   8.964
40966SOL    HW124905   2.833   4.883   8.954
40966SOL    HW224906   2.728   4.988   8.985
40967SOL     OW24907   9.677   8.112   3.180
40967SOL    HW124908   9.685 -13.996 -29.847
40967SOL    HW224909   9.733   8.052   3.131
40968SOL     OW24910   8.104   8.160   2.878
40968SOL    HW124911   8.063   8.083   2.919
40968SOL    HW224912 -14.002   8.155   2.786
40969SOL     OW24913   0.957   9.262   5.075
40969SOL    HW124914   0.902   9.184   5.080
40969SOL    HW224915   0.927 -12.772   4.995
40970SOL     OW24916   7.373   3.837   7.505
40970SOL    HW124917   7.423   3.867   7.429
40970SOL    HW224918   7.339 -29.202  29.624
40971SOL     OW24919   8.972   1.791   5.949
40971SOL    HW124920   9.034  -9.258   5.877
40971SOL    HW224921   9.025   1.824   6.022
40972SOL     OW24922   2.555   9.569   1.331
40972SOL    HW124923 -19.528  20.687   1.386
40972SOL    HW224924   2.465  -1.502   1.327
40973SOL     OW24925   6.510   6.400  10.577
40973SOL    HW124926  17.641  17.457  10.599
40973SOL    HW224927   6.481  17.517  10.531
40974SOL     OW24928   8.115   9.349  11.002
40974SOL    HW124929 -13.905  20.458  10.972
40974SOL    HW224930   8.103   9.366   0.055
40975SOL     OW24931   5.292   0.354   7.703
40975SOL    HW124932   5.262  44.561 -14.453
40975SOL    HW224933   5.341   0.418   7.754
40976SOL     OW24934   7.698   6.693   9.244
40976SOL    HW124935   7.636  17.787   9.294
40976SOL    HW224936   7.705   6.736   9.159
40977SOL     OW24937  -1.740   7.472  10.878
40977SOL    HW124938   9.370   7.520  10.922
40977SOL    HW224939  53.379   7.522  -0.141
40978SOL     OW24940   3.457   3.627   0.876
40978SOL    HW124941  14.555 -18.377 -10.155
40978SOL    HW224942   3.516   3.551   0.868
40979SOL     OW24943   5.643   8.931  11.460
40979SOL    HW124944   5.548   8.943   0.425
40979SOL    HW224945 -16.409  19.968  11.552
40980SOL     OW24946   5.007   5.199   8.247
40980SOL    HW124947  -6.082  27.291   8.166
40980SOL    HW224948  -5.946   5.236   8.228
40981SOL     OW24949   0.169   3.418   2.833
40981SOL    HW124950   0.103 -18.635   2.769
40981SOL    HW224951   0.226   3.358  24.865
40982SOL     OW24952   4.795   9.544   6.270
40982SOL    HW124953   4.863   9.608   6.289
40982SOL    HW224954   4.828   9.494 -15.883
40983SOL     OW24955   3.945   3.297   1.334
40983SOL    HW124956  25.954   3.241   1.364
40983SOL    HW224957  15.023   3.251 -20.820
40984SOL     OW24958   4.804   6.354   2.255
40984SOL    HW124959   4.709   6.366  -8.782
40984SOL    HW224960   4.818   6.266   2.289
40985SOL     OW24961   6.550   1.491   6.473
40985SOL    HW124962   6.491   1.551   6.428
40985SOL    HW224963   6.609   1.459  -4.636
40986SOL     OW24964   6.804   2.461   8.289
40986SOL    HW124965   6.723   2.484   8.242
40986SOL    HW224966 -26.333   2.375   8.326
40987SOL     OW24967   3.998   9.382   4.845
40987SOL    HW124968   4.022   9.470  15.914
40987SOL    HW224969 -18.096 -12.687  15.790
40988SOL     OW24970   5.053   4.576   5.051
40988SOL    HW124971  -5.975   4.571   4.956
40988SOL    HW224972   5.076   4.488   5.082
40989SOL     OW24973   8.246  10.836  11.895
40989SOL    HW124974  41.394  10.926 -10.177
40989SOL    HW224975   8.317  10.784  11.933
40990SOL     OW24976   5.040   4.732   9.338
40990SOL    HW124977  -5.985   4.663   9.273
40990SOL    HW224978   5.044   4.813   9.287
40991SOL     OW24979   6.530   1.015   7.588
40991SOL    HW124980   6.469  23.075   7.660
40991SOL    HW224981   6.483  -9.961 -36.624
40992SOL     OW24982   7.293   6.291   8.596
40992SOL    HW124983   7.222   6.354  19.647
40992SOL    HW224984   7.300   6.246  30.759
40993SOL     OW24985   5.751   7.666  10.071
40993SOL    HW124986   5.708   7.693   9.990
40993SOL    HW224987   5.778   7.747 -11.966
40994SOL     OW24988   3.283   9.029   9.079
40994SOL    HW124989   3.193   9.049   9.107
40994SOL    HW224990   3.275   9.009   8.986
40995SOL     OW24991   0.120   0.561   3.202
40995SOL    HW124992   0.087   0.556   3.292
40995SOL    HW224993   0.185   0.630   3.204
40996SOL     OW24994  10.928   1.378   2.922
40996SOL    HW124995  10.873   1.444   2.965
40996SOL    HW224996  -0.174  -9.720   2.879
40997SOL     OW24997  10.056   2.305   3.423
40997SOL    HW124998 -34.165   2.261   3.366
40997SOL    HW224999  10.053   2.256 -18.574
40998SOL     OW25000   6.034  -1.053  10.178
40998SOL    HW125001   6.123  -1.033  10.207
40998SOL    HW225002   6.043  20.944  10.130
40999SOL     OW25003   7.409   5.752   7.930
40999SOL    HW125004  29.521   5.734   7.842
40999SOL    HW225005  40.473   5.830  30.000
41000SOL     OW25006   8.643   9.750   6.456
41000SOL    HW125007   8.681   9.707  50.690
41000SOL    HW225008   8.672   9.841  39.582
41001SOL     OW25009   9.992   6.194   8.876
41001SOL    HW125010   9.921  17.296   8.866
41001SOL    HW225011  -1.083   6.126  -2.105
41002SOL     OW25012   8.274   1.781   4.838
41002SOL    HW125013   8.363  12.804   4.809
41002SOL    HW225014 -13.844   1.694  15.890
41003SOL     OW25015   6.681   7.446   1.471
41003SOL    HW125016   6.720   7.359   1.464
41003SOL    HW225017   6.653  -3.587  -9.477
41004SOL     OW25018  -0.316   4.258   4.267
41004SOL    HW125019  -0.264   4.214   4.200
41004SOL    HW225020  10.646   4.290   4.221
41005SOL     OW25021  10.879   9.292  11.085
41005SOL    HW125022  -0.121  -1.698 -10.923
41005SOL    HW225023  10.880   9.353  -0.029
41006SOL     OW25024   5.335   6.678   1.344
41006SOL    HW125025   5.272   6.623  -9.740
41006SOL    HW225026 -16.797  39.858   1.395
41007SOL     OW25027   4.367   5.033  10.300
41007SOL    HW125028   4.369   5.113  10.351
41007SOL    HW225029   4.456 -28.119  21.343
41008SOL     OW25030   7.098   3.270   2.554
41008SOL    HW125031   7.010   3.299   2.530
41008SOL    HW225032   7.155   3.304  -8.555
41009SOL     OW25033  10.560   9.688   6.846
41009SOL    HW125034  10.529   9.654   6.762
41009SOL    HW225035  10.539  -1.421  17.949
41010SOL     OW25036   5.942   2.716   4.921
41010SOL    HW125037  28.048   2.687   4.833
41010SOL    HW225038   6.003   2.671   4.980
41011SOL     OW25039   2.565   3.829  10.879
41011SOL    HW125040   2.644   3.867  10.842
41011SOL    HW225041   2.529   3.899  10.934
41012SOL     OW25042   4.408   4.348  10.572
41012SOL    HW125043   4.401   4.288 -11.433
41012SOL    HW225044   4.362   4.427  10.600
41013SOL     OW25045   4.743   9.112   8.278
41013SOL    HW125046   4.777   9.202  30.348
41013SOL    HW225047  15.692   9.117   8.248
41014SOL     OW25048   0.522   8.114   4.118
41014SOL    HW125049   0.501   8.155   4.202
41014SOL    HW225050  22.673   8.166   4.083
41015SOL     OW25051   5.650   9.397   7.638
41015SOL    HW125052  16.746   9.464   7.599
41015SOL    HW225053   5.709   9.347   7.696
41016SOL     OW25054   3.482   9.971   1.623
41016SOL    HW125055   3.557  21.016  12.722
41016SOL    HW225056  14.558   9.931   1.543
41017SOL     OW25057   4.109   1.101   7.284
41017SOL    HW125058   4.067   1.044  18.259
41017SOL    HW225059   4.068   1.186   7.270
41018SOL     OW25060   4.985   9.659   3.130
41018SOL    HW125061  -5.994   9.709  -7.854
41018SOL    HW225062  -6.027   9.568   3.141
41019SOL     OW25063   1.523   9.321   4.501
41019SOL    HW125064   1.458   9.363   4.558
41019SOL    HW225065   1.601   9.312   4.557
41020SOL     OW25066  10.015   3.001  10.500
41020SOL    HW125067 -23.109   2.969  10.590
41020SOL    HW225068  -0.951   3.062  10.501
41021SOL     OW25069   3.425   5.708  10.335
41021SOL    HW125070   3.384   5.696  10.250
41021SOL    HW225071   3.465   5.794  10.331
41022SOL     OW25072   4.029   1.910   3.996
41022SOL    HW125073   4.007   1.817   3.991
41022SOL    HW225074   3.966  12.992   3.939
41023SOL     OW25075   4.522   1.032   7.668
41023SOL    HW125076   4.516   1.011   7.575
41023SOL    HW225077   4.565   0.956   7.707
41024SOL     OW25078   1.866   4.028   9.543
41024SOL    HW125079   1.912   4.111   9.558
41024SOL    HW225080   1.930   3.973  20.537
41025SOL     OW25081   3.469   0.136   6.745
41025SOL    HW125082  14.521   0.160   6.836
41025SOL    HW225083   3.385  11.215   6.720
41026SOL     OW25084  10.019   2.706   8.025
41026SOL    HW125085   9.944   2.706   7.966
41026SOL    HW225086  10.080  13.683   7.987
41027SOL     OW25087   3.098   2.162   0.978
41027SOL    HW125088   3.162   2.091   0.982
41027SOL    HW225089   3.090   2.181   0.884
41028SOL     OW25090   4.532   9.045   1.347
41028SOL    HW125091   4.561   9.009  12.302
41028SOL    HW225092   4.496   8.970   1.394
41029SOL     OW25093   4.589  10.784   1.537
41029SOL    HW125094 -17.513  10.801   1.628
41029SOL    HW225095   4.512  10.812   1.487
41030SOL     OW25096   5.674   8.807  10.684
41030SOL    HW125097   5.686   8.783 -11.486
41030SOL    HW225098   5.762  -2.210  10.715
41031SOL     OW25099   8.844   6.604   3.810
41031SOL    HW125100   8.852   6.509   3.816
41031SOL    HW225101   8.912   6.630  -7.291
41032SOL     OW25102   2.241   4.062   8.797
41032SOL    HW125103   2.289  -7.039  -2.186
41032SOL    HW225104   2.155   4.022   8.785
41033SOL     OW25105   8.587   2.244   9.100
41033SOL    HW125106   8.538   2.170   9.136
41033SOL    HW225107   8.609   2.217   9.011
41034SOL     OW25108   8.422   7.414   1.994
41034SOL    HW125109  30.433   7.465   1.950
41034SOL    HW225110   8.450   7.351   1.927
41035SOL     OW25111   9.108  11.438  10.462
41035SOL    HW125112   9.107  11.397  10.376
41035SOL    HW225113   9.191   0.370  10.502
41036SOL     OW25114   4.777   3.162   6.937
41036SOL    HW125115  26.825   3.209   7.014
41036SOL    HW225116   4.763 -19.010  -4.082
41037SOL     OW25117   7.316  11.580   3.243
41037SOL    HW125118   7.289 -21.462   3.293
41037SOL    HW225119  -3.660  11.536   3.299
41038SOL     OW25120   3.954   8.500   1.807
41038SOL    HW125121  25.951   8.452   1.804
41038SOL    HW225122  14.975   8.578   1.858
41039SOL     OW25123   7.287   6.143   4.756
41039SOL    HW125124   7.247 -27.012   4.677
41039SOL    HW225125   7.247   6.230   4.765
41040SOL     OW25126   5.855   4.285  10.797
41040SOL    HW125127   5.883  26.312  10.722
41040SOL    HW225128 -16.194   4.374 -11.301
41041SOL     OW25129   3.911   3.454  10.078
41041SOL    HW125130  14.969   3.398  10.153
41041SOL    HW225131   3.992  14.544  10.065
41042SOL     OW25132   4.830   6.290   1.222
41042SOL    HW125133   4.852  28.442   1.280
41042SOL    HW225134  59.935  17.314  -9.801
41043SOL     OW25135  10.391   8.743   2.692
41043SOL    HW125136  10.373   8.750   2.786
41043SOL    HW225137  10.358   8.656   2.669
41044SOL     OW25138   8.316   5.962   5.503
41044SOL    HW125139  -2.664   5.940   5.574
41044SOL    HW225140   8.358 -16.043  16.499
41045SOL     OW25141   7.072   7.602  12.782
41045SOL    HW125142   7.149   7.605   1.686
41045SOL    HW225143   7.011  40.783  -9.336
41046SOL     OW25144   3.560   9.205   6.535
41046SOL    HW125145  -7.455   9.178  17.486
41046SOL    HW225146  25.702   9.162  17.631
41047SOL     OW25147   2.237   6.422   6.947
41047SOL    HW125148   2.329   6.411  29.003
41047SOL    HW225149 -19.842 -26.624   7.010
41048SOL     OW25150   6.972  -0.313   6.396
41048SOL    HW125151  28.986  21.748   6.328
41048SOL    HW225152  18.082  21.812  -4.689
41049SOL     OW25153  10.350   7.604   7.353
41049SOL    HW125154  -0.756   7.673  29.428
41049SOL    HW225155  21.352 -25.580  18.452
41050SOL     OW25156   4.761   9.037   2.298
41050SOL    HW125157   4.766   9.127   2.329
41050SOL    HW225158   4.668   9.016  -8.738
41051SOL     OW25159   2.657   3.333   0.123
41051SOL    HW125160   2.654   3.331   0.219
41051SOL    HW225161   2.738  14.327   0.101
41052SOL     OW25162   5.686   8.748   5.548
41052SOL    HW125163  16.724   8.787  16.500
41052SOL    HW225164   5.609   8.692   5.551
41053SOL     OW25165   0.747   9.803   6.885
41053SOL    HW125166   0.725 -23.223  17.915
41053SOL    HW225167   0.739   9.767   6.797
41054SOL     OW25168   8.550   8.695   9.425
41054SOL    HW125169   8.608   8.767   9.450
41054SOL    HW225170   8.568   8.681   9.332
41055SOL     OW25171   6.757  10.901   1.648
41055SOL    HW125172   6.826  10.838  12.667
41055SOL    HW225173   6.764  10.967   1.579
41056SOL     OW25174   4.109   8.055   6.788
41056SOL    HW125175 -17.880   8.031   6.767
41056SOL    HW225176   4.074  19.131   6.706
41057SOL     OW25177   7.306   9.084   5.351
41057SOL    HW125178  29.306   9.066   5.301
41057SOL    HW225179   7.378   9.062  -5.748
41058SOL     OW25180   8.706   7.691  10.766
41058SOL    HW125181   8.699  -3.416  10.833
41058SOL    HW225182  -2.402   7.754  10.788
41059SOL     OW25183   5.934  10.152  -0.469
41059SOL    HW125184   5.888  10.217  21.664
41059SOL    HW225185   6.014  10.133  10.620
41060SOL     OW25186   7.715   2.147   5.647
41060SOL    HW125187   7.629   2.181  27.750
41060SOL    HW225188  -3.319   2.161   5.552
41061SOL     OW25189   7.448   8.651   6.075
41061SOL    HW125190   7.389  19.632   6.123
41061SOL    HW225191   7.452  19.653   5.987
41062SOL     OW25192   1.842  10.219  12.194
41062SOL    HW125193   1.863  10.231   1.247
41062SOL    HW225194  12.950  10.267   1.108
41063SOL     OW25195   8.342   6.088  10.370
41063SOL    HW125196   8.426   6.127  10.349
41063SOL    HW225197   8.297   6.154  10.422
41064SOL     OW25198  10.531   5.260   8.964
41064SOL    HW125199  -0.536   5.171   8.941
41064SOL    HW225200  10.619   5.249 -13.077
41065SOL     OW25201   3.283   8.062  10.346
41065SOL    HW125202  25.395   8.070  21.296
41065SOL    HW225203   3.203   8.011  10.338
41066SOL     OW25204   3.686   6.491   5.239
41066SOL    HW125205   3.676 -15.663  16.221
41066SOL    HW225206  -7.333   6.454   5.325
41067SOL     OW25207   7.986   3.696   7.285
41067SOL    HW125208   7.911  14.682   7.312
41067SOL    HW225209   7.983   3.695  18.229
41068SOL     OW25210   8.467   6.705   0.173
41068SOL    HW125211   8.542  39.883   0.181
41068SOL    HW225212   8.449   6.703   0.079
41069SOL     OW25213  10.988   5.497   9.654
41069SOL    HW125214 -22.145  -5.621 -12.478
41069SOL    HW225215  11.022   5.562   9.592
41070SOL     OW25216   2.149   8.562   5.083
41070SOL    HW125217   2.153   8.650 -16.959
41070SOL    HW225218   2.071   8.562   5.028
41071SOL     OW25219   1.302   4.070  11.374
41071SOL    HW125220   1.383   4.102 -10.745
41071SOL    HW225221  12.274   4.088  22.349
41072SOL     OW25222  11.325   8.066   9.961
41072SOL    HW125223  11.284   8.066 -23.244
41072SOL    HW225224   0.367   8.016   9.948
41073SOL     OW25225   2.205   0.636   5.724
41073SOL    HW125226   2.208   0.560   5.665
41073SOL    HW225227   2.115   0.667   5.718
41074SOL     OW25228   3.001   7.124   7.658
41074SOL    HW125229  14.069  -3.851  -3.447
41074SOL    HW225230  47.240  -3.947   7.698
41075SOL     OW25231   2.284   7.893   8.997
41075SOL    HW125232  24.273 -14.212   9.017
41075SOL    HW225233   2.333   7.876   9.078
41076SOL     OW25234   6.072   0.716   8.668
41076SOL    HW125235  -4.958   0.790   8.608
41076SOL    HW225236  -5.048   0.735   8.716
41077SOL     OW25237   8.375   9.447   1.120
41077SOL    HW125238   8.396   9.533   1.085
41077SOL    HW225239   8.315   9.409  -9.983
41078SOL     OW25240   4.829   8.874   4.612
41078SOL    HW125241  37.991  -2.149   4.696
41078SOL    HW225242   4.833   8.958  -6.473
41079SOL     OW25243   3.424   3.583   4.823
41079SOL    HW125244   3.370 -18.511   4.901
41079SOL    HW225245 -18.569  -7.432   4.857
41080SOL     OW25246   3.252   4.503   8.255
41080SOL    HW125247   3.319  15.517   8.318
41080SOL    HW225248   3.301   4.537   8.180
41081SOL     OW25249  -0.839   3.110  -0.080
41081SOL    HW125250  21.318   3.071  11.000
41081SOL    HW225251  10.228   3.199  -0.102
41082SOL     OW25252   6.466   3.511   7.018
41082SOL    HW125253   6.511  25.576  17.975
41082SOL    HW225254   6.479  14.469  18.107
41083SOL     OW25255  10.407   6.402   2.254
41083SOL    HW125256  10.496   6.369   2.243
41083SOL    HW225257  21.449   6.448   2.338
41084SOL     OW25258   0.304   6.325   2.285
41084SOL    HW125259   0.292  28.349  -8.832
41084SOL    HW225260   0.346   6.404  13.290
41085SOL     OW25261   9.845   2.401   1.579
41085SOL    HW125262   9.923 -19.724   1.548
41085SOL    HW225263  -1.214  -8.678   1.665
41086SOL     OW25264   8.869   8.487   9.112
41086SOL    HW125265   8.893   8.450   9.027
41086SOL    HW225266   8.906  30.506   9.176
41087SOL     OW25267   4.754   8.751   2.625
41087SOL    HW125268   4.826   8.783  -8.470
41087SOL    HW225269   4.686  -2.315 -30.556
41088SOL     OW25270   6.765   8.101   2.152
41088SOL    HW125271  17.751  19.136   2.073
41088SOL    HW225272   6.710   8.065   2.221
41089SOL     OW25273   6.354   9.668   5.870
41089SOL    HW125274   6.307   9.729  28.007
41089SOL    HW225275   6.337   9.582   5.907
41090SOL     OW25276   2.636   7.419   4.705
41090SOL    HW125277   2.610   7.388   4.619
41090SOL    HW225278   2.727   7.446  15.734
41091SOL     OW25279   2.877   4.246   7.714
41091SOL    HW125280  24.932   4.187   7.643
41091SOL    HW225281   2.893  15.228  40.907
41092SOL     OW25282   9.632   9.267   3.410
41092SOL    HW125283   9.675  -1.852   3.439
41092SOL    HW225284 -12.443   9.263   3.314
41093SOL     OW25285   3.890  10.381  10.547
41093SOL    HW125286   3.962  10.442  10.534
41093SOL    HW225287   3.815  10.423  10.506
41094SOL     OW25288   2.650   5.432   6.049
41094SOL    HW125289  46.835   5.437   6.140
41094SOL    HW225290   2.610  27.596  -5.009
41095SOL     OW25291  10.902   3.386   8.634
41095SOL    HW125292  10.920  14.491  19.607
41095SOL    HW225293  10.946   3.306   8.603
41096SOL     OW25294   2.530   8.929  10.056
41096SOL    HW125295  13.585   8.836  10.039
41096SOL    HW225296  13.493   8.930  10.114
41097SOL     OW25297  11.240  -2.852   6.948
41097SOL    HW125298 -10.818  30.344   6.896
41097SOL    HW225299   0.257  19.158   6.913
41098SOL     OW25300  10.524   6.226   6.807
41098SOL    HW125301  10.456   6.209 -15.207
41098SOL    HW225302  10.509   6.316 -26.340
41099SOL     OW25303   5.697   8.607   4.857
41099SOL    HW125304   5.602   8.612  15.895
41099SOL    HW225305   5.717   8.517   4.831
41100SOL     OW25306   3.207   7.331   1.398
41100SOL    HW125307   3.214  29.315   1.390
41100SOL    HW225308  36.302  -3.695  -9.549
41101SOL     OW25309   7.625   3.398   1.928
41101SOL    HW125310   7.605   3.387   1.835
41101SOL    HW225311   7.664   3.485   1.933
41102SOL     OW25312   2.403   9.154   6.823
41102SOL    HW125313   2.349   9.080  28.875
41102SOL    HW225314  -8.555   9.144  28.855
41103SOL     OW25315   6.440   9.204   0.581
41103SOL    HW125316   6.492   9.160   0.513
41103SOL    HW225317   6.478   9.173   0.664
41104SOL     OW25318   6.628   3.666   1.223
41104SOL    HW125319 -15.536   3.685   1.264
41104SOL    HW225320   6.621   3.703   1.135
41105SOL     OW25321   2.209   8.618   3.017
41105SOL    HW125322   2.194   8.707   2.988
41105SOL    HW225323   2.203  19.604   2.938
41106SOL     OW25324   2.920   0.099   6.618
41106SOL    HW125325  36.055   0.163   6.548
41106SOL    HW225326  13.878   0.129   6.659
41107SOL     OW25327  -2.300   8.261   7.927
41107SOL    HW125328  -2.295   8.332   7.862
41107SOL    HW225329  41.786   8.207   7.897
41108SOL     OW25330   8.806   6.639   0.155
41108SOL    HW125331   8.755   6.720   0.154
41108SOL    HW225332   8.891   6.664   0.193
41109SOL     OW25333  10.451  -1.751  10.870
41109SOL    HW125334  10.407   9.367  -0.203
41109SOL    HW225335  10.512  31.400  10.936
41110SOL     OW25336   4.841   8.602   8.352
41110SOL    HW125337   4.923   8.609   8.401
41110SOL    HW225338   4.863  19.673   8.264
41111SOL     OW25339   9.738   7.345   9.332
41111SOL    HW125340   9.799  -3.640   9.382
41111SOL    HW225341   9.792 -14.773   9.263
41112SOL     OW25342   3.926   7.165  -1.685
41112SOL    HW125343   3.951   7.145  20.304
41112SOL    HW225344   3.831  18.218   9.350
41113SOL     OW25345   1.360   3.793  11.355
41113SOL    HW125346  23.429  14.887 -21.685
41113SOL    HW225347  -9.638   3.851  11.291
41114SOL     OW25348   5.390   4.152   6.536
41114SOL    HW125349   5.436  -6.815   6.493
41114SOL    HW225350  16.362 -28.991   6.473
41115SOL     OW25351   9.148   0.786   4.481
41115SOL    HW125352   9.216   0.720  26.572
41115SOL    HW225353  -1.958   0.764   4.546
41116SOL     OW25354   5.500  10.436   8.310
41116SOL    HW125355  16.597  10.360   8.301
41116SOL    HW225356   5.423  10.403  -2.684
41117SOL     OW25357   8.235   7.509   8.915
41117SOL    HW125358   8.258   7.598   8.942
41117SOL    HW225359   8.147   7.516 -13.201
41118SOL     OW25360   2.491   1.294   8.438
41118SOL    HW125361 -19.626   1.213   8.474
41118SOL    HW225362  -8.539   1.275   8.344
41119SOL     OW25363   8.131   7.501  -1.232
41119SOL    HW125364  -2.914   7.419  -1.280
41119SOL    HW225365 -14.020   7.498  20.910
41120SOL     OW25366   8.146   5.959   4.314
41120SOL    HW125367   8.233   5.996   4.301
41120SOL    HW225368  30.213   5.959   4.409
41121SOL     OW25369  10.205   8.552   5.983
41121SOL    HW125370  -0.765   8.614   5.961
41121SOL    HW225371  10.175   8.519   5.898
41122SOL     OW25372  12.137  10.999   8.299
41122SOL    HW125373   1.172  10.939   8.289
41122SOL    HW225374  -9.947  11.045   8.215
41123SOL     OW25375  11.764   7.352   8.440
41123SOL    HW125376  11.708  18.468  19.469
41123SOL    HW225377 -21.275  -3.666   8.390
41124SOL     OW25378   9.091   4.116   9.260
41124SOL    HW125379   9.086   4.086   9.169
41124SOL    HW225380   9.132   4.043   9.307
41125SOL     OW25381   0.956   5.875   1.795
41125SOL    HW125382   1.034  27.964   1.849
41125SOL    HW225383   0.922  16.827  -9.223
41126SOL     OW25384   0.592   5.265  11.508
41126SOL    HW125385   0.517 -16.858 -10.531
41126SOL    HW225386   0.666   5.207   0.485
41127SOL     OW25387  12.149   2.639   7.428
41127SOL    HW125388  12.207 -30.409   7.398
41127SOL    HW225389 -10.018   2.673   7.418
41128SOL     OW25390   8.517   8.359   3.107
41128SOL    HW125391   8.522   8.272   3.146
41128SOL    HW225392   8.428   8.365   3.072
41129SOL     OW25393   4.736   2.028  10.875
41129SOL    HW125394   4.642   2.012  10.876
41129SOL    HW225395   4.745   2.121  10.896
41130SOL     OW25396   6.643   8.254   5.954
41130SOL    HW125397   6.716   8.290  -5.034
41130SOL    HW225398   6.567 -13.819  -5.027
41131SOL     OW25399   8.400   8.293   9.570
41131SOL    HW125400   8.341   8.253   9.506
41131SOL    HW225401   8.457   8.350  -1.520
41132SOL     OW25402   0.004   2.261   7.507
41132SOL    HW125403   0.014  -8.729   7.588
41132SOL    HW225404   0.076   2.198   7.508
41133SOL     OW25405   9.964  10.659   4.189
41133SOL    HW125406   9.992 -11.329  -6.864
41133SOL    HW225407   9.873 -22.452   4.220
41134SOL     OW25408   4.399   8.781  12.036
41134SOL    HW125409  15.410   8.872 -10.030
41134SOL    HW225410   4.481   8.775  12.085
41135SOL     OW25411   8.743   8.382   1.269
41135SOL    HW125412  19.845   8.381   1.341
41135SOL    HW225413   8.700  -2.743   1.275
41136SOL     OW25414   9.522   7.210   0.193
41136SOL    HW125415   9.517  29.278  11.327
41136SOL    HW225416   9.440   7.254   0.169
41137SOL     OW25417  10.027  -0.394   1.028
41137SOL    HW125418  10.054  10.554  12.076
41137SOL    HW225419  10.030  -0.360   1.117
41138SOL     OW25420   9.634   9.718   1.726
41138SOL    HW125421  20.686   9.623   1.734
41138SOL    HW225422   9.635   9.750   1.816
41139SOL     OW25423   5.108   6.181   6.293
41139SOL    HW125424   5.065   6.150   6.373
41139SOL    HW225425   5.036   6.195 -37.927
41140SOL     OW25426   3.142   7.341   7.484
41140SOL    HW125427 -18.856   7.325   7.435
41140SOL    HW225428  -7.967   7.330   7.419
41141SOL     OW25429   7.518   6.575   9.447
41141SOL    HW125430  18.507   6.644   9.490
41141SOL    HW225431   7.608   6.607  20.488
41142SOL     OW25432   9.113   9.477   4.493
41142SOL    HW125433   9.156   9.556  37.644
41142SOL    HW225434   9.026  31.585   4.465
41143SOL     OW25435   6.916   4.505   6.890
41143SOL    HW125436  17.880  26.592   6.832
41143SOL    HW225437   6.895  -6.608   6.948
41144SOL     OW25438   6.308   5.534  13.768
41144SOL    HW125439   6.229   5.501  -8.269
41144SOL    HW225440   6.352 -27.532 -19.284
41145SOL     OW25441   5.726   2.283   8.992
41145SOL    HW125442   5.667   2.315   9.059
41145SOL    HW225443   5.705  -8.705   8.914
41146SOL     OW25444   2.516  11.522   4.664
41146SOL    HW125445   2.590 -10.616  26.760
41146SOL    HW225446   2.496  11.509   4.571
41147SOL     OW25447   1.375   9.436   6.696
41147SOL    HW125448   1.464   9.439   6.662
41147SOL    HW225449   1.334   9.363  39.769
41148SOL     OW25450   0.273   1.375   4.611
41148SOL    HW125451   0.271   1.350   4.518
41148SOL    HW225452   0.250   1.467   4.612
41149SOL     OW25453   5.719   2.490   0.609
41149SOL    HW125454   5.657  -8.593  11.590
41149SOL    HW225455 -27.350 -19.529   0.554
41150SOL     OW25456   0.705   0.588   2.418
41150SOL    HW125457   0.707  11.532 -41.730
41150SOL    HW225458   0.666   0.603  13.372
41151SOL     OW25459   3.410   3.077   7.206
41151SOL    HW125460   3.466  36.141   7.261
41151SOL    HW225461   3.447   3.071   7.119
41152SOL     OW25462   0.766   3.283   8.006
41152SOL    HW125463   0.825  25.419  30.135
41152SOL    HW225464  11.789   3.331   7.925
41153SOL     OW25465   0.674   4.544  11.000
41153SOL    HW125466 -10.312   4.483  11.051
41153SOL    HW225467  11.623  15.558  11.019
41154SOL     OW25468   3.103   7.696   1.016
41154SOL    HW125469   3.178   7.705   0.957
41154SOL    HW225470   3.037 -14.323   0.980
41155SOL     OW25471   6.968   6.991   3.693
41155SOL    HW125472   7.036  17.968   3.714
41155SOL    HW225473   6.927   7.011  36.895
41156SOL     OW25474   9.175   2.745   8.850
41156SOL    HW125475  20.219   2.705  -2.276
41156SOL    HW225476   9.090   2.789 -35.306
41157SOL     OW25477   1.737   1.838   4.400
41157SOL    HW125478   1.685   1.820  26.400
41157SOL    HW225479   1.797   1.763   4.406
41158SOL     OW25480   3.237   6.155   5.062
41158SOL    HW125481  25.309   6.220  16.171
41158SOL    HW225482   3.198  17.237  16.025
41159SOL     OW25483   3.955   2.092  -2.191
41159SOL    HW125484   4.045   2.100  53.040
41159SOL    HW225485  14.942   2.076  -2.113
41160SOL     OW25486   3.083   5.227  10.298
41160SOL    HW125487 -19.031   5.314  10.315
41160SOL    HW225488   3.019   5.186  10.240
41161SOL     OW25489   2.617   2.165   9.933
41161SOL    HW125490   2.580  -8.923  10.007
41161SOL    HW225491   2.711   2.152   9.940
41162SOL     OW25492   8.169   4.188   7.228
41162SOL    HW125493  -2.792   4.184  18.214
41162SOL    HW225494   8.182   4.264  29.363
41163SOL     OW25495  11.683   9.547  -0.977
41163SOL    HW125496   0.718   9.493  -0.952
41163SOL    HW225497 -54.533   9.578  21.014
41164SOL     OW25498   7.440   5.283   4.471
41164SOL    HW125499   7.536   5.282   4.478
41164SOL    HW225500  -3.620   5.214 -28.710
41165SOL     OW25501  10.765   3.658   5.559
41165SOL    HW125502  10.672  -7.405   5.555
41165SOL    HW225503  10.777   3.696   5.645
41166SOL     OW25504   4.100   0.276   1.765
41166SOL    HW125505   4.057  11.389   1.721
41166SOL    HW225506  15.229   0.277  -9.310
41167SOL     OW25507   0.805   6.076   4.502
41167SOL    HW125508   0.857   6.156   4.509
41167SOL    HW225509   0.797  17.085   4.592
41168SOL     OW25510   2.934   8.531   2.451
41168SOL    HW125511   2.929   8.620  24.497
41168SOL    HW225512   2.887   8.534   2.534
41169SOL     OW25513   2.144   2.934   9.469
41169SOL    HW125514   2.100   2.909   9.551
41169SOL    HW225515  -8.810   2.892  20.513
41170SOL     OW25516   6.139   0.423   6.450
41170SOL    HW125517  28.289  11.408   6.484
41170SOL    HW225518   6.134   0.497   6.510
41171SOL     OW25519   9.738   6.308   9.873
41171SOL    HW125520  -1.277  17.377   9.785
41171SOL    HW225521  -1.279   6.382 -23.189
41172SOL     OW25522   0.330   7.020   6.485
41172SOL    HW125523   0.243  18.046   6.522
41172SOL    HW225524   0.342  18.155   6.486
41173SOL     OW25525   7.215   3.357  11.457
41173SOL    HW125526   7.287   3.299  11.433
41173SOL    HW225527   7.258   3.436   0.450
41174SOL     OW25528   4.816   1.585   7.774
41174SOL    HW125529   4.733 -20.450  29.869
41174SOL    HW225530   4.792   1.494   7.756
41175SOL     OW25531  -0.068   3.282   2.946
41175SOL    HW125532  22.090   3.316   2.903
41175SOL    HW225533  33.048   3.326   3.031
41176SOL     OW25534  -0.455   2.930   2.615
41176SOL    HW125535  21.699   2.912   2.671
41176SOL    HW225536  -0.417   2.951   2.530
41177SOL     OW25537   5.119   9.279   9.282
41177SOL    HW125538  27.132   9.347  20.315
41177SOL    HW225539   5.092   9.213   9.218
41178SOL     OW25540   6.862   8.058   9.568
41178SOL    HW125541  28.953   7.982   9.625
41178SOL    HW225542   6.769  41.175  20.585
41179SOL     OW25543  12.817   7.398   0.707
41179SOL    HW125544 -20.279 -14.767 -10.368
41179SOL    HW225545  12.753   7.380   0.776
41180SOL     OW25546   7.970   8.919   7.858
41180SOL    HW125547  -3.028  20.006  18.826
41180SOL    HW225548   7.926  -2.194  29.895
41181SOL     OW25549   2.394   3.859   7.126
41181SOL    HW125550   2.404  -7.086   7.115
41181SOL    HW225551   2.387   3.847   7.221
41182SOL     OW25552   4.945   6.161   2.402
41182SOL    HW125553  38.066   6.068   2.379
41182SOL    HW225554   5.028  28.256 -19.633
41183SOL     OW25555   3.739   2.248   1.019
41183SOL    HW125556   3.810  13.251   1.072
41183SOL    HW225557  25.806   2.337   1.053
41184SOL     OW25558   8.277  12.721   8.339
41184SOL    HW125559   8.359 -31.387  -2.697
41184SOL    HW225560   8.260  12.698   8.430
41185SOL     OW25561   7.820   0.559   4.441
41185SOL    HW125562 -14.292   0.491  37.500
41185SOL    HW225563  -3.230   0.520   4.528
41186SOL     OW25564   4.020   8.170   6.552
41186SOL    HW125565  -7.107   8.144   6.583
41186SOL    HW225566   4.015  -2.878   6.456
41187SOL     OW25567   4.172   3.991   5.646
41187SOL    HW125568   4.106   3.929   5.678
41187SOL    HW225569  15.277  26.015   5.602
41188SOL     OW25570   3.625  10.061   8.919
41188SOL    HW125571   3.659  10.139   8.877
41188SOL    HW225572   3.618  10.084   9.012
41189SOL     OW25573   2.048  10.380   7.188
41189SOL    HW125574  -9.040  10.461   7.206
41189SOL    HW225575  -9.057  10.321  18.191
41190SOL     OW25576  -0.522  10.095  11.052
41190SOL    HW125577  10.501  10.177  11.006
41190SOL    HW225578  -0.609  21.103 -11.002
41191SOL     OW25579  10.311  11.463   4.030
41191SOL    HW125580  10.271   0.362   4.092
41191SOL    HW225581  10.398  11.479   4.065
41192SOL     OW25582   5.954   0.997   3.145
41192SOL    HW125583   5.957  45.082   3.206
41192SOL    HW225584   5.986   0.960   3.062
41193SOL     OW25585   4.908   0.015   3.136
41193SOL    HW125586   4.870  10.998  25.149
41193SOL    HW225587  -6.184   0.095 -18.947
41194SOL     OW25588   9.222   7.759   0.728
41194SOL    HW125589  -1.732   7.733  22.841
41194SOL    HW225590  20.209   7.776  22.885
41195SOL     OW25591   0.635   4.229   5.895
41195SOL    HW125592  11.687 -17.945   5.890
41195SOL    HW225593   0.588 -17.828   5.815
41196SOL     OW25594   6.699  10.650   7.439
41196SOL    HW125595   6.722  10.562 -14.668
41196SOL    HW225596  -4.269  10.705  -3.632
41197SOL     OW25597   2.312   7.935   1.236
41197SOL    HW125598   2.237 -14.128   1.293
41197SOL    HW225599   2.375 -25.232  34.409
41198SOL     OW25600   6.340   4.017   1.021
41198SOL    HW125601  -4.675   3.926 -10.035
41198SOL    HW225602   6.322   4.053   0.934
41199SOL     OW25603   1.925   1.641   3.449
41199SOL    HW125604   1.960   1.698   3.381
41199SOL    HW225605   1.931  12.593   3.412
41200SOL     OW25606   7.551   2.436   3.455
41200SOL    HW125607   7.637   2.466  25.502
41200SOL    HW225608  -3.472   2.347  14.526
41201SOL     OW25609   5.822   9.215   6.266
41201SOL    HW125610   5.892  31.348   6.302
41201SOL    HW225611   5.743 -12.811 -15.802
41202SOL     OW25612  10.500   9.570   1.041
41202SOL    HW125613  -0.632   9.571   1.015
41202SOL    HW225614  10.546   9.607   0.966
41203SOL     OW25615   7.007   1.782   5.778
41203SOL    HW125616   6.912   1.786  16.806
41203SOL    HW225617 -15.037  12.887   5.718
41204SOL     OW25618   7.210   2.790   9.329
41204SOL    HW125619   7.282  13.768   9.342
41204SOL    HW225620   7.154   2.779   9.406
41205SOL     OW25621   9.465   9.368   6.898
41205SOL    HW125622  20.522 -12.634   6.951
41205SOL    HW225623   9.491   9.393   6.809
41206SOL     OW25624   1.140   6.391   2.401
41206SOL    HW125625   1.122   6.308   2.444
41206SOL    HW225626   1.222   6.375   2.353
41207SOL     OW25627   8.756  -0.156   4.204
41207SOL    HW125628   8.755  -0.164   4.299
41207SOL    HW225629  19.816  22.015   4.187
41208SOL     OW25630   8.778   6.219   3.115
41208SOL    HW125631   8.695  17.289   3.151
41208SOL    HW225632   8.794   6.276   3.040
41209SOL     OW25633   5.733   0.226  10.543
41209SOL    HW125634  16.698   0.183  10.584
41209SOL    HW225635   5.695   0.303  10.500
41210SOL     OW25636   5.729   0.417   6.503
41210SOL    HW125637   5.794   0.352   6.476
41210SOL    HW225638   5.732  11.523   6.434
41211SOL     OW25639   1.635  10.754   1.609
41211SOL    HW125640  12.694  10.799   1.527
41211SOL    HW225641   1.641  10.822   1.676
41212SOL     OW25642   6.630   4.277   3.579
41212SOL    HW125643 -15.521  15.378  14.632
41212SOL    HW225644   6.681 -17.763   3.508
41213SOL     OW25645   4.215   8.939   2.218
41213SOL    HW125646   4.193   8.848   2.200
41213SOL    HW225647  -6.900   8.973  13.305
41214SOL     OW25648   3.928   4.038   1.625
41214SOL    HW125649  15.025  15.002   1.637
41214SOL    HW225650   3.925  48.238   1.711
41215SOL     OW25651   3.906  -0.049   7.920
41215SOL    HW125652   3.839  -0.117  -3.113
41215SOL    HW225653   3.906  22.073   8.006
41216SOL     OW25654   0.541   8.758   2.283
41216SOL    HW125655   0.615  30.782   2.258
41216SOL    HW225656   0.580   8.841   2.309
41217SOL     OW25657   9.941   0.273   5.101
41217SOL    HW125658   9.938   0.344  -5.875
41217SOL    HW225659   9.955  11.234   5.154
41218SOL     OW25660  -1.935   5.645   4.214
41218SOL    HW125661  -1.981   5.690   4.286
41218SOL    HW225662  42.166  -5.467  26.269
41219SOL     OW25663   0.855   0.386   9.885
41219SOL    HW125664   0.946   0.372  -1.129
41219SOL    HW225665   0.812   0.301   9.900
41220SOL     OW25666   8.092   9.708   2.662
41220SOL    HW125667  30.166   9.780   2.599
41220SOL    HW225668   8.059   9.632   2.614
41221SOL     OW25669   2.142  10.461   5.134
41221SOL    HW125670  -8.860  -0.517   5.071
41221SOL    HW225671   2.054  10.442   5.100
41222SOL     OW25672   1.210   6.791   4.778
41222SOL    HW125673   1.147   6.790 -17.373
41222SOL    HW225674   1.234   6.699 -28.328
41223SOL     OW25675   2.698   4.443   2.582
41223SOL    HW125676   2.629   4.388   2.546
41223SOL    HW225677  13.815   4.422   2.529
41224SOL     OW25678   2.945   5.103   5.296
41224SOL    HW125679   2.942 -27.959   5.373
41224SOL    HW225680   2.878   5.137   5.238
41225SOL     OW25681   8.760   4.893  10.070
41225SOL    HW125682   8.730   4.803  10.083
41225SOL    HW225683   8.836   4.885 -12.067
41226SOL     OW25684   8.324   5.664   1.321
41226SOL    HW125685   8.350   5.607   1.393
41226SOL    HW225686   8.303  -5.292   1.363
41227SOL     OW25687   7.027   5.215   4.004
41227SOL    HW125688   6.932   5.206   3.989
41227SOL    HW225689   7.034   5.284   4.070
41228SOL     OW25690  -0.892   5.742   9.900
41228SOL    HW125691  -0.899  -5.213   9.944
41228SOL    HW225692  43.340   5.698   9.943
41229SOL     OW25693   7.084   5.695   1.830
41229SOL    HW125694   7.106   5.729  -9.123
41229SOL    HW225695   7.053   5.771   1.781
41230SOL     OW25696   5.758   0.597   6.286
41230SOL    HW125697  -5.253   0.548   6.208
41230SOL    HW225698   5.823   0.666   6.296
41231SOL     OW25699   5.402   4.853   9.220
41231SOL    HW125700  27.531   4.930  20.287
41231SOL    HW225701   5.394  -6.177   9.125
41232SOL     OW25702   2.971   7.048   6.705
41232SOL    HW125703   2.925  18.088 -26.498
41232SOL    HW225704  -8.036   6.959  -4.326
41233SOL     OW25705   1.004   9.109   4.662
41233SOL    HW125706  23.131   9.153   4.733
41233SOL    HW225707   0.990   9.020   4.694
41234SOL     OW25708   3.918   7.703   8.828
41234SOL    HW125709  14.972   7.767   8.757
41234SOL    HW225710  25.926  -3.298 -13.199
41235SOL     OW25711  10.941   8.235   3.010
41235SOL    HW125712  11.018   8.180  -8.043
41235SOL    HW225713  10.976  41.442   3.023
41236SOL     OW25714   1.023   7.788   8.366
41236SOL    HW125715  34.086   7.740   8.304
41236SOL    HW225716   0.971   7.792  -2.594
41237SOL     OW25717   5.694   2.574   4.498
41237SOL    HW125718   5.714   2.509   4.565
41237SOL    HW225719 -16.370   2.529   4.415
41238SOL     OW25720  10.363   9.059   9.236
41238SOL    HW125721  -0.641  -2.069  -1.813
41238SOL    HW225722  10.277 -13.024   9.194
41239SOL     OW25723   9.058  -0.104   2.632
41239SOL    HW125724  20.139  -0.108  -8.321
41239SOL    HW225725   8.964  10.937   2.651
41240SOL     OW25726   3.233   4.236   2.875
41240SOL    HW125727   3.197   4.241 -30.332
41240SOL    HW225728 -18.761  -6.760   2.869
41241SOL     OW25729   4.086   5.824   5.515
41241SOL    HW125730 -18.011   5.740   5.558
41241SOL    HW225731   4.156   5.863   5.567
41242SOL     OW25732   2.654   9.702   2.368
41242SOL    HW125733   2.732  -1.327   2.313
41242SOL    HW225734  24.663 -12.400  -8.733
41243SOL     OW25735   8.211  10.256   4.736
41243SOL    HW125736   8.299  10.249  26.778
41243SOL    HW225737  19.203  10.181  26.778
41244SOL     OW25738   8.194   9.845   7.848
41244SOL    HW125739   8.275 -12.240  29.978
41244SOL    HW225740  -2.915 -12.250  18.952
41245SOL     OW25741   7.064   9.992  -0.317
41245SOL    HW125742   6.971  10.013  10.735
41245SOL    HW225743   7.101  10.069  -0.360
41246SOL     OW25744   9.754   7.087   1.680
41246SOL    HW125745   9.722   7.106   1.768
41246SOL    HW225746  20.889   7.083   1.690
41247SOL     OW25747   8.492   9.400  11.349
41247SOL    HW125748   8.412   9.451  11.344
41247SOL    HW225749  -2.577 -12.769   0.325
41248SOL     OW25750   5.256  11.105   3.837
41248SOL    HW125751   5.343  11.139   3.861
41248SOL    HW225752   5.225 -11.020   3.915
41249SOL     OW25753   2.678   4.413   4.042
41249SOL    HW125754   2.711 -17.748  -6.960
41249SOL    HW225755  13.639  15.472   4.092
41250SOL     OW25756   5.013   1.216   8.230
41250SOL    HW125757   4.940   1.203   8.291
41250SOL    HW225758 -28.028  12.228   8.278
41251SOL     OW25759   7.923   5.776   3.381
41251SOL    HW125760   7.928   5.750   3.473
41251SOL    HW225761  29.909   5.782  25.441
41252SOL     OW25762   2.139   4.984   3.165
41252SOL    HW125763   2.134  -5.968   3.204
41252SOL    HW225764   2.138  -6.115  14.280
41253SOL     OW25765   1.566   0.150   3.609
41253SOL    HW125766   1.661   0.147  14.658
41253SOL    HW225767   1.549   0.123  14.558
41254SOL     OW25768   0.550   4.031   7.015
41254SOL    HW125769   0.512  -7.066   7.082
41254SOL    HW225770  11.640   4.096  18.104
41255SOL     OW25771   7.411   8.660   3.748
41255SOL    HW125772   7.431   8.676   3.656
41255SOL    HW225773   7.490   8.617   3.782
41256SOL     OW25774   2.875   7.625   9.530
41256SOL    HW125775 -19.111  18.685 -45.671
41256SOL    HW225776   2.868   7.552  20.631
41257SOL     OW25777   1.647   2.546  10.181
41257SOL    HW125778   1.740   2.562  10.200
41257SOL    HW225779  12.646   2.537  10.267
41258SOL     OW25780   4.879   3.463   8.123
41258SOL    HW125781   4.808  14.560   8.149
41258SOL    HW225782   4.838  25.458   8.106
41259SOL     OW25783   3.512   8.224  -2.053
41259SOL    HW125784   3.560   8.304  -2.030
41259SOL    HW225785   3.581   8.162  42.080
41260SOL     OW25786   3.571   4.034   3.135
41260SOL    HW125787   3.545  26.205  14.181
41260SOL    HW225788   3.515  -7.041   3.065
41261SOL     OW25789   6.314   6.499   8.040
41261SOL    HW125790  -4.813 -15.589  19.042
41261SOL    HW225791   6.372 -15.577   7.963
41262SOL     OW25792  10.367  -0.696   3.866
41262SOL    HW125793  10.403  10.255   3.863
41262SOL    HW225794  10.370  21.414  14.815
41263SOL     OW25795   7.503  10.924  10.835
41263SOL    HW125796  -3.456  10.892  10.875
41263SOL    HW225797   7.531  10.996  -0.261
41264SOL     OW25798   8.409   7.911   8.588
41264SOL    HW125799 -13.590  -3.091  30.629
41264SOL    HW225800   8.412  -3.221   8.565
41265SOL     OW25801   0.934   9.102   9.350
41265SOL    HW125802  23.107  31.180   9.332
41265SOL    HW225803   0.910   9.195   9.348
41266SOL     OW25804   8.834   1.584   9.578
41266SOL    HW125805  -2.236   1.575  -1.371
41266SOL    HW225806   8.929  23.659   9.585
41267SOL     OW25807   7.899   6.242   5.215
41267SOL    HW125808   7.902   6.147  -5.834
41267SOL    HW225809   7.841  28.350  -5.895
41268SOL     OW25810   3.396   2.277   5.230
41268SOL    HW125811   3.320   2.227   5.261
41268SOL    HW225812   3.433   2.223   5.160
41269SOL     OW25813   9.582   3.362   6.053
41269SOL    HW125814   9.638  14.465  28.087
41269SOL    HW225815   9.633   3.334  17.168
41270SOL     OW25816   6.729   8.684   7.218
41270SOL    HW125817  -4.347   8.603  -3.858
41270SOL    HW225818   6.660   8.719   7.274
41271SOL     OW25819   8.804   9.593   2.243
41271SOL    HW125820  19.788   9.647   2.187
41271SOL    HW225821   8.746   9.560   2.311
41272SOL     OW25822   6.237   1.473   8.461
41272SOL    HW125823   6.207   1.539  -2.516
41272SOL    HW225824 -15.753   1.452  41.607
41273SOL     OW25825   7.628   3.819   2.498
41273SOL    HW125826  -3.422  14.933  13.597
41273SOL    HW225827  18.606   3.835   2.427
41274SOL     OW25828   8.590   0.160   5.315
41274SOL    HW125829   8.516   0.178 -27.861
41274SOL    HW225830   8.643   0.240   5.312
41275SOL     OW25831  10.245   1.738  10.848
41275SOL    HW125832  21.190   1.740  -0.202
41275SOL    HW225833 -11.815 -20.429  -0.157
41276SOL     OW25834  -1.413   0.701   9.931
41276SOL    HW125835   9.547   0.714   9.878
41276SOL    HW225836  20.634  11.726  10.020
41277SOL     OW25837   3.573  10.289   8.195
41277SOL    HW125838   3.526  10.363   8.158
41277SOL    HW225839   3.651  10.280   8.139
41278SOL     OW25840  12.120   1.119   0.270
41278SOL    HW125841  -9.962  -9.998   0.214
41278SOL    HW225842   1.053   1.087  11.396
41279SOL     OW25843   1.697   8.524   0.789
41279SOL    HW125844  12.820  19.525   0.763
41279SOL    HW225845   1.647   8.451   0.825
41280SOL     OW25846   2.348   7.540   2.345
41280SOL    HW125847  -8.748   7.566   2.272
41280SOL    HW225848   2.287   7.505 -19.669
41281SOL     OW25849   2.714   2.854   2.372
41281SOL    HW125850   2.646  13.839   2.411
41281SOL    HW225851   2.788  13.885  -8.607
41282SOL     OW25852   8.373   4.111   2.993
41282SOL    HW125853   8.359  -7.020   2.970
41282SOL    HW225854   8.309   4.129  14.100
41283SOL     OW25855   0.810   2.233   3.489
41283SOL    HW125856 -10.320   2.264   3.488
41283SOL    HW225857   0.849   2.274   3.566
41284SOL     OW25858   0.895   8.426   6.546
41284SOL    HW125859   0.881 -24.725   6.635
41284SOL    HW225860   0.807  -2.608   6.508
41285SOL     OW25861   5.384   8.285  11.500
41285SOL    HW125862   5.317  30.331  11.439
41285SOL    HW225863  16.449   8.370   0.424
41286SOL     OW25864   5.752   9.168   5.189
41286SOL    HW125865   5.762   9.143   5.281
41286SOL    HW225866   5.830   9.221  16.210
41287SOL     OW25867   1.878   9.418  -0.536
41287SOL    HW125868  34.959   9.490  10.454
41287SOL    HW225869   1.935   9.461  -0.471
41288SOL     OW25870   4.222   5.557   4.845
41288SOL    HW125871  15.191   5.529   4.787
41288SOL    HW225872  26.258  27.681  15.956
41289SOL     OW25873   1.886  10.818   6.919
41289SOL    HW125874   1.832  10.830   6.841
41289SOL    HW225875  13.001  -0.271 -37.270
41290SOL     OW25876   2.431   3.351  -0.038
41290SOL    HW125877  -8.644   3.374   0.048
41290SOL    HW225878   2.525   3.341  22.057
41291SOL     OW25879   7.463   6.281   4.172
41291SOL    HW125880  -3.634   6.253  15.283
41291SOL    HW225881   7.410  -4.768   4.093
41292SOL     OW25882   1.640   2.182   3.044
41292SOL    HW125883  45.856   2.248   3.082
41292SOL    HW225884   1.616   2.216   2.958
41293SOL     OW25885   3.366   1.798   9.900
41293SOL    HW125886  -7.645   1.890   9.899
41293SOL    HW225887   3.314  -9.250  -1.060
41294SOL     OW25888   7.716  10.895   1.032
41294SOL    HW125889   7.693  10.956   1.102
41294SOL    HW225890   7.795  10.933   0.993
41295SOL     OW25891   3.787   1.172   7.156
41295SOL    HW125892   3.874   1.210  18.181
41295SOL    HW225893   3.733  34.366  18.221
41296SOL     OW25894   7.283   8.063   3.114
41296SOL    HW125895  29.431 -14.030  -7.861
41296SOL    HW225896  -3.742   8.152  -7.958
41297SOL     OW25897   4.146   3.049   4.854
41297SOL    HW125898  15.161   2.958   4.873
41297SOL    HW225899   4.188   3.045   4.768
41298SOL     OW25900   4.049   6.740   9.337
41298SOL    HW125901   4.116  -4.368   9.332
41298SOL    HW225902   4.088   6.810   9.389
41299SOL     OW25903   1.494   5.662   1.504
41299SOL    HW125904   1.488  -5.409 -20.485
41299SOL    HW225905   1.420   5.722   1.494
41300SOL     OW25906   6.359   2.403   7.058
41300SOL    HW125907   6.427   2.427   6.996
41300SOL    HW225908   6.278  -8.600   7.021
41301SOL     OW25909   4.086  10.872   4.422
41301SOL    HW125910 -40.062  10.819   4.500
41301SOL    HW225911   4.000  10.848   4.387
41302SOL     OW25912   5.257   2.141   7.330
41302SOL    HW125913  -5.759  -8.932   7.417
41302SOL    HW225914   5.181  13.128  18.344
41303SOL     OW25915   8.775   0.984   3.717
41303SOL    HW125916   8.763   0.907   3.772
41303SOL    HW225917  19.808   1.058 -18.302
41304SOL     OW25918   2.049   1.284   2.483
41304SOL    HW125919  -8.904   1.292  13.564
41304SOL    HW225920   2.019   1.196   2.507
41305SOL     OW25921   6.374   3.935   5.173
41305SOL    HW125922  50.465   3.993  -5.900
41305SOL    HW225923  17.470   3.990  -5.813
41306SOL     OW25924   3.398  -1.557   3.661
41306SOL    HW125925   3.403  20.549   3.753
41306SOL    HW225926   3.356   9.396   3.664
41307SOL     OW25927   3.753   9.589   3.877
41307SOL    HW125928  14.824  31.630  14.999
41307SOL    HW225929   3.728   9.514   3.823
41308SOL     OW25930   0.778   2.363   9.274
41308SOL    HW125931 -10.186   2.344   9.330
41308SOL    HW225932   0.810   2.349   9.185
41309SOL     OW25933   2.167   9.658  10.438
41309SOL    HW125934   2.135   9.712  -0.673
41309SOL    HW225935   2.238  -1.433  10.400
41310SOL     OW25936   0.794   7.146  11.060
41310SOL    HW125937   0.802  -3.801  11.040
41310SOL    HW225938   0.700  18.169   0.022
41311SOL     OW25939   1.177   7.706   4.839
41311SOL    HW125940   1.096   7.686   4.886
41311SOL    HW225941   1.165   7.796  -6.232
41312SOL     OW25942   4.782   1.720   4.580
41312SOL    HW125943  15.810  12.757  15.525
41312SOL    HW225944   4.703   1.677   4.615
41313SOL     OW25945   4.427   3.951   2.084
41313SOL    HW125946   4.510   3.919  -8.991
41313SOL    HW225947   4.374   3.971  13.046
41314SOL     OW25948   3.392   1.568   0.610
41314SOL    HW125949   3.330   1.610   0.670
41314SOL    HW225950   3.462  -9.504   0.667
41315SOL     OW25951  10.970   3.216   1.153
41315SOL    HW125952  11.021  -7.897   1.119
41315SOL    HW225953  11.002   3.292  12.144
41316SOL     OW25954   7.022   9.402   2.057
41316SOL    HW125955   7.084 -23.648   2.082
41316SOL    HW225956   6.977 -23.680   1.981
41317SOL     OW25957   1.174   7.714   3.171
41317SOL    HW125958   1.232   7.723   3.095
41317SOL    HW225959   1.124  -3.405   3.153
41318SOL     OW25960   8.881   6.835   7.851
41318SOL    HW125961   8.969   6.870   7.847
41318SOL    HW225962   8.859   6.813  18.800
41319SOL     OW25963   9.126   4.608  -0.266
41319SOL    HW125964  20.159   4.564  -0.181
41319SOL    HW225965   9.216   4.591  10.746
41320SOL     OW25966   3.493   2.662   8.795
41320SOL    HW125967   3.542  -8.390   8.714
41320SOL    HW225968   3.557  -8.340   8.856
41321SOL     OW25969   7.011   6.256   9.402
41321SOL    HW125970   7.017   6.257  20.537
41321SOL    HW225971  40.220   6.254   9.372
41322SOL     OW25972  11.019  11.044  10.592
41322SOL    HW125973 -11.066  -0.090  -0.466
41322SOL    HW225974  10.929  11.075  -0.454
41323SOL     OW25975   8.028   2.237  11.536
41323SOL    HW125976   8.020   2.238 -10.639
41323SOL    HW225977   8.004   2.148   0.521
41324SOL     OW25978  10.754   9.904   5.293
41324SOL    HW125979 -22.442 -12.185   5.237
41324SOL    HW225980  10.825  -1.119   5.232
41325SOL     OW25981   6.544   8.767   1.644
41325SOL    HW125982  -4.412 -13.328   1.602
41325SOL    HW225983   6.479   8.746   1.578
41326SOL     OW25984   3.351   7.360   5.489
41326SOL    HW125985   3.382   7.270   5.501
41326SOL    HW225986   3.377   7.405  16.609
41327SOL     OW25987   7.543   1.768   5.972
41327SOL    HW125988   7.560  -9.196   5.917
41327SOL    HW225989 -14.629   1.774  28.072
41328SOL     OW25990  10.614   1.750   1.848
41328SOL    HW125991  10.607  -9.312   1.755
41328SOL    HW225992  10.690   1.809   1.853
41329SOL     OW25993   4.587   3.582   7.513
41329SOL    HW125994   4.523   3.653   7.511
41329SOL    HW225995   4.552   3.516   7.453
41330SOL     OW25996   8.061   6.149   8.741
41330SOL    HW125997  -3.018  17.166   8.826
41330SOL    HW225998  19.171   6.085  19.770
41331SOL     OW25999   0.178   6.129   1.203
41331SOL    HW126000   0.139 -38.105   1.247
41331SOL    HW226001  11.193   6.118   1.111
41332SOL     OW26002   3.879   1.797   0.056
41332SOL    HW126003  14.878   1.884   0.058
41332SOL    HW226004  14.889   1.759  44.131
41333SOL     OW26005   1.475   5.644  10.246
41333SOL    HW126006   1.505   5.732  10.268
41333SOL    HW226007   1.424  -5.383 -11.914
41334SOL     OW26008   7.403   2.989   9.015
41334SOL    HW126009  -3.701   2.917   9.017
41334SOL    HW226010   7.384   3.040   9.094
41335SOL     OW26011   9.752   1.993  10.847
41335SOL    HW126012   9.762   2.062 -11.297
41335SOL    HW226013  -1.379  24.079  -0.164
41336SOL     OW26014   6.524   0.270   8.224
41336SOL    HW126015  17.479   0.228   8.241
41336SOL    HW226016   6.519  11.336   8.132
41337SOL     OW26017   2.031  -0.090   0.531
41337SOL    HW126018   2.106  22.039   0.564
41337SOL    HW226019  -8.981  21.960   0.444
41338SOL     OW26020   5.804   7.778   8.244
41338SOL    HW126021   5.887   7.742   8.276
41338SOL    HW226022   5.741   7.708   8.259
41339SOL     OW26023  10.859   4.034   6.786
41339SOL    HW126024  10.768   4.051  39.879
41339SOL    HW226025  10.852  15.003   6.851
41340SOL     OW26026   4.837   5.510   3.850
41340SOL    HW126027   4.752  16.552   3.804
41340SOL    HW226028  15.857   5.543   3.938
41341SOL     OW26029   1.607   8.761  12.163
41341SOL    HW126030  12.572  -2.270  -9.975
41341SOL    HW226031  23.760   8.738  12.107
41342SOL     OW26032   6.715   5.957   8.481
41342SOL    HW126033   6.634   5.985   8.439
41342SOL    HW226034  17.813   5.935   8.408
41343SOL     OW26035   7.315   3.107   8.591
41343SOL    HW126036   7.260   3.134 -24.455
41343SOL    HW226037   7.310   3.179  30.608
41344SOL     OW26038  -1.019   7.049   8.942
41344SOL    HW126039  10.106 -26.103   8.916
41344SOL    HW226040   9.965  18.071   8.866
41345SOL     OW26041   1.689   6.391   6.316
41345SOL    HW126042  12.653   6.340   6.345
41345SOL    HW226043   1.652   6.458 -37.900
41346SOL     OW26044   2.064   2.860  -0.286
41346SOL    HW126045   2.019   2.942  -0.265
41346SOL    HW226046   2.069  -8.180  10.658
41347SOL     OW26047   5.514  10.767   5.635
41347SOL    HW126048   5.515  10.803   5.723
41347SOL    HW226049   5.532  10.673   5.647
41348SOL     OW26050   5.536  11.291   6.867
41348SOL    HW126051   5.510 -10.779   6.959
41348SOL    HW226052   5.465   0.201   6.827
41349SOL     OW26053  10.058  10.428   9.650
41349SOL    HW126054  10.064  10.448   9.557
41349SOL    HW226055  10.114  10.492   9.692
41350SOL     OW26056   0.485   0.906   5.552
41350SOL    HW126057   0.448  12.023  16.550
41350SOL    HW226058   0.498 -10.108   5.643
41351SOL     OW26059   8.011   5.216  10.515
41351SOL    HW126060   8.033   5.210  -0.617
41351SOL    HW226061   8.096   5.225  -0.480
41352SOL     OW26062   3.796   6.065   1.579
41352SOL    HW126063   3.766  -5.004   1.665
41352SOL    HW226064   3.758  -5.037   1.517
41353SOL     OW26065  10.965   9.356   1.411
41353SOL    HW126066  10.957   9.377   1.504
41353SOL    HW226067  -0.073  20.480  45.525
41354SOL     OW26068   2.988   1.507   4.122
41354SOL    HW126069 -19.081   1.457  15.243
41354SOL    HW226070   2.901  -9.494   4.128
41355SOL     OW26071   3.430   4.169   8.308
41355SOL    HW126072   3.441 -17.897  19.441
41355SOL    HW226073   3.395   4.252  30.355
41356SOL     OW26074  10.713   9.698   5.474
41356SOL    HW126075  10.794   9.725   5.517
41356SOL    HW226076 -11.381  20.805 -16.672
41357SOL     OW26077  10.628   4.157   2.504
41357SOL    HW126078  10.694   4.118   2.447
41357SOL    HW226079  10.620   4.247  13.513
41358SOL     OW26080  11.882  10.351   3.594
41358SOL    HW126081  11.930  10.420  14.588
41358SOL    HW226082 -10.130  21.331 -18.452
41359SOL     OW26083   7.528   4.548   8.626
41359SOL    HW126084   7.549   4.626   8.574
41359SOL    HW226085   7.444   4.569   8.667
41360SOL     OW26086   2.516   9.690   6.639
41360SOL    HW126087   2.574  -1.330   6.712
41360SOL    HW226088  -8.611   9.690 -15.401
41361SOL     OW26089  10.388   8.120   2.518
41361SOL    HW126090  10.414   8.082 -19.477
41361SOL    HW226091  10.468   8.122   2.466
41362SOL     OW26092   9.394   9.764   8.149
41362SOL    HW126093  31.443   9.846   8.187
41362SOL    HW226094   9.340   9.753   8.070
41363SOL     OW26095   6.696   8.526  11.543
41363SOL    HW126096  17.829   8.509  11.557
41363SOL    HW226097  17.727  41.740 -21.568
41364SOL     OW26098   0.888   7.265   5.495
41364SOL    HW126099   0.963 -14.768   5.457
41364SOL    HW226100   0.817   7.329  -5.547
41365SOL     OW26101   3.792   7.824   7.934
41365SOL    HW126102   3.709   7.869   7.917
41365SOL    HW226103   3.772   7.731   7.922
41366SOL     OW26104   9.246   4.436   9.681
41366SOL    HW126105 -12.860   4.489   9.606
41366SOL    HW226106 -12.785 -17.583   9.738
41367SOL     OW26107   9.703   5.720   9.145
41367SOL    HW126108  -1.420   5.702  20.142
41367SOL    HW226109   9.687   5.801   9.194
41368SOL     OW26110   6.148   2.967   2.392
41368SOL    HW126111   6.184  25.056   2.304
41368SOL    HW226112  17.098  13.977  -8.661
41369SOL     OW26113  11.594   4.541   4.632
41369SOL    HW126114 -32.657  26.641  15.679
41369SOL    HW226115 -10.456  15.630   4.555
41370SOL     OW26116   4.618   4.463   0.790
41370SOL    HW126117   4.707   4.460 -10.284
41370SOL    HW226118  -6.427   4.547   0.836
41371SOL     OW26119   9.967   9.314   0.071
41371SOL    HW126120  10.020   9.290  11.035
41371SOL    HW226121  20.981   9.405  33.173
41372SOL     OW26122   6.800   4.361   1.904
41372SOL    HW126123   6.794   4.268  24.004
41372SOL    HW226124   6.756   4.370  -9.219
41373SOL     OW26125   9.356   1.544   6.495
41373SOL    HW126126   9.360   1.569   6.587
41373SOL    HW226127  31.377   1.468   6.493
41374SOL     OW26128   7.134   5.878   0.969
41374SOL    HW126129   7.133   5.792   0.926
41374SOL    HW226130   7.047   5.913   0.954
41375SOL     OW26131   1.516  -0.138  -0.494
41375SOL    HW126132  -9.455  10.917  10.610
41375SOL    HW226133   1.484  -0.226  -0.475
41376SOL     OW26134   4.989  10.577   5.519
41376SOL    HW126135  27.042  10.495   5.561
41376SOL    HW226136   4.938  10.644  16.603
41377SOL     OW26137   4.429   2.355   1.821
41377SOL    HW126138   4.461   2.401   1.899
41377SOL    HW226139 -17.573  24.389   1.787
41378SOL     OW26140   9.099   7.092   4.624
41378SOL    HW126141   9.115   7.009  15.707
41378SOL    HW226142   9.039  18.111   4.552
41379SOL     OW26143   9.460   7.483   4.087
41379SOL    HW126144   9.404  18.468  -6.897
41379SOL    HW226145   9.541   7.433   4.078
41380SOL     OW26146  10.735   8.294   6.380
41380SOL    HW126147  10.719  -2.669   6.434
41380SOL    HW226148  10.755  -2.816   6.442
41381SOL     OW26149  10.095   7.130   4.269
41381SOL    HW126150  10.138   7.083  15.236
41381SOL    HW226151  10.119   7.081   4.347
41382SOL     OW26152   5.525   2.257   3.355
41382SOL    HW126153   5.566   2.338  25.402
41382SOL    HW226154   5.588   2.189   3.334
41383SOL     OW26155   9.666   1.019   2.380
41383SOL    HW126156   9.720   1.026  35.420
41383SOL    HW226157   9.638   0.927   2.381
41384SOL     OW26158   9.258  10.590   3.048
41384SOL    HW126159   9.262  10.534  25.205
41384SOL    HW226160   9.202  10.663   3.074
41385SOL     OW26161   6.069   4.106  10.417
41385SOL    HW126162   6.135 -18.013  10.474
41385SOL    HW226163   6.017 -18.047  10.386
41386SOL     OW26164   4.891   5.079   7.977
41386SOL    HW126165   4.933   5.009   8.026
41386SOL    HW226166   4.797   5.063   7.987
41387SOL     OW26167   6.156   7.388   8.933
41387SOL    HW126168   6.101   7.325   8.980
41387SOL    HW226169  17.285   7.366  19.998
41388SOL     OW26170   3.173   4.295  -1.539
41388SOL    HW126171   3.184   4.276  42.526
41388SOL    HW226172   3.212  15.258  -1.495
41389SOL     OW26173   8.625   1.345   1.227
41389SOL    HW126174   8.634  12.467  12.316
41389SOL    HW226175  -2.508  12.376   1.212
41390SOL     OW26176   2.639   6.882   5.150
41390SOL    HW126177  -8.449  28.879   5.155
41390SOL    HW226178   2.685  17.928   5.233
41391SOL     OW26179   6.175  10.213   0.810
41391SOL    HW126180   6.142  21.164   0.797
41391SOL    HW226181  17.181  10.239   0.896
41392SOL     OW26182   8.492  10.038   1.048
41392SOL    HW126183   8.489  -0.950  12.168
41392SOL    HW226184   8.507  10.103   0.979
41393SOL     OW26185   6.729   9.695   1.647
41393SOL    HW126186   6.672  20.688   1.585
41393SOL    HW226187   6.670   9.719   1.719
41394SOL     OW26188   2.637   4.208   7.484
41394SOL    HW126189   2.662   4.300   7.494
41394SOL    HW226190   2.574   4.192  -3.485
41395SOL     OW26191   5.381   5.046   4.515
41395SOL    HW126192 -27.828   5.057  48.702
41395SOL    HW226193   5.428   5.118  15.597
41396SOL     OW26194   6.988   3.196   5.854
41396SOL    HW126195   6.935  14.166   5.894
41396SOL    HW226196   6.937   3.223   5.777
41397SOL     OW26197   8.455   6.051   3.244
41397SOL    HW126198   8.404   6.132   3.247
41397SOL    HW226199  -2.634   5.994   3.186
41398SOL     OW26200   9.920   9.834   5.323
41398SOL    HW126201   9.902 -12.163   5.276
41398SOL    HW226202   9.900   9.854  27.493
41399SOL     OW26203   6.566   0.598   9.420
41399SOL    HW126204   6.548   0.519  -1.671
41399SOL    HW226205   6.660   0.595  20.477
41400SOL     OW26206   9.432   0.060   5.193
41400SOL    HW126207   9.352   0.012  27.296
41400SOL    HW226208   9.417  22.167   5.103
41401SOL     OW26209   5.136  10.273   6.291
41401SOL    HW126210  -5.891  21.238   6.232
41401SOL    HW226211   5.129  10.234  17.418
41402SOL     OW26212   4.397   0.258   3.446
41402SOL    HW126213   4.487   0.284   3.466
41402SOL    HW226214   4.384  11.216   3.495
41403SOL     OW26215   0.908   1.318   4.489
41403SOL    HW126216   0.912   1.393  15.469
41403SOL    HW226217  11.868   1.272   4.464
41404SOL     OW26218   1.816  11.213   3.922
41404SOL    HW126219   1.789  11.233   3.832
41404SOL    HW226220   1.779   0.087   3.939
41405SOL     OW26221  -0.517   2.810   9.887
41405SOL    HW126222  21.648  13.842   9.846
41405SOL    HW226223  -0.499  24.931  21.012
41406SOL     OW26224   5.992   6.853   1.716
41406SOL    HW126225   6.033   6.782   1.667
41406SOL    HW226226   6.021   6.840  12.846
41407SOL     OW26227   7.870   7.974  10.761
41407SOL    HW126228   7.935   7.938  10.820
41407SOL    HW226229 -14.281 -14.077  -0.222
41408SOL     OW26230   7.940   5.387   8.376
41408SOL    HW126231   7.939   5.458  19.351
41408SOL    HW226232  18.902   5.402   8.430
41409SOL     OW26233   0.936  10.987   4.983
41409SOL    HW126234   0.985  11.007  15.943
41409SOL    HW226235   0.852  10.954   4.951
41410SOL     OW26236   5.151   2.818  -0.334
41410SOL    HW126237   5.062   2.815  43.859
41410SOL    HW226238   5.193  -8.300  21.780
41411SOL     OW26239   2.869   4.825   6.052
41411SOL    HW126240  13.813   4.828   6.047
41411SOL    HW226241   2.891   4.732   6.038
41412SOL     OW26242   9.809   2.465   3.259
41412SOL    HW126243   9.795  24.477  14.232
41412SOL    HW226244  -1.151   2.511   3.231
41413SOL     OW26245   3.932   4.630   6.461
41413SOL    HW126246   3.929   4.550   6.513
41413SOL    HW226247   3.895  -6.342   6.518
41414SOL     OW26248   7.215   3.282   4.039
41414SOL    HW126249 -36.914  14.349 -18.127
41414SOL    HW226250  -3.836   3.364   4.087
41415SOL     OW26251   0.876  11.077   3.688
41415SOL    HW126252   0.959  11.062   3.642
41415SOL    HW226253   0.809   0.015   3.623
41416SOL     OW26254   9.824   4.961   9.705
41416SOL    HW126255   9.826   5.016  20.823
41416SOL    HW226256   9.795   5.020   9.636
41417SOL     OW26257   6.921   8.535   9.874
41417SOL    HW126258   6.882   8.585   9.803
41417SOL    HW226259  51.171   8.525   9.849
41418SOL     OW26260   5.318   7.477   7.307
41418SOL    HW126261  -5.658   7.524   7.253
41418SOL    HW226262   5.254   7.543   7.332
41419SOL     OW26263   1.864   4.144   4.411
41419SOL    HW126264 -20.261   4.205   4.468
41419SOL    HW226265   1.820   4.153   4.326
41420SOL     OW26266   1.854   7.432   3.732
41420SOL    HW126267  -9.221   7.419  -7.219
41420SOL    HW226268   1.886   7.522   3.733
41421SOL     OW26269   1.318   3.442   6.196
41421SOL    HW126270   1.223   3.436   6.191
41421SOL    HW226271   1.335  14.511   6.286
41422SOL     OW26272   3.767   5.328   5.729
41422SOL    HW126273   3.681   5.335   5.687
41422SOL    HW226274  14.843   5.246   5.696
41423SOL     OW26275   2.973   0.461   8.656
41423SOL    HW126276   3.031   0.436  19.624
41423SOL    HW226277   2.885  11.487  -2.418
41424SOL     OW26278   8.718   5.941   1.703
41424SOL    HW126279  19.719  16.934  23.708
41424SOL    HW226280   8.659 -16.155 -20.304
41425SOL     OW26281   6.119   6.241   2.184
41425SOL    HW126282   6.110   6.233   2.089
41425SOL    HW226283   6.213   6.240   2.200
41426SOL     OW26284  11.442   7.982   2.356
41426SOL    HW126285  11.418  19.112   2.373
41426SOL    HW226286   0.320   7.937  24.420
41427SOL     OW26287   9.667   6.563   7.500
41427SOL    HW126288   9.741   6.575   7.440
41427SOL    HW226289   9.639   6.652   7.522
41428SOL     OW26290   3.984   0.110   2.978
41428SOL    HW126291 -18.157   0.166   3.026
41428SOL    HW226292   3.969   0.023 -30.105
41429SOL     OW26293  10.246   7.623   0.346
41429SOL    HW126294  10.293  -3.394   0.266
41429SOL    HW226295  10.154   7.619   0.320
41430SOL     OW26296   7.995  10.228   9.879
41430SOL    HW126297   7.930  21.242   9.945
41430SOL    HW226298   8.073  10.251   9.930
41431SOL     OW26299  10.818   7.888   3.628
41431SOL    HW126300  10.806   7.978  -7.380
41431SOL    HW226301  10.774  18.873   3.693
41432SOL     OW26302  10.892   7.134   2.634
41432SOL    HW126303  10.864   7.145  13.764
41432SOL    HW226304  -0.145   7.223   2.599
41433SOL     OW26305   5.574   9.583  10.827
41433SOL    HW126306   5.557   9.549  10.915
41433SOL    HW226307   5.519   9.528  -0.270
41434SOL     OW26308   1.010  10.312   2.159
41434SOL    HW126309   0.941  10.255   2.125
41434SOL    HW226310  23.145  10.253   2.210
41435SOL     OW26311   7.317   1.084   4.068
41435SOL    HW126312   7.337   1.145   3.997
41435SOL    HW226313  29.465   1.018   4.064
41436SOL     OW26314   8.100   6.358   1.350
41436SOL    HW126315   8.150  -4.667   1.430
41436SOL    HW226316   8.037   6.290   1.375
41437SOL     OW26317   7.362   3.661   9.250
41437SOL    HW126318  -3.722   3.739   9.217
41437SOL    HW226319   7.309   3.588   9.218
41438SOL     OW26320   3.875   9.654   4.465
41438SOL    HW126321   3.832   9.706   4.397
41438SOL    HW226322  36.931   9.586   4.487
41439SOL     OW26323   2.385   4.034   9.456
41439SOL    HW126324   2.340   4.118  -1.579
41439SOL    HW226325   2.478   4.055  -1.571
41440SOL     OW26326   5.035   2.982   4.954
41440SOL    HW126327   5.093   2.994   5.029
41440SOL    HW226328  16.011  14.093   4.961
41441SOL     OW26329  10.969   4.339   9.258
41441SOL    HW126330  10.926   4.267   9.213
41441SOL    HW226331  10.999   4.301   9.341
41442SOL     OW26332   6.170   4.631   0.496
41442SOL    HW126333   6.240  26.673  11.588
41442SOL    HW226334   6.093   4.579   0.518
41443SOL     OW26335   8.737   5.785   2.229
41443SOL    HW126336  30.813  -5.213  -8.725
41443SOL    HW226337   8.727   5.857   2.166
41444SOL     OW26338   4.364   5.652   3.702
41444SOL    HW126339   4.323  -5.400  14.827
41444SOL    HW226340   4.395   5.742  36.822
41445SOL     OW26341   3.850   7.634   3.200
41445SOL    HW126342   3.785  -3.388  14.171
41445SOL    HW226343   3.928  18.643   3.152
41446SOL     OW26344   3.051   5.913   8.579
41446SOL    HW126345   3.110   5.852   8.535
41446SOL    HW226346   3.095 -16.081  -2.466
41447SOL     OW26347   0.515   1.180  11.747
41447SOL    HW126348   0.569  23.209 -21.432
41447SOL    HW226349   0.536   1.145  11.833
41448SOL     OW26350   2.282  10.781   9.023
41448SOL    HW126351   2.210  10.769   9.086
41448SOL    HW226352   2.241  10.771  -2.102
41449SOL     OW26353   9.171   2.427   3.215
41449SOL    HW126354  -1.960   2.431 -29.878
41449SOL    HW226355   9.170  -8.645   3.125
41450SOL     OW26356  11.851   8.618   8.281
41450SOL    HW126357  11.761   8.633   8.309
41450SOL    HW226358 -10.224  19.564   8.262
41451SOL     OW26359  11.528   2.980   2.673
41451SOL    HW126360 -10.563   2.962   2.580
41451SOL    HW226361 -21.497   2.973  -8.351
41452SOL     OW26362   8.565   9.593   7.527
41452SOL    HW126363   8.629   9.662   7.508
41452SOL    HW226364   8.501   9.634   7.585
41453SOL     OW26365   6.348   2.939  10.202
41453SOL    HW126366   6.296  -8.144  10.269
41453SOL    HW226367   6.367  -8.169  21.177
41454SOL     OW26368   4.317   5.299  11.530
41454SOL    HW126369  -6.726  -5.677 -21.659
41454SOL    HW226370  15.265   5.275  11.546
41455SOL     OW26371   5.133   1.893  10.470
41455SOL    HW126372   5.149  -9.218  10.532
41455SOL    HW226373   5.113   1.969  10.524
41456SOL     OW26374   8.339   6.031   7.158
41456SOL    HW126375   8.389   5.950   7.171
41456SOL    HW226376 -13.786   6.017   7.075
41457SOL     OW26377   7.605   2.176   3.487
41457SOL    HW126378   7.512  13.201  25.549
41457SOL    HW226379   7.613   2.172  14.622
41458SOL     OW26380   3.994   3.809   6.032
41458SOL    HW126381   4.009  -7.288   6.107
41458SOL    HW226382   3.940  14.920  17.106
41459SOL     OW26383   4.181   6.129   9.867
41459SOL    HW126384   4.163 -16.021  -1.111
41459SOL    HW226385   4.095   6.167   9.848
41460SOL     OW26386  10.586  12.550  10.078
41460SOL    HW126387  10.627  12.481  10.131
41460SOL    HW226388  10.502 -20.552  10.120
41461SOL     OW26389  10.897   3.864   0.294
41461SOL    HW126390  -0.095   3.944   0.316
41461SOL    HW226391  10.961 -18.285   0.306
41462SOL     OW26392   4.756   3.326   4.302
41462SOL    HW126393   4.746   3.359   4.391
41462SOL    HW226394   4.851   3.313   4.292
41463SOL     OW26395   6.473   9.127   2.268
41463SOL    HW126396   6.440   9.059  13.365
41463SOL    HW226397   6.552  20.129   2.229
41464SOL     OW26398   4.412   8.483   4.738
41464SOL    HW126399  15.515   8.416 -17.368
41464SOL    HW226400   4.433   8.500   4.830
41465SOL     OW26401   2.096   2.559   8.724
41465SOL    HW126402   2.164   2.534   8.788
41465SOL    HW226403   2.114   2.651   8.705
41466SOL     OW26404  -1.888   4.217   2.378
41466SOL    HW126405  20.220   4.189   2.291
41466SOL    HW226406  20.098   4.196  13.419
41467SOL     OW26407  10.004   9.291   6.102
41467SOL    HW126408 -12.093   9.197   6.099
41467SOL    HW226409  10.039   9.311   6.016
41468SOL     OW26410   9.417   3.798   6.844
41468SOL    HW126411   9.482  -7.311   6.852
41468SOL    HW226412  20.498   3.874   6.887
41469SOL     OW26413   5.692   5.493   2.802
41469SOL    HW126414  27.734   5.537   2.878
41469SOL    HW226415   5.706   5.403   2.831
41470SOL     OW26416   1.491   5.611   9.847
41470SOL    HW126417   1.399  38.716   9.867
41470SOL    HW226418   1.495  16.738   9.808
41471SOL     OW26419   9.904   1.049   9.231
41471SOL    HW126420   9.937   1.049   9.320
41471SOL    HW226421   9.846   1.126   9.227
41472SOL     OW26422   8.241   7.334   8.313
41472SOL    HW126423   8.307   7.306   8.250
41472SOL    HW226424   8.204 -14.665   8.276
41473SOL     OW26425   8.696   6.982   8.014
41473SOL    HW126426   8.744   6.918   7.962
41473SOL    HW226427   8.754  -3.982   8.020
41474SOL     OW26428   6.129   4.618   2.480
41474SOL    HW126429   6.216   4.655   2.496
41474SOL    HW226430  -4.938   4.584   2.565
41475SOL     OW26431   0.120   0.479   5.940
41475SOL    HW126432   0.145   0.510   5.853
41475SOL    HW226433   0.030   0.448   5.930
41476SOL     OW26434  -0.405   8.178   5.975
41476SOL    HW126435 -11.442  41.201   5.965
41476SOL    HW226436  21.765   8.205  -5.069
41477SOL     OW26437   4.272   8.618   0.839
41477SOL    HW126438   4.336  30.759   0.874
41477SOL    HW226439  -6.761   8.629   0.744
41478SOL     OW26440  11.562   5.083   7.338
41478SOL    HW126441  11.560 -28.041   7.242
41478SOL    HW226442   0.444   5.036   7.366
41479SOL     OW26443   4.009   6.912  -0.093
41479SOL    HW126444  -6.939   6.923  10.971
41479SOL    HW226445   3.976   7.001  -0.103
41480SOL     OW26446   3.512  11.781   4.910
41480SOL    HW126447 -18.516  11.713  -6.087
41480SOL    HW226448   3.524 -10.314 -17.263
41481SOL     OW26449   5.421   4.353  10.395
41481SOL    HW126450   5.352   4.364  10.329
41481SOL    HW226451  16.421 -17.695  10.476
41482SOL     OW26452   9.960   4.954   2.449
41482SOL    HW126453  -1.009   4.946   2.385
41482SOL    HW226454 -12.139   5.048   2.451
41483SOL     OW26455   1.331   7.218   2.811
41483SOL    HW126456   1.298   7.160   2.880
41483SOL    HW226457   1.296   7.304   2.833
41484SOL     OW26458   7.170   9.708  -0.414
41484SOL    HW126459   7.150  20.813  -0.481
41484SOL    HW226460   7.206   9.634  10.576
41485SOL     OW26461  10.470   9.266   4.061
41485SOL    HW126462  10.529   9.202   4.101
41485SOL    HW226463  -0.652   9.220   4.049
41486SOL     OW26464   1.034   2.215   1.251
41486SOL    HW126465   1.068   2.177   1.332
41486SOL    HW226466   0.991   2.296   1.279
41487SOL     OW26467   3.055   8.261   9.880
41487SOL    HW126468  -8.013 -13.769   9.802
41487SOL    HW226469   3.124   8.316  20.958
41488SOL     OW26470   6.810   5.329   1.369
41488SOL    HW126471  17.829   5.403  12.352
41488SOL    HW226472  17.930   5.355   1.415
41489SOL     OW26473   0.085   8.452   0.890
41489SOL    HW126474  22.210   8.368   0.891
41489SOL    HW226475  -0.008   8.428   0.895
41490SOL     OW26476   6.494  -2.218   7.330
41490SOL    HW126477   6.464  -2.191   7.417
41490SOL    HW226478   6.538  64.096   7.295
41491SOL     OW26479   9.302   1.460   5.764
41491SOL    HW126480   9.315   1.416   5.680
41491SOL    HW226481   9.307  12.430   5.829
41492SOL     OW26482   5.832  -0.331   4.038
41492SOL    HW126483   5.782  -0.259   4.076
41492SOL    HW226484   5.780  10.631   4.058
41493SOL     OW26485   7.114   3.769  10.414
41493SOL    HW126486   7.034 -40.359 -33.702
41493SOL    HW226487   7.122  -7.362  10.442
41494SOL     OW26488   4.188   5.965   9.286
41494SOL    HW126489   4.190   6.046   9.235
41494SOL    HW226490   4.095   5.945   9.296
41495SOL     OW26491   2.845   1.997   0.815
41495SOL    HW126492  24.978  24.139   0.767
41495SOL    HW226493  36.025   1.929   0.842
41496SOL     OW26494   4.141   8.686   1.709
41496SOL    HW126495   4.069 -24.495   1.715
41496SOL    HW226496  -6.850   8.659   1.630
41497SOL     OW26497   8.403   7.125  10.126
41497SOL    HW126498   8.315  -3.923  10.164
41497SOL    HW226499   8.439   7.204  10.166
41498SOL     OW26500   8.907   2.971   1.045
41498SOL    HW126501   8.832   2.955  23.067
41498SOL    HW226502   8.946   2.885  12.098
41499SOL     OW26503   8.890   0.971   9.635
41499SOL    HW126504   8.943   0.896   9.608
41499SOL    HW226505  30.890   0.932  -1.366
41500SOL     OW26506   8.977   3.502   8.591
41500SOL    HW126507   9.014 -18.559   8.677
41500SOL    HW226508   8.950  -7.451   8.558
41501SOL     OW26509   3.590   3.183   6.086
41501SOL    HW126510   3.655   3.251   6.101
41501SOL    HW226511  -7.413   3.105  -4.911
41502SOL     OW26512   6.010   6.923   8.337
41502SOL    HW126513   5.932   6.870  -2.717
41502SOL    HW226514   6.079   6.877   8.290
41503SOL     OW26515   2.544   6.067   1.930
41503SOL    HW126516  -8.451   6.039   1.850
41503SOL    HW226517   2.611 -27.058  13.038
41504SOL     OW26518   8.830   1.246   8.707
41504SOL    HW126519  19.936   1.278   8.769
41504SOL    HW226520   8.821   1.316   8.643
41505SOL     OW26521   7.525   7.078   5.639
41505SOL    HW126522  -3.564   7.155   5.610
41505SOL    HW226523   7.561   7.041   5.559
41506SOL     OW26524   9.172   8.664   4.148
41506SOL    HW126525  20.155   8.693   4.219
41506SOL    HW226526   9.261  19.716   4.182
41507SOL     OW26527   7.139   3.567   9.498
41507SOL    HW126528   7.228   3.532   9.503
41507SOL    HW226529 -14.984   3.512   9.433
41508SOL     OW26530   1.331   2.175   4.592
41508SOL    HW126531   1.390   2.130  -6.387
41508SOL    HW226532   1.343  -8.772 -17.467
41509SOL     OW26533   4.630   6.720   6.181
41509SOL    HW126534   4.582   6.801  17.231
41509SOL    HW226535  -6.386   6.717   6.088
41510SOL     OW26536   6.807  -0.493   4.858
41510SOL    HW126537 -26.265  10.530  -6.099
41510SOL    HW226538   6.875  -0.464   4.798
41511SOL     OW26539   9.501   6.533   3.692
41511SOL    HW126540   9.567 -26.548   3.634
41511SOL    HW226541   9.418   6.554  25.729
41512SOL     OW26542   1.313   4.154   7.349
41512SOL    HW126543   1.308   4.234   7.401
41512SOL    HW226544   1.338   4.086  29.490
41513SOL     OW26545   7.127   3.280   7.115
41513SOL    HW126546   7.077   3.265   7.196
41513SOL    HW226547  -3.919  -7.666  29.179
41514SOL     OW26548   2.641   7.901   3.699
41514SOL    HW126549   2.580   7.863 -29.356
41514SOL    HW226550   2.724   7.906   3.746
41515SOL     OW26551  -1.737   3.292   2.935
41515SOL    HW126552  20.278  14.399  13.995
41515SOL    HW226553  20.424   3.340  24.997
41516SOL     OW26554   0.425   7.290  11.135
41516SOL    HW126555   0.467  18.322 -10.859
41516SOL    HW226556   0.333  29.384  11.155
41517SOL     OW26557   5.859  12.140   3.727
41517SOL    HW126558   5.811  12.176   3.652
41517SOL    HW226559   5.835 -10.032   3.728
41518SOL     OW26560   1.458   6.717   8.383
41518SOL    HW126561   1.430  17.834   8.432
41518SOL    HW226562   1.377  -4.359  19.387
41519SOL     OW26563   1.259   0.275   1.866
41519SOL    HW126564   1.244  22.312  24.029
41519SOL    HW226565   1.195   0.236   1.806
41520SOL     OW26566   6.682  10.019   3.812
41520SOL    HW126567   6.769   9.987   3.787
41520SOL    HW226568   6.695  10.059   3.898
41521SOL     OW26569   2.509   9.653   9.402
41521SOL    HW126570   2.441   9.696   9.454
41521SOL    HW226571   2.571   9.618   9.466
41522SOL     OW26572   6.743   3.671   1.983
41522SOL    HW126573   6.691   3.701   1.909
41522SOL    HW226574  17.718   3.642   2.048
41523SOL     OW26575   6.317   1.496  10.956
41523SOL    HW126576  17.365   1.519 -11.216
41523SOL    HW226577   6.408   1.490  22.026
41524SOL     OW26578   2.620   7.527  10.261
41524SOL    HW126579   2.538   7.577  10.261
41524SOL    HW226580   2.602   7.452  10.204
41525SOL     OW26581   4.715   9.289   1.660
41525SOL    HW126582   4.747   9.373   1.692
41525SOL    HW226583   4.689   9.307   1.569
41526SOL     OW26584   0.588   5.866   9.678
41526SOL    HW126585  22.598  38.971   9.613
41526SOL    HW226586   0.545   5.913   9.749
41527SOL     OW26587   4.035  10.531   3.631
41527SOL    HW126588   4.099  10.596  25.682
41527SOL    HW226589   4.051 -22.664   3.575
41528SOL     OW26590   9.338   7.696  10.389
41528SOL    HW126591   9.431   7.720  10.393
41528SOL    HW226592   9.308   7.700  10.480
41529SOL     OW26593   8.243   4.004   1.199
41529SOL    HW126594 -13.779  15.010  23.348
41529SOL    HW226595   8.236  14.971  23.216
41530SOL     OW26596  10.443   8.028  11.397
41530SOL    HW126597  10.375   8.071  11.449
41530SOL    HW226598  10.521  19.121   0.371
41531SOL     OW26599   0.343   8.704  11.469
41531SOL    HW126600  22.467   8.787  11.452
41531SOL    HW226601   0.368   8.682 -10.520
41532SOL     OW26602   7.282   9.267   3.681
41532SOL    HW126603   7.377   9.280   3.678
41532SOL    HW226604  18.285   9.350  -7.389
41533SOL     OW26605   5.206   3.160   6.430
41533SOL    HW126606   5.129  25.297   6.437
41533SOL    HW226607   5.254  14.233  -4.685
41534SOL     OW26608   4.356   5.457   3.945
41534SOL    HW126609   4.438   5.476  26.070
41534SOL    HW226610   4.379  27.467   3.883
41535SOL     OW26611  10.290   3.254   1.694
41535SOL    HW126612  10.376 -29.833 -20.358
41535SOL    HW226613  10.291  14.201   1.719
41536SOL     OW26614   3.389   6.101   1.432
41536SOL    HW126615   3.423   6.014   1.412
41536SOL    HW226616   3.451   6.162  34.510
41537SOL     OW26617   6.591   3.507  -1.093
41537SOL    HW126618   6.620  -7.546  -1.183
41537SOL    HW226619   6.643  -7.594  32.078
41538SOL     OW26620  10.378  11.255   8.393
41538SOL    HW126621  10.313   0.181   8.454
41538SOL    HW226622  10.453  11.197   8.402
41539SOL     OW26623   3.852   5.786   4.546
41539SOL    HW126624  -7.218   5.741   4.468
41539SOL    HW226625   3.945  16.843  15.569
41540SOL     OW26626   2.481   5.077   1.887
41540SOL    HW126627   2.392   5.073   1.851
41540SOL    HW226628   2.525  16.183   1.835
41541SOL     OW26629   6.658   0.553  -0.884
41541SOL    HW126630  17.674   0.627  65.298
41541SOL    HW226631   6.618   0.477  43.232
41542SOL     OW26632  -0.503   1.702  10.477
41542SOL    HW126633  -0.574  12.730  10.413
41542SOL    HW226634  32.641   1.613  10.501
41543SOL     OW26635   5.901   5.587   6.357
41543SOL    HW126636 -16.113   5.592  17.326
41543SOL    HW226637 -27.167   5.600  17.476
41544SOL     OW26638   4.744   5.952  10.504
41544SOL    HW126639   4.717  -5.158  10.444
41544SOL    HW226640   4.763 -27.212  10.586
41545SOL     OW26641   1.921   4.340   2.030
41545SOL    HW126642   1.945   4.266   1.975
41545SOL    HW226643   1.949   4.315   2.118
41546SOL     OW26644  10.714   6.033   6.513
41546SOL    HW126645  10.762  -4.923  28.593
41546SOL    HW226646  10.726   6.000   6.424
41547SOL     OW26647   8.655   6.017   6.224
41547SOL    HW126648   8.650   6.046 -15.764
41547SOL    HW226649   8.620  16.967   6.226
41548SOL     OW26650   0.394   1.615   3.886
41548SOL    HW126651  11.410   1.526   3.913
41548SOL    HW226652 -10.575   1.640   3.946
41549SOL     OW26653   4.767  -0.073   8.137
41549SOL    HW126654   4.828 -22.097  -2.951
41549SOL    HW226655   4.782  32.958   8.102
41550SOL     OW26656   0.255   9.820   4.928
41550SOL    HW126657   0.205   9.837   4.848
41550SOL    HW226658   0.340   9.861   4.912
41551SOL     OW26659   5.480   1.703   8.641
41551SOL    HW126660   5.419 -20.445   8.667
41551SOL    HW226661   5.455  23.804  -2.488
41552SOL     OW26662   5.120   5.748  12.034
41552SOL    HW126663   5.070 -27.450  12.051
41552SOL    HW226664  -5.864   5.726 -21.160
41553SOL     OW26665   2.590   6.522   8.079
41553SOL    HW126666   2.667   6.578  41.200
41553SOL    HW226667   2.527   6.564   8.138
41554SOL     OW26668  -0.496   5.752   3.767
41554SOL    HW126669  10.523   5.697   3.691
41554SOL    HW226670  -0.540  16.748  14.880
41555SOL     OW26671   9.410   1.772   6.193
41555SOL    HW126672   9.378 -20.373  -4.908
41555SOL    HW226673   9.467   1.828 -15.938
41556SOL     OW26674   8.337   6.054   7.975
41556SOL    HW126675   8.400  17.029   7.944
41556SOL    HW226676 -13.712  17.114   8.064
41557SOL     OW26677   7.127   4.967   9.237
41557SOL    HW126678  18.177   4.966   9.142
41557SOL    HW226679   7.090   5.053   9.257
41558SOL     OW26680   9.196   2.863   0.430
41558SOL    HW126681   9.246   2.892  11.394
41558SOL    HW226682   9.106   2.858  22.479
41559SOL     OW26683   2.296   0.493   6.878
41559SOL    HW126684   2.202 -10.533   6.861
41559SOL    HW226685  -8.700  11.597   6.823
41560SOL     OW26686   3.028  -0.205   3.570
41560SOL    HW126687   2.938  -0.225  14.583
41560SOL    HW226688   3.067  10.874   3.492
41561SOL     OW26689   0.632   0.581   6.725
41561SOL    HW126690   0.643   0.486  17.758
41561SOL    HW226691   0.662   0.603   6.813
41562SOL     OW26692   9.166  10.152   0.947
41562SOL    HW126693   9.167  -0.847   0.860
41562SOL    HW226694   9.184  32.139   0.930
41563SOL     OW26695   3.261   1.957   5.878
41563SOL    HW126696   3.355  12.989   5.866
41563SOL    HW226697   3.251  -9.037   5.962
41564SOL     OW26698   9.401   9.237   7.487
41564SOL    HW126699   9.418   9.291   7.410
41564SOL    HW226700  20.522   9.189   7.502
41565SOL     OW26701   5.651   1.741   5.700
41565SOL    HW126702   5.646  23.906   5.740
41565SOL    HW226703   5.561  12.747   5.703
41566SOL     OW26704   1.038  10.375   8.195
41566SOL    HW126705   0.955  -0.634   8.157
41566SOL    HW226706   1.099  10.448  19.221
41567SOL     OW26707  -0.437   7.160  -0.465
41567SOL    HW126708  43.768   7.241  -0.442
41567SOL    HW226709 -11.449   7.142  10.485
41568SOL     OW26710   9.432   1.390   0.463
41568SOL    HW126711  31.505  12.523   0.479
41568SOL    HW226712   9.399   1.349   0.543
41569SOL     OW26713   4.408   2.750   1.838
41569SOL    HW126714   4.342   2.764   1.907
41569SOL    HW226715   4.485   2.717   1.885
41570SOL     OW26716   1.869   2.540   0.093
41570SOL    HW126717   1.816  13.646  22.129
41570SOL    HW226718   1.816   2.460   0.089
41571SOL     OW26719   8.662   6.583   2.460
41571SOL    HW126720  19.758   6.659   2.448
41571SOL    HW226721   8.581   6.619   2.495
41572SOL     OW26722  -0.443   7.361   6.851
41572SOL    HW126723  10.510   7.347  17.929
41572SOL    HW226724  -0.387   7.296  28.973
41573SOL     OW26725   0.520   8.210   7.618
41573SOL    HW126726   0.500   8.278   7.682
41573SOL    HW226727   0.443  -2.886  -3.421
41574SOL     OW26728   3.597  12.019  10.609
41574SOL    HW126729   3.643 -10.127  -0.482
41574SOL    HW226730   3.504  12.007  10.585
41575SOL     OW26731   4.959   1.298   6.452
41575SOL    HW126732   4.929   1.208   6.465
41575SOL    HW226733  16.073   1.307 -15.568
41576SOL     OW26734   0.405   9.219   3.059
41576SOL    HW126735   0.384   9.296  -8.033
41576SOL    HW226736   0.320  31.265   3.088
41577SOL     OW26737   0.458   5.062   4.470
41577SOL    HW126738   0.391   5.069  26.617
41577SOL    HW226739  11.572   5.110   4.505
41578SOL     OW26740   1.669   3.255   6.826
41578SOL    HW126741  12.803   3.257   6.838
41578SOL    HW226742   1.655   3.290  -4.301
41579SOL     OW26743   6.039  -1.122  -1.289
41579SOL    HW126744   6.135  20.955  31.836
41579SOL    HW226745   6.021  -1.146  -1.380
41580SOL     OW26746   1.532   1.590   0.020
41580SOL    HW126747   1.459   1.544  -0.021
41580SOL    HW226748   1.499   1.616   0.106
41581SOL     OW26749  10.080   1.678   7.074
41581SOL    HW126750  10.139  23.718   7.138
41581SOL    HW226751  10.137   1.731  29.097
41582SOL     OW26752   2.723   9.026   9.292
41582SOL    HW126753   2.694   8.947  20.286
41582SOL    HW226754   2.656   9.091   9.270
41583SOL     OW26755  10.841   1.585   5.783
41583SOL    HW126756  10.896   1.664   5.779
41583SOL    HW226757  10.852   1.553   5.873
41584SOL     OW26758   5.642   7.888   7.298
41584SOL    HW126759   5.554   7.879   7.335
41584SOL    HW226760   5.627   7.894  18.243
41585SOL     OW26761   4.800   2.069   7.372
41585SOL    HW126762  -6.210   2.100   7.457
41585SOL    HW226763   4.853   2.117   7.308
41586SOL     OW26764   9.081   7.478  -0.572
41586SOL    HW126765   9.017 -14.644  10.412
41586SOL    HW226766   9.039   7.559  -0.543
41587SOL     OW26767   2.699   7.876   6.288
41587SOL    HW126768   2.717   7.861  17.421
41587SOL    HW226769  -8.432   7.849   6.277
41588SOL     OW26770   9.748   3.638   7.909
41588SOL    HW126771   9.739   3.594   7.825
41588SOL    HW226772   9.809   3.709   7.892
41589SOL     OW26773   7.801  10.139   1.518
41589SOL    HW126774   7.857  10.065  -9.545
41589SOL    HW226775  18.753  10.102   1.522
41590SOL     OW26776   4.796   8.192   0.545
41590SOL    HW126777  -6.336   8.171   0.532
41590SOL    HW226778 -28.281   8.107   0.561
41591SOL     OW26779   8.066  10.945   1.333
41591SOL    HW126780   8.132  10.878  12.354
41591SOL    HW226781   8.071  10.958  56.625
41592SOL     OW26782   0.445  10.471   3.567
41592SOL    HW126783   0.538  10.450  -7.475
41592SOL    HW226784   0.407  10.408   3.629
41593SOL     OW26785   9.374   8.528  10.139
41593SOL    HW126786   9.317   8.451  10.130
41593SOL    HW226787   9.330   8.596  -0.950
41594SOL     OW26788   6.438   8.333   1.634
41594SOL    HW126789   6.395   8.277   1.568
41594SOL    HW226790  17.405   8.372   1.682
41595SOL     OW26791   1.659   5.108   0.928
41595SOL    HW126792   1.623  49.347   0.891
41595SOL    HW226793  -9.327   5.071   0.858
41596SOL     OW26794   3.646   9.270  10.155
41596SOL    HW126795  14.621   9.264  10.085
41596SOL    HW226796   3.617   9.207  10.221
41597SOL     OW26797   9.907   0.785  11.780
41597SOL    HW126798   9.840  22.898  11.721
41597SOL    HW226799   9.858  33.880 -10.220
41598SOL     OW26800   1.400   5.561  10.855
41598SOL    HW126801   1.338   5.573  10.783
41598SOL    HW226802   1.446  27.724  10.861
41599SOL     OW26803   4.600   4.337   5.299
41599SOL    HW126804   4.558 -28.836  -5.807
41599SOL    HW226805   4.581   4.293   5.382
41600SOL     OW26806   0.111   9.293   4.682
41600SOL    HW126807   0.168   9.246   4.743
41600SOL    HW226808   0.101   9.380   4.720
41601SOL     OW26809  10.482   2.651   0.061
41601SOL    HW126810  10.432  13.652   0.133
41601SOL    HW226811  10.500  13.780   0.089
41602SOL     OW26812   5.830   2.049   3.939
41602SOL    HW126813   5.746   2.036  15.023
41602SOL    HW226814   5.816  13.165  25.962
41603SOL     OW26815   9.341   0.605  10.568
41603SOL    HW126816   9.338  11.580  10.638
41603SOL    HW226817  31.490   0.576  10.510
41604SOL     OW26818   9.656  12.084   9.585
41604SOL    HW126819   9.607 -43.184   9.544
41604SOL    HW226820   9.593   1.086   9.644
41605SOL     OW26821   9.108  -0.623   4.342
41605SOL    HW126822  -1.836  21.463  15.388
41605SOL    HW226823  -1.951  -0.599  26.330
41606SOL     OW26824   7.694   8.283   3.108
41606SOL    HW126825   7.786   8.280  -7.905
41606SOL    HW226826 -25.465  30.423 -29.948
41607SOL     OW26827   5.580   5.895   1.336
41607SOL    HW126828  38.781   5.943  -9.707
41607SOL    HW226829   5.514 -16.117   1.352
41608SOL     OW26830   6.150   9.290   1.265
41608SOL    HW126831   6.193   9.211   1.234
41608SOL    HW226832  -4.982   9.267   1.271
41609SOL     OW26833   1.509   5.838   6.091
41609SOL    HW126834   1.507  16.803   6.031
41609SOL    HW226835  -9.477  16.848  39.283
41610SOL     OW26836   0.287   1.861   4.817
41610SOL    HW126837   0.208   1.913  15.859
41610SOL    HW226838  11.340   1.833   4.908
41611SOL     OW26839  10.136   6.520   4.057
41611SOL    HW126840 -23.003  -4.523   4.150
41611SOL    HW226841  -0.881  -4.428   4.040
41612SOL     OW26842   9.985  10.164   2.169
41612SOL    HW126843   9.899  10.166 -19.952
41612SOL    HW226844  10.045  10.134   2.101
41613SOL     OW26845   5.731   9.115   3.846
41613SOL    HW126846   5.781   9.073   3.916
41613SOL    HW226847  -5.246   9.124   3.774
41614SOL     OW26848   3.220  10.021   0.884
41614SOL    HW126849   3.128  21.063   0.909
41614SOL    HW226850   3.239   9.928   0.869
41615SOL     OW26851   3.052   3.119   7.166
41615SOL    HW126852   3.077 -19.047   7.136
41615SOL    HW226853   3.128  -7.866   7.147
41616SOL     OW26854   7.271   1.119  11.461
41616SOL    HW126855   7.291  -9.887  11.374
41616SOL    HW226856   7.271   1.024   0.412
41617SOL     OW26857   3.105   9.366  11.107
41617SOL    HW126858   3.099   9.449   0.020
41617SOL    HW226859   3.198   9.358 -10.949
41618SOL     OW26860   9.506   6.767   3.301
41618SOL    HW126861   9.508  17.722   3.346
41618SOL    HW226862  31.501  28.885   3.325
41619SOL     OW26863   7.689   2.429   0.202
41619SOL    HW126864  -3.287  24.506   0.130
41619SOL    HW226865   7.652   2.517   0.199
41620SOL     OW26866   5.509   1.386  10.579
41620SOL    HW126867  -5.526  -9.717  10.650
41620SOL    HW226868   5.445  12.491 -11.470
41621SOL     OW26869   2.351   6.546   5.116
41621SOL    HW126870   2.432   6.583   5.152
41621SOL    HW226871   2.298  17.662   5.095
41622SOL     OW26872   7.828   6.575   5.203
41622SOL    HW126873   7.875   6.608   5.280
41622SOL    HW226874   7.764   6.514   5.238
41623SOL     OW26875   5.465   3.292  10.695
41623SOL    HW126876  27.606   3.364  10.687
41623SOL    HW226877   5.407   3.319  10.767
41624SOL     OW26878   7.531   8.928   1.240
41624SOL    HW126879   7.528   8.832   1.242
41624SOL    HW226880  18.656  31.029   1.278
41625SOL     OW26881   2.709   8.341   0.696
41625SOL    HW126882   2.792  -2.703   0.649
41625SOL    HW226883   2.674   8.252   0.691
41626SOL     OW26884   6.137   8.972   9.154
41626SOL    HW126885   6.195   8.978   9.078
41626SOL    HW226886   6.075   9.043  31.221
41627SOL     OW26887   2.471   0.520   3.806
41627SOL    HW126888   2.421   0.589   3.761
41627SOL    HW226889 -19.635   0.439   3.761
41628SOL     OW26890   7.763   6.994  -1.908
41628SOL    HW126891  -3.255   7.070   9.079
41628SOL    HW226892 -25.353   6.920  53.229
41629SOL     OW26893   0.789   1.071   8.320
41629SOL    HW126894 -10.272  12.122   8.227
41629SOL    HW226895   0.740   0.993   8.347
41630SOL     OW26896   7.755   5.542  10.403
41630SOL    HW126897   7.746  60.649  10.433
41630SOL    HW226898  -3.190   5.554  10.393
41631SOL     OW26899   6.352   6.920   5.906
41631SOL    HW126900   6.337  18.022   5.835
41631SOL    HW226901   6.406  29.047  28.048
41632SOL     OW26902   6.613  12.104   2.710
41632SOL    HW126903   6.660 -20.974   2.782
41632SOL    HW226904  -4.518  -9.951  -8.317
41633SOL     OW26905   5.282   3.137   4.060
41633SOL    HW126906   5.302  14.163   3.967
41633SOL    HW226907  -5.699  25.285   4.088
41634SOL     OW26908   5.406   5.360   1.727
41634SOL    HW126909   5.457   5.360   1.808
41634SOL    HW226910  16.368   5.308   1.748
41635SOL     OW26911   5.957   9.283   4.199
41635SOL    HW126912  16.957   9.297   4.285
41635SOL    HW226913  17.012   9.189   4.195
41636SOL     OW26914   8.401   3.216   1.447
41636SOL    HW126915  19.355   3.172   1.448
41636SOL    HW226916  19.469   3.214   1.539
41637SOL     OW26917   2.112   8.645   6.059
41637SOL    HW126918   2.156   8.560  17.108
41637SOL    HW226919   2.097   8.674   6.149
41638SOL     OW26920   4.298   2.301   2.589
41638SOL    HW126921   4.319  -8.818   2.639
41638SOL    HW226922  26.309   2.344   2.641
41639SOL     OW26923   2.749   0.888   7.242
41639SOL    HW126924   2.682   0.903  29.254
41639SOL    HW226925  24.855   0.976   7.269
41640SOL     OW26926   3.884  13.647   8.755
41640SOL    HW126927  14.940 -30.439   8.816
41640SOL    HW226928   3.791  -8.425   8.734
41641SOL     OW26929  11.021   9.940   6.763
41641SOL    HW126930  21.983   9.883  17.800
41641SOL    HW226931 -22.089   9.972   6.673
41642SOL     OW26932   7.929  11.846   3.152
41642SOL    HW126933   7.935 -10.185  -7.970
41642SOL    HW226934  18.916  11.769   3.131
41643SOL     OW26935   4.385   9.177   6.635
41643SOL    HW126936  -6.579   9.211 -15.396
41643SOL    HW226937   4.395   9.213   6.546
41644SOL     OW26938   2.557   1.736   1.906
41644SOL    HW126939   2.483   1.713   1.850
41644SOL    HW226940  24.710  -9.294 -20.234
41645SOL     OW26941   2.900   2.158   2.349
41645SOL    HW126942   2.989   2.127  13.367
41645SOL    HW226943   2.843  13.126  13.361
41646SOL     OW26944   6.565   6.088   1.662
41646SOL    HW126945   6.643  -4.984  -9.334
41646SOL    HW226946   6.574   6.059   1.571
41647SOL     OW26947   4.787   8.974   9.999
41647SOL    HW126948 -17.262 -13.125  20.950
41647SOL    HW226949  15.820  19.927  -0.999
41648SOL     OW26950   3.421   5.057   4.289
41648SOL    HW126951   3.355   5.040  26.301
41648SOL    HW226952  14.484   4.971   4.323
41649SOL     OW26953   5.395   4.441  11.139
41649SOL    HW126954   5.309   4.429  11.179
41649SOL    HW226955   5.378 -39.668   0.019
41650SOL     OW26956   8.282   7.772   5.480
41650SOL    HW126957   8.228  -3.341   5.452
41650SOL    HW226958  30.435   7.733   5.524
41651SOL     OW26959  10.416   6.123   3.077
41651SOL    HW126960  10.333  39.253   3.122
41651SOL    HW226961  10.460   6.054   3.127
41652SOL     OW26962  11.389   9.969   0.033
41652SOL    HW126963   0.320  21.042  -0.052
41652SOL    HW226964  11.324  10.001   0.096
41653SOL     OW26965   2.763   6.939  -0.050
41653SOL    HW126966  24.898   6.944   0.027
41653SOL    HW226967  24.830  -4.194  10.975
41654SOL     OW26968   5.869  10.978   7.422
41654SOL    HW126969   5.828  10.919  -3.555
41654SOL    HW226970  -5.136  10.920  18.393
41655SOL     OW26971   7.537   2.712   6.176
41655SOL    HW126972   7.482   2.646   6.218
41655SOL    HW226973   7.546 -30.338   6.242
41656SOL     OW26974   4.355  -0.283   9.306
41656SOL    HW126975   4.424  10.724   9.364
41656SOL    HW226976 -17.739  -0.354 -12.835
41657SOL     OW26977   7.182   0.195   6.285
41657SOL    HW126978  18.176   0.208   6.202
41657SOL    HW226979   7.218   0.281  28.385
41658SOL     OW26980   6.032   7.493   7.635
41658SOL    HW126981  39.156  18.531   7.539
41658SOL    HW226982   5.941   7.469   7.654
41659SOL     OW26983   1.487   3.035   6.518
41659SOL    HW126984   1.463   3.126   6.502
41659SOL    HW226985   1.479   3.024  17.652
41660SOL     OW26986  10.532   8.947   9.552
41660SOL    HW126987  10.488   8.941   9.468
41660SOL    HW226988  10.531  -2.182   9.586
41661SOL     OW26989   0.315  -0.233   1.362
41661SOL    HW126990   0.388  -0.174  -9.659
41661SOL    HW226991  11.279  21.905  23.434
41662SOL     OW26992   6.027   4.154   8.341
41662SOL    HW126993   6.071   4.238  41.450
41662SOL    HW226994   6.093   4.089  19.356
41663SOL     OW26995   5.034   3.384   4.185
41663SOL    HW126996   5.072   3.390   4.097
41663SOL    HW226997   5.042   3.292   4.208
41664SOL     OW26998   5.478  10.821   1.319
41664SOL    HW126999 -27.716  10.847   1.374
41664SOL    HW227000   5.466  10.871   1.238
41665SOL     OW27001   2.634   9.887   4.174
41665SOL    HW127002   2.666   9.963   4.224
41665SOL    HW227003   2.688   9.887  15.135
41666SOL     OW27004   2.049   4.046   0.803
41666SOL    HW127005  35.260   4.068   0.794
41666SOL    HW227006  13.053   4.114   0.861
41667SOL     OW27007   2.216   9.020   8.909
41667SOL    HW127008   2.185   8.934  31.016
41667SOL    HW227009   2.140  31.139   8.866
41668SOL     OW27010   2.955   8.566   2.000
41668SOL    HW127011   2.882   8.524   2.044
41668SOL    HW227012   3.002   8.494  -9.083
41669SOL     OW27013   7.115   7.820   4.382
41669SOL    HW127014   7.185 -14.243  -6.595
41669SOL    HW227015   7.124   7.727   4.359
41670SOL     OW27016   5.498   7.802   4.422
41670SOL    HW127017   5.536   7.729   4.470
41670SOL    HW227018   5.568   7.867 -17.662
41671SOL     OW27019   5.589   2.538   1.825
41671SOL    HW127020   5.629   2.451 -20.256
41671SOL    HW227021   5.664   2.598   1.822
41672SOL     OW27022   0.117   9.072   3.413
41672SOL    HW127023   0.099  20.154   3.497
41672SOL    HW227024   0.124  31.058   3.434
41673SOL     OW27025   2.631   0.275   6.429
41673SOL    HW127026   2.706   0.223   6.402
41673SOL    HW227027 -19.484   0.310   6.348
41674SOL     OW27028   6.556   6.907   8.983
41674SOL    HW127029   6.627   6.932  19.964
41674SOL    HW227030  17.515   6.922   8.933
41675SOL     OW27031   0.037   8.993   5.810
41675SOL    HW127032   0.076   8.999 -16.182
41675SOL    HW227033   0.005   9.081   5.791
41676SOL     OW27034   2.378   8.921   5.264
41676SOL    HW127035  13.451   8.833   5.281
41676SOL    HW227036  13.424 -35.192   5.348
41677SOL     OW27037   9.139   6.822   4.751
41677SOL    HW127038  31.245  -4.188  -6.202
41677SOL    HW227039   9.074 -15.325   4.768
41678SOL     OW27040   4.011   4.762   8.788
41678SOL    HW127041   3.996   4.831   8.853
41678SOL    HW227042   4.062  -6.235   8.719
41679SOL     OW27043   3.530   0.113   7.344
41679SOL    HW127044   3.544  22.145  40.544
41679SOL    HW227045   3.438 -10.900  29.426
41680SOL     OW27046  12.878   4.160   1.366
41680SOL    HW127047 -20.324 -17.963   1.384
41680SOL    HW227048  12.899 -17.943   1.276
41681SOL     OW27049   8.812  10.493   9.010
41681SOL    HW127050   8.840  10.423   9.069
41681SOL    HW227051   8.887 -11.526  -2.033
41682SOL     OW27052   8.320   5.062   3.773
41682SOL    HW127053   8.349   4.976  -7.298
41682SOL    HW227054   8.326   5.056 -29.250
41683SOL     OW27055   9.351   6.190   5.459
41683SOL    HW127056   9.372  28.320   5.537
41683SOL    HW227057  -1.744   6.249   5.407
41684SOL     OW27058  10.826   0.453   2.814
41684SOL    HW127059  10.888   0.498  -8.168
41684SOL    HW227060  10.849   0.361  -8.218
41685SOL     OW27061  -0.160   6.277   2.315
41685SOL    HW127062  10.917  -4.688  24.440
41685SOL    HW227063  -0.144  17.241  -8.668
41686SOL     OW27064   4.776  10.868   4.870
41686SOL    HW127065   4.847  10.814  -6.136
41686SOL    HW227066  15.839  -0.156   4.778
41687SOL     OW27067  11.347  12.772  12.403
41687SOL    HW127068  22.385   1.778  12.319
41687SOL    HW227069 -10.775  -9.247 -20.655
41688SOL     OW27070   4.118   9.113   6.445
41688SOL    HW127071   4.101   9.019   6.438
41688SOL    HW227072   4.200   9.119   6.494
41689SOL     OW27073   7.775   2.187   4.635
41689SOL    HW127074  -3.323   2.260   4.654
41689SOL    HW227075   7.862  24.305  15.667
41690SOL     OW27076  11.721  11.074   7.421
41690SOL    HW127077 -10.356  22.157  29.415
41690SOL    HW227078 -10.410 -10.946   7.476
41691SOL     OW27079   9.424   8.451   5.262
41691SOL    HW127080   9.360  -2.532  16.258
41691SOL    HW227081   9.443   8.382  16.237
41692SOL     OW27082   5.507   6.981   5.608
41692SOL    HW127083   5.522   7.069   5.575
41692SOL    HW227084   5.415  -4.076   5.590
41693SOL     OW27085   0.320   3.487   7.036
41693SOL    HW127086   0.298   3.473   7.128
41693SOL    HW227087   0.373   3.411   7.013
41694SOL     OW27088   4.272  -0.715   7.669
41694SOL    HW127089  26.354  32.362   7.755
41694SOL    HW227090  15.311  -0.621   7.687
41695SOL     OW27091  -1.229   4.202   0.178
41695SOL    HW127092   9.904   4.190   0.195
41695SOL    HW227093   9.768   4.173   0.259
41696SOL     OW27094   9.187   1.749   5.777
41696SOL    HW127095  -1.824 -20.422   5.782
41696SOL    HW227096   9.161   1.761   5.685
41697SOL     OW27097   6.743   6.925   6.825
41697SOL    HW127098   6.713   6.846   6.778
41697SOL    HW227099   6.837  -4.128  -4.204
41698SOL     OW27100  10.694   2.016   7.570
41698SOL    HW127101  10.737  13.137   7.596
41698SOL    HW227102  10.601   2.031   7.590
41699SOL     OW27103   1.597   0.637   8.320
41699SOL    HW127104  23.643   0.621 -35.749
41699SOL    HW227105   1.582   0.730   8.306
41700SOL     OW27106   9.760   4.756   2.379
41700SOL    HW127107  20.761   4.726   2.461
41700SOL    HW227108   9.823   4.823   2.405
41701SOL     OW27109   6.215   2.050   8.325
41701SOL    HW127110   6.267  13.133   8.258
41701SOL    HW227111   6.125   2.071   8.303
41702SOL     OW27112   0.749   4.847   4.258
41702SOL    HW127113   0.781  -6.118  -6.831
41702SOL    HW227114 -10.244   4.772   4.222
41703SOL     OW27115   1.383   2.510   0.238
41703SOL    HW127116   1.424   2.423   0.234
41703SOL    HW227117   1.442   2.562   0.291
41704SOL     OW27118   8.541   6.094   2.878
41704SOL    HW127119   8.514   6.006   2.849
41704SOL    HW227120 -13.496  17.119  -8.077
41705SOL     OW27121   5.232   7.986   7.642
41705SOL    HW127122   5.140   7.989   7.667
41705SOL    HW227123 -16.842  18.953   7.578
41706SOL     OW27124   4.939   9.733   8.226
41706SOL    HW127125   5.004   9.796   8.195
41706SOL    HW227126   4.886   9.713 -24.970
41707SOL     OW27127   1.583   6.805   1.338
41707SOL    HW127128   1.559  -4.290  12.452
41707SOL    HW227129   1.642 -15.209   1.375
41708SOL     OW27130   1.705   1.253   4.786
41708SOL    HW127131   1.646  12.219   4.768
41708SOL    HW227132   1.716   1.296   4.701
41709SOL     OW27133   8.790   0.852   8.003
41709SOL    HW127134   8.814   0.770  -2.993
41709SOL    HW227135 -13.224   0.915  19.075
41710SOL     OW27136   0.797  10.594   0.106
41710SOL    HW127137  11.854  10.566  11.056
41710SOL    HW227138  11.813  10.514   0.153
41711SOL     OW27139   9.368   5.330   7.807
41711SOL    HW127140   9.390   5.421   7.826
41711SOL    HW227141   9.394   5.317 -25.403
41712SOL     OW27142   4.852   5.127   9.272
41712SOL    HW127143  15.810  16.196   9.311
41712SOL    HW227144  15.920   5.199  31.295
41713SOL     OW27145   2.323   2.210   6.471
41713SOL    HW127146   2.312 -31.003  28.558
41713SOL    HW227147   2.415   2.222   6.447
41714SOL     OW27148   1.099   1.394  12.014
41714SOL    HW127149   1.017   1.356 -32.176
41714SOL    HW227150  12.122  12.454  12.106
41715SOL     OW27151   5.863  11.027   5.558
41715SOL    HW127152   5.815  10.946   5.578
41715SOL    HW227153 -16.124  11.002   5.567
41716SOL     OW27154   4.712   3.387   8.683
41716SOL    HW127155  -6.297  14.467   8.602
41716SOL    HW227156 -28.501   3.377   8.672
41717SOL     OW27157   4.009   4.894   4.859
41717SOL    HW127158   4.087   4.929   4.902
41717SOL    HW227159   3.952 -39.292   4.932
41718SOL     OW27160   3.525   5.724   5.861
41718SOL    HW127161   3.545   5.789  16.833
41718SOL    HW227162   3.437   5.694  49.999
41719SOL     OW27163   5.220   1.549   0.255
41719SOL    HW127164  -5.882  -9.510   0.325
41719SOL    HW227165   5.297   1.497  33.396
41720SOL     OW27166   1.630   0.683   5.378
41720SOL    HW127167  -9.385   0.672   5.470
41720SOL    HW227168   1.564   0.616   5.362
41721SOL     OW27169   3.927   4.632   6.054
41721SOL    HW127170   3.996   4.634  39.238
41721SOL    HW227171   3.910   4.539   6.038
41722SOL     OW27172   1.776   6.841   7.125
41722SOL    HW127173   1.691   6.805   7.151
41722SOL    HW227174  -9.215  -4.274   7.091
41723SOL     OW27175   7.456   8.458  -0.321
41723SOL    HW127176   7.402  19.472  -0.246
41723SOL    HW227177  18.581   8.480  10.756
41724SOL     OW27178   4.317   3.063   2.048
41724SOL    HW127179 -17.666   3.064   2.051
41724SOL    HW227180  -6.749   3.031  13.173
41725SOL     OW27181   8.821   8.051   9.228
41725SOL    HW127182  30.809   8.076   9.212
41725SOL    HW227183   8.859   8.042 -12.938
41726SOL     OW27184   4.566   9.649   3.620
41726SOL    HW127185   4.481   9.636  -7.460
41726SOL    HW227186   4.561   9.737   3.658
41727SOL     OW27187   6.135   7.110  10.970
41727SOL    HW127188  -4.913   7.129  10.877
41727SOL    HW227189   6.073   7.038  10.985
41728SOL     OW27190   9.743   0.032   5.769
41728SOL    HW127191   9.802  11.011  -5.315
41728SOL    HW227192   9.665   0.035   5.713
41729SOL     OW27193   4.431   8.437   2.297
41729SOL    HW127194   4.364  -2.652  13.290
41729SOL    HW227195   4.475   8.488  13.269
41730SOL     OW27196   2.621   0.158   3.820
41730SOL    HW127197  -8.465   0.088   3.864
41730SOL    HW227198   2.658   0.211   3.891
41731SOL     OW27199   1.546   1.349  -0.979
41731SOL    HW127200   1.548   1.276  21.038
41731SOL    HW227201   1.638  23.452  -0.968
41732SOL     OW27202   3.683   7.746   1.326
41732SOL    HW127203   3.719   7.698  -9.788
41732SOL    HW227204  -7.324   7.835   1.315
41733SOL     OW27205  10.231   0.399   1.822
41733SOL    HW127206  10.260   0.490   1.823
41733SOL    HW227207  10.209   0.380   1.914
41734SOL     OW27208   6.783   4.968   2.412
41734SOL    HW127209  17.817   4.877  13.481
41734SOL    HW227210  17.754 -17.065   2.461
41735SOL     OW27211   0.045  -0.589   1.729
41735SOL    HW127212  11.157  21.549  -9.293
41735SOL    HW227213   0.004  -0.602   1.815
41736SOL     OW27214   8.814   3.664   1.528
41736SOL    HW127215   8.861   3.594   1.482
41736SOL    HW227216 -13.247   3.649   1.620
41737SOL     OW27217   9.603   0.943   0.982
41737SOL    HW127218   9.677   0.883   0.987
41737SOL    HW227219  20.570   0.888   0.953
41738SOL     OW27220   0.982   1.725   4.859
41738SOL    HW127221   1.026   1.809   4.847
41738SOL    HW227222  11.944  23.810 -17.276
41739SOL     OW27223  10.008   9.438   4.298
41739SOL    HW127224  -0.985  -1.562  15.411
41739SOL    HW227225 -12.120   9.511   4.259
41740SOL     OW27226   2.802   6.348   5.864
41740SOL    HW127227   2.887   6.379  16.935
41740SOL    HW227228  -8.279   6.426   5.827
41741SOL     OW27229  10.120   1.980   1.454
41741SOL    HW127230  10.097   2.042  23.464
41741SOL    HW227231  10.104 -20.052 -31.583
41742SOL     OW27232   4.939   2.634  10.346
41742SOL    HW127233   5.026  -8.373  10.324
41742SOL    HW227234  26.964   2.659  10.271
41743SOL     OW27235   2.600   5.996   5.141
41743SOL    HW127236   2.669   5.930   5.148
41743SOL    HW227237  -8.395   6.079   5.161
41744SOL     OW27238   9.784   1.023   5.360
41744SOL    HW127239  20.728   1.027  16.406
41744SOL    HW227240   9.801   1.016  49.424
41745SOL     OW27241  10.103  12.136   4.868
41745SOL    HW127242  10.175 -32.025   4.930
41745SOL    HW227243  10.140  23.139   4.787
41746SOL     OW27244   6.171  -0.593  11.694
41746SOL    HW127245   6.160  10.357  11.726
41746SOL    HW227246  28.211  -0.538 -10.316
41747SOL     OW27247   3.466   5.442   3.394
41747SOL    HW127248   3.486   5.425   3.302
41747SOL    HW227249   3.423   5.528   3.393
41748SOL     OW27250  10.043   9.114  11.653
41748SOL    HW127251  10.016  31.209 -32.415
41748SOL    HW227252  10.084   9.027 -10.424
41749SOL     OW27253   2.776   7.400  12.580
41749SOL    HW127254   2.766 -25.779  -9.573
41749SOL    HW227255  13.908   7.422 -20.537
41750SOL     OW27256   5.451  10.298   4.318
41750SOL    HW127257   5.447  10.323   4.410
41750SOL    HW227258   5.532 -22.871   4.310
41751SOL     OW27259   5.485   2.905   4.458
41751SOL    HW127260  16.569  13.926   4.541
41751SOL    HW227261   5.555  13.948  15.433
41752SOL     OW27262   8.269   5.947   8.681
41752SOL    HW127263  19.333   5.981  -2.445
41752SOL    HW227264   8.312   5.862   8.686
41753SOL     OW27265   3.725   1.173   1.100
41753SOL    HW127266  14.736   1.131   1.018
41753SOL    HW227267 -18.408   1.252  12.146
41754SOL     OW27268   7.998   9.007   1.546
41754SOL    HW127269  30.102 -35.059  12.592
41754SOL    HW227270   8.070   8.966  -9.542
41755SOL     OW27271   2.253   6.906   5.496
41755SOL    HW127272   2.292   6.857   5.569
41755SOL    HW227273   2.273   6.998   5.516
41756SOL     OW27274   4.697   1.448   3.534
41756SOL    HW127275   4.740   1.403 -18.618
41756SOL    HW227276   4.605   1.455   3.506
41757SOL     OW27277   2.052   4.609   9.446
41757SOL    HW127278   2.059   4.535  -1.533
41757SOL    HW227279  13.072  -6.356   9.503
41758SOL     OW27280   1.406   6.577   2.607
41758SOL    HW127281 -20.676   6.581   2.511
41758SOL    HW227282   1.369  17.531  24.708
41759SOL     OW27283  10.082   3.294   4.199
41759SOL    HW127284  10.176   3.287  -6.854
41759SOL    HW227285  10.072   3.353   4.273
41760SOL     OW27286   7.704   5.538   5.863
41760SOL    HW127287 -14.414   5.580  16.826
41760SOL    HW227288   7.672  -5.450  -5.102
41761SOL     OW27289   3.874   6.952   2.577
41761SOL    HW127290  14.949  18.025   2.659
41761SOL    HW227291  14.908  28.937  -8.450
41762SOL     OW27292   2.939   4.183   8.231
41762SOL    HW127293   2.862   4.240  -2.800
41762SOL    HW227294   2.960 -17.921   8.321
41763SOL     OW27295   5.009   9.536   0.123
41763SOL    HW127296  16.038   9.602   0.055
41763SOL    HW227297   5.004   9.585  22.284
41764SOL     OW27298   9.414   1.594   2.655
41764SOL    HW127299   9.369   1.605   2.571
41764SOL    HW227300   9.496   1.550   2.631
41765SOL     OW27301  12.785   4.504   2.166
41765SOL    HW127302  12.761   4.582  13.156
41765SOL    HW227303 -20.261   4.466   2.116
41766SOL     OW27304   1.516   3.131   5.355
41766SOL    HW127305   1.565  25.168  16.324
41766SOL    HW227306   1.484  14.252   5.317
41767SOL     OW27307   3.902   3.879   7.834
41767SOL    HW127308  14.981   3.965   7.828
41767SOL    HW227309   3.808  48.053   7.822
41768SOL     OW27310   6.015   2.848   5.683
41768SOL    HW127311   5.988   2.939 -16.385
41768SOL    HW227312   6.106   2.853   5.655
41769SOL     OW27313   9.064   9.606   0.990
41769SOL    HW127314  -1.883 -23.528   1.007
41769SOL    HW227315 -13.034   9.691  12.071
41770SOL     OW27316   0.054   9.353   3.764
41770SOL    HW127317   0.017 -23.777   3.852
41770SOL    HW227318   0.010  -1.609   3.729
41771SOL     OW27319   0.699   7.518   6.557
41771SOL    HW127320  11.651  29.629  17.620
41771SOL    HW227321   0.682   7.445  28.576
41772SOL     OW27322   0.907   0.047   8.813
41772SOL    HW127323   0.897  -0.039   8.854
41772SOL    HW227324   0.847   0.044  -2.301
41773SOL     OW27325  11.577   0.724   0.247
41773SOL    HW127326   0.525   0.647   0.191
41773SOL    HW227327   0.526   0.799   0.188
41774SOL     OW27328   5.661   4.763   0.707
41774SOL    HW127329  -5.358   4.671   0.725
41774SOL    HW227330  -5.298   4.800   0.672
41775SOL     OW27331  11.071   6.558   3.264
41775SOL    HW127332   0.026   6.639   3.315
41775SOL    HW227333   0.124  39.651   3.268
41776SOL     OW27334   5.960   8.131   2.731
41776SOL    HW127335   5.955   8.040   2.762
41776SOL    HW227336   5.996 -13.900   2.805
41777SOL     OW27337   4.819   7.169   7.127
41777SOL    HW127338 -17.240   7.260   7.152
41777SOL    HW227339   4.776   7.177  18.082
41778SOL     OW27340   0.880   0.548   1.326
41778SOL    HW127341  11.842   0.602  -9.728
41778SOL    HW227342  11.912   0.519   1.417
41779SOL     OW27343  10.989   2.900   7.554
41779SOL    HW127344  11.079   2.896   7.524
41779SOL    HW227345  10.989  -8.188   7.637
41780SOL     OW27346   8.456   9.529   4.670
41780SOL    HW127347 -24.639   9.573   4.752
41780SOL    HW227348  19.425  -1.456   4.634
41781SOL     OW27349   5.383   4.755   3.901
41781SOL    HW127350   5.335  15.872  14.911
41781SOL    HW227351 -16.607   4.768  36.986
41782SOL     OW27352  10.110   1.746   5.387
41782SOL    HW127353  10.052  -9.341   5.446
41782SOL    HW227354  10.123   1.831 -16.650
41783SOL     OW27355   2.413   5.029  10.225
41783SOL    HW127356   2.436   4.936  10.221
41783SOL    HW227357   2.414  -5.990  10.319
41784SOL     OW27358   6.875   2.575  -0.625
41784SOL    HW127359   6.791   2.546  21.418
41784SOL    HW227360  17.976  13.545  -0.649
41785SOL     OW27361   6.709   9.239   1.848
41785SOL    HW127362   6.643   9.293   1.892
41785SOL    HW227363  17.823   9.298   1.835
41786SOL     OW27364   7.140   1.780   9.443
41786SOL    HW127365   7.235   1.783   9.456
41786SOL    HW227366   7.105   1.839   9.510
41787SOL     OW27367   3.690   6.830   5.533
41787SOL    HW127368   3.642   6.748   5.541
41787SOL    HW227369   3.700   6.842  38.557
41788SOL     OW27370  10.171   7.247   9.223
41788SOL    HW127371  10.095   7.299 -12.882
41788SOL    HW227372  10.149  29.294   9.311
41789SOL     OW27373   8.554   0.435  10.256
41789SOL    HW127374   8.479  11.503  10.203
41789SOL    HW227375  30.618   0.342  10.272
41790SOL     OW27376   2.796   9.781   9.502
41790SOL    HW127377   2.862  -1.224  20.602
41790SOL    HW227378   2.739 -12.223   9.484
41791SOL     OW27379   7.899   3.817   0.895
41791SOL    HW127380   7.913   3.838   0.987
41791SOL    HW227381   7.880   3.723   0.895
41792SOL     OW27382   2.649   0.905   6.130
41792SOL    HW127383  -8.320   0.920   6.066
41792SOL    HW227384  -8.446   0.982   6.123
41793SOL     OW27385   7.582   5.077   2.668
41793SOL    HW127386  18.638   5.171   2.672
41793SOL    HW227387  29.589  -5.977  -8.310
41794SOL     OW27388   6.372  -1.417   6.746
41794SOL    HW127389  -4.759   9.623  -4.321
41794SOL    HW227390  -4.637  20.573   6.729
41795SOL     OW27391   5.994   4.744  10.594
41795SOL    HW127392   5.902 -17.323  10.618
41795SOL    HW227393   6.031   4.833  10.597
41796SOL     OW27394   6.805   6.146  -0.247
41796SOL    HW127395  17.803   6.147  10.879
41796SOL    HW227396   6.897   6.128  -0.230
41797SOL     OW27397   7.758   1.244   1.655
41797SOL    HW127398  -3.350   1.197  12.646
41797SOL    HW227399  -3.200  -9.819   1.611
41798SOL     OW27400   2.886  10.485   3.385
41798SOL    HW127401   2.802  10.490   3.338
41798SOL    HW227402  13.903  10.442   3.468
41799SOL     OW27403   5.350   3.662   7.956
41799SOL    HW127404   5.300   3.689   7.879
41799SOL    HW227405  -5.693   3.566  18.994
41800SOL     OW27406   1.396   7.710   1.542
41800SOL    HW127407   1.382   7.774   1.473
41800SOL    HW227408   1.440   7.758   1.612
41801SOL     OW27409  10.367   7.201   3.390
41801SOL    HW127410  10.352   7.163   3.476
41801SOL    HW227411  21.330   7.176   3.338
41802SOL     OW27412   0.960   8.808   3.117
41802SOL    HW127413 -10.004   8.759   3.150
41802SOL    HW227414   0.964   8.892 -18.916
41803SOL     OW27415   2.984   0.903   6.564
41803SOL    HW127416 -19.117   0.887 -15.423
41803SOL    HW227417   2.921   0.850   6.515
41804SOL     OW27418   0.140  10.781   1.693
41804SOL    HW127419  11.217  10.727  23.842
41804SOL    HW227420 -10.869  10.739   1.612
41805SOL     OW27421  10.895   0.406   4.201
41805SOL    HW127422  -0.237   0.426  26.271
41805SOL    HW227423  10.931  11.461   4.113
41806SOL     OW27424  -0.054   1.248   3.249
41806SOL    HW127425  21.971  12.225   3.200
41806SOL    HW227426   0.005   1.285   3.183
41807SOL     OW27427   7.850  -1.604   2.920
41807SOL    HW127428   7.806  20.526  -8.188
41807SOL    HW227429   7.860  20.388   2.882
41808SOL     OW27430   4.844   2.067   0.508
41808SOL    HW127431   4.827   2.104  11.461
41808SOL    HW227432   4.775   2.002   0.520
41809SOL     OW27433   6.490   8.026   2.947
41809SOL    HW127434  -4.529   8.031   3.040
41809SOL    HW227435 -15.672   7.978   2.944
41810SOL     OW27436   7.508   0.729   1.056
41810SOL    HW127437   7.494  33.812   0.968
41810SOL    HW227438  18.640  33.872   1.057
41811SOL     OW27439   8.124   6.016   4.911
41811SOL    HW127440   8.219   6.017  15.941
41811SOL    HW227441  30.174   6.101  -6.163
41812SOL     OW27442   5.078   6.126   2.869
41812SOL    HW127443 -16.919   6.156   2.828
41812SOL    HW227444  -6.009   6.082   2.799
41813SOL     OW27445   1.430   4.728   7.434
41813SOL    HW127446  12.419  15.690   7.409
41813SOL    HW227447   1.429   4.727   7.530
41814SOL     OW27448   6.116   2.776   1.467
41814SOL    HW127449  -4.898   2.860   1.507
41814SOL    HW227450   6.066   2.801  12.430
41815SOL     OW27451   7.667   7.717   8.535
41815SOL    HW127452   7.615   7.746   8.611
41815SOL    HW227453   7.617   7.645  19.537
41816SOL     OW27454   8.221  -0.535   0.745
41816SOL    HW127455   8.315  10.513   0.757
41816SOL    HW227456  -2.855  -0.519   0.832
41817SOL     OW27457   1.030   9.774   8.256
41817SOL    HW127458 -10.037   9.818   8.176
41817SOL    HW227459   1.067  31.923   8.311
41818SOL     OW27460  -0.456   5.053   9.214
41818SOL    HW127461  10.620  16.180   9.200
41818SOL    HW227462  -0.494   5.057   9.302
41819SOL     OW27463   4.062  10.686  -0.233
41819SOL    HW127464   4.048  10.776 -11.243
41819SOL    HW227465   4.065  10.635  21.927
41820SOL     OW27466   9.777   8.916   2.815
41820SOL    HW127467   9.695   8.966   2.815
41820SOL    HW227468   9.754  -2.206   2.859
41821SOL     OW27469   5.074  11.585   8.803
41821SOL    HW127470  38.255   0.575   8.736
41821SOL    HW227471  16.036  11.640   8.790
41822SOL     OW27472   8.844   9.086  10.911
41822SOL    HW127473 -24.343   9.082  10.845
41822SOL    HW227474   8.902  31.092  10.891
41823SOL     OW27475  -0.964   3.120   2.986
41823SOL    HW127476  10.085   3.158   2.899
41823SOL    HW227477  10.100   3.191 -30.073
41824SOL     OW27478   6.452   2.707   0.248
41824SOL    HW127479   6.458 -30.387   0.340
41824SOL    HW227480   6.372   2.750   0.216
41825SOL     OW27481   0.291   8.884   8.463
41825SOL    HW127482   0.309   8.791  19.511
41825SOL    HW227483   0.308  19.960  30.629
41826SOL     OW27484  11.365   4.159   3.665
41826SOL    HW127485 -10.686  15.214   3.756
41826SOL    HW227486  11.397  15.111  36.763
41827SOL     OW27487   0.878  11.149   2.998
41827SOL    HW127488   0.790   0.125   3.031
41827SOL    HW227489   0.935   0.159  -7.983
41828SOL     OW27490   4.042  11.126   9.506
41828SOL    HW127491   4.034  11.102   9.598
41828SOL    HW227492   4.136   0.100   9.492
41829SOL     OW27493   2.104   2.172   8.602
41829SOL    HW127494  -8.976   2.086   8.604
41829SOL    HW227495   2.137  -8.856  -2.348
41830SOL     OW27496   8.758  10.257   9.320
41830SOL    HW127497   8.804  -0.808   9.400
41830SOL    HW227498   8.813  21.262   9.249
41831SOL     OW27499   8.894   4.896   5.199
41831SOL    HW127500   8.820   4.926  -5.787
41831SOL    HW227501   8.853 -17.224  -5.916
41832SOL     OW27502   3.420   4.877   6.750
41832SOL    HW127503   3.393   4.940   6.683
41832SOL    HW227504  -7.605   4.795  -4.336
41833SOL     OW27505  -0.128   7.753   9.125
41833SOL    HW127506  10.968  18.758   9.055
41833SOL    HW227507  -0.176   7.676   9.156
41834SOL     OW27508   0.212   6.375   5.307
41834SOL    HW127509   0.146   6.379   5.237
41834SOL    HW227510  11.333   6.356   5.260
41835SOL     OW27511   6.477   9.505   5.528
41835SOL    HW127512  -4.532  -1.586   5.454
41835SOL    HW227513   6.546   9.497   5.594
41836SOL     OW27514   0.250  10.968   4.802
41836SOL    HW127515  11.213  11.012  37.883
41836SOL    HW227516  22.403  11.023  26.855
41837SOL     OW27517   3.966   2.412   1.219
41837SOL    HW127518   4.043  13.456   1.275
41837SOL    HW227519  48.108  -8.721  34.324
41838SOL     OW27520   2.956   8.886   0.300
41838SOL    HW127521   2.968   8.969   0.346
41838SOL    HW227522  -8.020   8.887   0.229
41839SOL     OW27523   3.018   5.010   0.983
41839SOL    HW127524   3.031  16.069   1.076
41839SOL    HW227525   3.072   5.074   0.937
41840SOL     OW27526   3.662   9.907   8.120
41840SOL    HW127527  14.749   9.971   8.174
41840SOL    HW227528   3.729   9.847   8.088
41841SOL     OW27529   6.311   3.154   6.701
41841SOL    HW127530   6.302  25.266  39.909
41841SOL    HW227531   6.275  14.263   6.646
41842SOL     OW27532  -0.651   5.172   1.382
41842SOL    HW127533  -0.570   5.143   1.340
41842SOL    HW227534  32.398   5.145   1.322
41843SOL     OW27535   8.084   9.331   0.284
41843SOL    HW127536  19.178  31.487   0.300
41843SOL    HW227537   8.002   9.350   0.330
41844SOL     OW27538   9.351   7.592   0.438
41844SOL    HW127539   9.271   7.549   0.469
41844SOL    HW227540   9.417   7.523   0.440
41845SOL     OW27541  10.469   6.050   6.590
41845SOL    HW127542  -0.486   6.036 -15.532
41845SOL    HW227543  10.488   6.111   6.661
41846SOL     OW27544   2.027   7.165  10.351
41846SOL    HW127545   2.093   7.187  10.417
41846SOL    HW227546   1.998   7.250  -0.723
41847SOL     OW27547   3.733  -0.499  11.794
41847SOL    HW127548   3.723  10.517   0.846
41847SOL    HW227549   3.690  -0.570 -10.333
41848SOL     OW27550   5.242   7.941   9.559
41848SOL    HW127551  16.187 -14.129   9.550
41848SOL    HW227552   5.277   7.959  20.511
41849SOL     OW27553  10.334   0.162   8.080
41849SOL    HW127554  10.365   0.121  -3.041
41849SOL    HW227555  10.414   0.179  -2.910
41850SOL     OW27556   0.198   1.912  12.582
41850SOL    HW127557  22.231  -9.152   1.623
41850SOL    HW227558 -10.760   1.951  -9.468
41851SOL     OW27559   5.308   5.159   1.185
41851SOL    HW127560 -16.766   5.156  34.399
41851SOL    HW227561   5.316   5.067   1.158
41852SOL     OW27562   6.402   1.276   2.849
41852SOL    HW127563   6.386   1.296   2.942
41852SOL    HW227564   6.475   1.332  -8.215
41853SOL     OW27565   1.268   4.011   1.964
41853SOL    HW127566   1.248  15.124  13.062
41853SOL    HW227567   1.188   3.958  57.162
41854SOL     OW27568  10.307   8.183   0.911
41854SOL    HW127569  10.248  19.251   0.841
41854SOL    HW227570  10.314   8.089 -10.139
41855SOL     OW27571  10.221   9.389   2.461
41855SOL    HW127572  10.276  -1.718   2.501
41855SOL    HW227573  10.268   9.471   2.474
41856SOL     OW27574   2.237   6.682   0.413
41856SOL    HW127575  13.220   6.758   0.398
41856SOL    HW227576   2.213  -4.388  11.541
41857SOL     OW27577   1.214   2.357   6.036
41857SOL    HW127578  12.194  13.391 -27.157
41857SOL    HW227579   1.223   2.266   6.067
41858SOL     OW27580   4.942   6.725   8.054
41858SOL    HW127581   5.022   6.673  19.094
41858SOL    HW227582   4.970   6.812   8.082
41859SOL     OW27583  10.337   5.029   2.609
41859SOL    HW127584  -0.683 -28.085   2.515
41859SOL    HW227585  10.244   5.050   2.615
41860SOL     OW27586   2.387   9.193   6.383
41860SOL    HW127587  -8.728  20.183   6.352
41860SOL    HW227588   2.444   9.126  28.502
41861SOL     OW27589   1.628   3.393   4.743
41861SOL    HW127590  12.582   3.350   4.732
41861SOL    HW227591   1.612   3.463   4.807
41862SOL     OW27592  11.465   3.738   6.978
41862SOL    HW127593 -10.625   3.799   7.051
41862SOL    HW227594  11.425   3.657  18.049
41863SOL     OW27595   0.077   6.020   9.717
41863SOL    HW127596   0.127   5.940  -1.309
41863SOL    HW227597   0.061   6.054   9.805
41864SOL     OW27598   2.096   4.545  10.080
41864SOL    HW127599   2.047   4.536  21.202
41864SOL    HW227600   2.092  15.678 -34.098
41865SOL     OW27601   3.138   4.042  10.058
41865SOL    HW127602  14.145   3.963  -1.024
41865SOL    HW227603   3.133   4.023  10.151
41866SOL     OW27604   8.885   9.579   2.666
41866SOL    HW127605   8.858   9.656 -19.364
41866SOL    HW227606   8.809   9.522   2.665
41867SOL     OW27607   4.861   8.246   8.125
41867SOL    HW127608  15.893   8.170   8.068
41867SOL    HW227609   4.893   8.316  19.108
41868SOL     OW27610  10.590   4.318   5.775
41868SOL    HW127611  -0.471  37.489   5.698
41868SOL    HW227612  10.574   4.376   5.849
41869SOL     OW27613   5.076   3.703   2.213
41869SOL    HW127614  16.168   3.648   2.154
41869SOL    HW227615   5.024   3.758   2.154
41870SOL     OW27616  10.550   9.459   5.426
41870SOL    HW127617  10.614   9.529  16.478
41870SOL    HW227618  10.603  -1.655  -5.642
41871SOL     OW27619   3.327   5.248  11.864
41871SOL    HW127620 -18.685   5.229  11.929
41871SOL    HW227621  -7.794  16.289 -10.166
41872SOL     OW27622   4.165   6.506  10.789
41872SOL    HW127623   4.251   6.547  -0.262
41872SOL    HW227624   4.182  39.551  21.887
41873SOL     OW27625   2.285   4.533  -0.003
41873SOL    HW127626   2.288   4.567  -0.093
41873SOL    HW227627   2.197 -17.522  22.107
41874SOL     OW27628   3.978   5.081   5.666
41874SOL    HW127629   4.019   5.165   5.689
41874SOL    HW227630  -7.022   5.058  16.621
41875SOL     OW27631   6.869   2.989   3.291
41875SOL    HW127632  28.942  36.186   3.236
41875SOL    HW227633  17.874   2.919   3.235
41876SOL     OW27634   9.675  -0.531   1.382
41876SOL    HW127635   9.680  10.537   1.291
41876SOL    HW227636  -1.437  -0.594   1.384
41877SOL     OW27637   3.805   4.026   6.078
41877SOL    HW127638 -18.279   4.020  17.213
41877SOL    HW227639  -7.322   4.055 -27.067
41878SOL     OW27640   0.159   9.595   8.920
41878SOL    HW127641  33.230   9.654  20.018
41878SOL    HW227642   0.185   9.521  20.014
41879SOL     OW27643   1.575   2.037   3.613
41879SOL    HW127644   1.540   1.955   3.650
41879SOL    HW227645  12.705   2.016  14.629
41880SOL     OW27646   3.527  10.756   0.978
41880SOL    HW127647  14.608  10.688  12.071
41880SOL    HW227648  -7.440  10.796   0.930
41881SOL     OW27649  10.379   3.191   2.937
41881SOL    HW127650  10.399   3.134   3.011
41881SOL    HW227651  10.301   3.153   2.897
41882SOL     OW27652   8.662   2.112   1.550
41882SOL    HW127653   8.711   2.110   1.468
41882SOL    HW227654   8.727  13.177  12.656
41883SOL     OW27655   4.577   9.610   4.189
41883SOL    HW127656  15.681   9.557  26.315
41883SOL    HW227657   4.577   9.575   4.100
41884SOL     OW27658   5.798   2.496   2.405
41884SOL    HW127659  -5.304   2.546   2.458
41884SOL    HW227660   5.799   2.542   2.321
41885SOL     OW27661   1.272   7.850  11.305
41885SOL    HW127662   1.219 -36.359 -10.836
41885SOL    HW227663   1.334 -14.293  11.340
41886SOL     OW27664   7.030   1.543   9.401
41886SOL    HW127665   6.945   1.539  20.485
41886SOL    HW227666   7.063   1.631   9.422
41887SOL     OW27667   7.215   4.788   0.972
41887SOL    HW127668  -3.907   4.812   0.929
41887SOL    HW227669   7.254   4.724  11.952
41888SOL     OW27670   9.304   9.378   8.345
41888SOL    HW127671  31.319   9.384   8.275
41888SOL    HW227672   9.283   9.297   8.391
41889SOL     OW27673   3.738   4.454   8.187
41889SOL    HW127674   3.774   4.440   8.099
41889SOL    HW227675   3.693  15.578   8.181
41890SOL     OW27676   8.837   7.448  11.439
41890SOL    HW127677   8.805   7.387   0.466
41890SOL    HW227678   8.895   7.394  11.384
41891SOL     OW27679   8.927   9.225   4.418
41891SOL    HW127680   8.928   9.316   4.450
41891SOL    HW227681   8.913   9.233   4.324
41892SOL     OW27682   9.798   4.565   9.859
41892SOL    HW127683   9.795   4.494   9.924
41892SOL    HW227684  20.784   4.533   9.786
41893SOL     OW27685  11.398   1.151  10.247
41893SOL    HW127686  11.351   1.072 -11.857
41893SOL    HW227687 -10.713   1.219  10.188
41894SOL     OW27688   1.037   0.218   1.685
41894SOL    HW127689  12.050   0.308   1.667
41894SOL    HW227690   1.112   0.204   1.626
41895SOL     OW27691   0.049   6.456   9.169
41895SOL    HW127692   0.132  17.504   9.217
41895SOL    HW227693  -0.013  -4.530   9.218
41896SOL     OW27694   5.600   9.230   8.406
41896SOL    HW127695   5.638  31.366   8.338
41896SOL    HW227696  -5.441   9.284   8.485
41897SOL     OW27697   7.613   8.619   7.236
41897SOL    HW127698   7.537   8.611   7.178
41897SOL    HW227699   7.654   8.533   7.235
41898SOL     OW27700   3.587   6.366   2.687
41898SOL    HW127701   3.507   6.325   2.720
41898SOL    HW227702   3.611   6.313   2.611
41899SOL     OW27703   6.920   9.648   0.316
41899SOL    HW127704   6.921   9.657   0.221
41899SOL    HW227705   6.862   9.573  11.372
41900SOL     OW27706   9.824   1.809   5.279
41900SOL    HW127707   9.751   1.866   5.256
41900SOL    HW227708   9.881  -9.177   5.335
41901SOL     OW27709   0.356   7.786   7.778
41901SOL    HW127710  11.478   7.795   7.730
41901SOL    HW227711   0.288   7.797   7.710
41902SOL     OW27712   2.843   2.903   1.559
41902SOL    HW127713   2.912   2.909   1.493
41902SOL    HW227714   2.779  25.048   1.531
41903SOL     OW27715  12.406   7.912   7.579
41903SOL    HW127716  -9.682   7.917   7.674
41903SOL    HW227717   1.416   7.990   7.555
41904SOL     OW27718   8.515   3.509   2.983
41904SOL    HW127719   8.585   3.506  13.957
41904SOL    HW227720   8.555   3.477   3.063
41905SOL     OW27721   3.151   5.660   4.616
41905SOL    HW127722   3.152   5.612 -28.420
41905SOL    HW227723   3.091   5.733  15.672
41906SOL     OW27724   9.155   2.641   5.420
41906SOL    HW127725   9.133   2.548   5.427
41906SOL    HW227726  -1.803 -19.430   5.469
41907SOL     OW27727   5.470   4.605   9.189
41907SOL    HW127728  -5.479   4.589  -1.824
41907SOL    HW227729   5.451   4.694  -1.819
41908SOL     OW27730  10.256   2.402  11.077
41908SOL    HW127731 -11.779  35.435 -11.001
41908SOL    HW227732  21.242   2.402   0.117
41909SOL     OW27733   3.791   1.213   2.574
41909SOL    HW127734   3.721   1.265  24.692
41909SOL    HW227735   3.845   1.185   2.647
41910SOL     OW27736   9.478   2.515   6.848
41910SOL    HW127737  20.440  -8.468  17.888
41910SOL    HW227738   9.530   2.547   6.774
41911SOL     OW27739   1.579   9.119   4.961
41911SOL    HW127740  12.575   9.185   4.906
41911SOL    HW227741 -31.537  20.198   5.048
41912SOL     OW27742   0.425   0.745   2.448
41912SOL    HW127743   0.393 -10.254   2.367
41912SOL    HW227744   0.409   0.652   2.435
41913SOL     OW27745  10.109   8.537  10.774
41913SOL    HW127746  10.141  -2.573  -0.322
41913SOL    HW227747 -11.894  -2.477  10.826
41914SOL     OW27748   2.042   8.905   5.325
41914SOL    HW127749  13.118 -13.212   5.245
41914SOL    HW227750  13.086  -2.206  -5.650
41915SOL     OW27751   3.154   4.307   3.218
41915SOL    HW127752  14.119  -6.701  -7.770
41915SOL    HW227753   3.206   4.385   3.201
41916SOL     OW27754   9.899   6.992   8.660
41916SOL    HW127755   9.880   7.012   8.568
41916SOL    HW227756   9.961   6.920  -2.384
41917SOL     OW27757   2.115   0.774   3.211
41917SOL    HW127758   2.112  22.889   3.122
41917SOL    HW227759  13.078   0.718   3.217
41918SOL     OW27760   9.686   6.383   4.039
41918SOL    HW127761   9.779   6.371 -29.101
41918SOL    HW227762  31.764   6.390   4.135
41919SOL     OW27763   6.483   8.008   7.545
41919SOL    HW127764  17.440  19.087   7.519
41919SOL    HW227765  17.499   7.940   7.608
41920SOL     OW27766   8.927   9.603   3.495
41920SOL    HW127767   9.013   9.644   3.482
41920SOL    HW227768  42.019   9.630  14.622
41921SOL     OW27769   3.766   1.665   5.352
41921SOL    HW127770   3.832  -9.355  16.459
41921SOL    HW227771   3.805   1.594  16.340
41922SOL     OW27772   3.644   3.598   3.458
41922SOL    HW127773   3.735   3.592 -18.592
41922SOL    HW227774   3.600   3.647  25.606
41923SOL     OW27775  10.149   1.544   7.567
41923SOL    HW127776  21.229   1.459   7.553
41923SOL    HW227777  10.066   1.523   7.610
41924SOL     OW27778   4.461   2.706   6.553
41924SOL    HW127779  -6.605 -19.450  17.543
41924SOL    HW227780  -6.572   2.776   6.488
41925SOL     OW27781   1.605  10.020  -0.282
41925SOL    HW127782  12.719  -1.053  -0.231
41925SOL    HW227783   1.596   9.957  10.686
41926SOL     OW27784   1.044  11.502   2.915
41926SOL    HW127785   0.995  11.440   2.861
41926SOL    HW227786   1.046 -10.617   3.002
41927SOL     OW27787   2.456   2.480   1.084
41927SOL    HW127788   2.544  35.607   1.048
41927SOL    HW227789   2.399  24.603   1.021
41928SOL     OW27790   1.322   7.287  10.262
41928SOL    HW127791   1.259   7.323  10.323
41928SOL    HW227792   1.399   7.266  10.315
41929SOL     OW27793   3.420   5.040   7.351
41929SOL    HW127794   3.390  15.991  40.490
41929SOL    HW227795   3.491   5.028   7.288
41930SOL     OW27796   9.197  -0.901   3.877
41930SOL    HW127797   9.158  -0.915   3.963
41930SOL    HW227798   9.199  21.091  14.876
41931SOL     OW27799   8.786   7.685   6.233
41931SOL    HW127800  19.795   7.684  17.182
41931SOL    HW227801   8.738   7.758   6.273
41932SOL     OW27802   7.896   7.840   6.450
41932SOL    HW127803   7.970  -3.259 -15.643
41932SOL    HW227804  -3.103   7.923   6.476
41933SOL     OW27805   7.983   5.043   3.743
41933SOL    HW127806   7.975   5.082   3.830
41933SOL    HW227807   7.898   5.003   3.727
41934SOL     OW27808   7.466   7.960   6.136
41934SOL    HW127809  18.596   7.957  28.247
41934SOL    HW227810  -3.625   7.986  17.252
41935SOL     OW27811   6.994   6.824   0.017
41935SOL    HW127812   6.977   6.887  -0.053
41935SOL    HW227813   7.030   6.878   0.088
41936SOL     OW27814   9.030   7.276   5.462
41936SOL    HW127815 -13.113   7.320   5.406
41936SOL    HW227816 -12.966  18.330   5.419
41937SOL     OW27817  10.140   5.265   1.492
41937SOL    HW127818  10.234   5.274  12.542
41937SOL    HW227819  10.103   5.306 -20.509
41938SOL     OW27820   9.382   9.266   5.212
41938SOL    HW127821   9.290  -1.751 -16.879
41938SOL    HW227822   9.427   9.310   5.140
41939SOL     OW27823   7.403   1.739   8.698
41939SOL    HW127824   7.426   1.783  30.696
41939SOL    HW227825   7.350   1.664  -2.369
41940SOL     OW27826   0.105   3.815   8.723
41940SOL    HW127827   0.039  14.794  30.836
41940SOL    HW227828   0.163   3.831  19.836
41941SOL     OW27829   5.271   8.113   2.424
41941SOL    HW127830  -5.767  30.195   2.328
41941SOL    HW227831 -16.833   8.023  -8.595
41942SOL     OW27832   3.493   0.434   9.748
41942SOL    HW127833   3.481   0.407   9.839
41942SOL    HW227834   3.403  22.519   9.714
41943SOL     OW27835   9.410   1.605   5.988
41943SOL    HW127836   9.474   1.577   5.923
41943SOL    HW227837   9.325   1.579  16.991
41944SOL     OW27838   8.224   8.938  -0.904
41944SOL    HW127839   8.222  -2.100  21.271
41944SOL    HW227840   8.230   8.845  -0.926
41945SOL     OW27841   0.508  -0.520   6.840
41945SOL    HW127842   0.440  10.516  17.813
41945SOL    HW227843   0.461  -0.510  17.962
41946SOL     OW27844   0.420   6.964   1.016
41946SOL    HW127845   0.508   6.943   1.047
41946SOL    HW227846   0.435   7.009 -10.107
41947SOL     OW27847   9.110   6.873   6.355
41947SOL    HW127848   9.109 -37.211   6.415
41947SOL    HW227849   9.022   6.835   6.361
41948SOL     OW27850   1.795   1.320   2.688
41948SOL    HW127851  -9.177   1.338   2.754
41948SOL    HW227852  23.795  23.380   2.739
41949SOL     OW27853   5.080   2.007   6.316
41949SOL    HW127854   5.053  35.037   6.294
41949SOL    HW227855   5.174  35.128 -15.780
41950SOL     OW27856  -2.443   9.981   7.445
41950SOL    HW127857  63.770  10.057  -3.648
41950SOL    HW227858  -2.497   9.988   7.524
41951SOL     OW27859   6.823   6.235   2.338
41951SOL    HW127860   6.881   6.306   2.309
41951SOL    HW227861   6.843   6.223   2.430
41952SOL     OW27862   6.401   6.439   9.855
41952SOL    HW127863   6.354   6.361  -1.212
41952SOL    HW227864 -15.705  17.492   9.946
41953SOL     OW27865   7.840  10.784   7.448
41953SOL    HW127866  18.890  10.732  -3.511
41953SOL    HW227867  -3.269  10.846   7.468
41954SOL     OW27868   0.829   0.483   9.605
41954SOL    HW127869   0.834   0.480 -23.418
41954SOL    HW227870   0.867   0.400   9.577
41955SOL     OW27871   3.614   9.039  11.892
41955SOL    HW127872  -7.465   9.100  11.954
41955SOL    HW227873 -18.536   8.978 -10.210
41956SOL     OW27874   8.312   2.369  10.330
41956SOL    HW127875   8.310   2.379  21.464
41956SOL    HW227876   8.271   2.284  10.313
41957SOL     OW27877  11.644   3.149   4.288
41957SOL    HW127878 -10.489   3.182   4.216
41957SOL    HW227879  22.774   3.160   4.258
41958SOL     OW27880   2.548   6.710   7.159
41958SOL    HW127881   2.524   6.626   7.198
41958SOL    HW227882   2.472   6.766   7.174
41959SOL     OW27883   0.720  10.010   9.981
41959SOL    HW127884   0.769  10.081   9.938
41959SOL    HW227885 -10.286  10.009  10.071
41960SOL     OW27886   8.549   9.996   4.110
41960SOL    HW127887   8.534  10.027   4.200
41960SOL    HW227888  -2.519  20.944  26.190
41961SOL     OW27889  10.458   5.711  -1.469
41961SOL    HW127890  -0.523   5.786  31.643
41961SOL    HW227891  10.389   5.739  20.670
41962SOL     OW27892   5.680   1.550   0.135
41962SOL    HW127893   5.741   1.578  22.145
41962SOL    HW227894   5.635  23.710   0.161
41963SOL     OW27895   5.356   5.943  -0.567
41963SOL    HW127896   5.279   5.902  -0.607
41963SOL    HW227897   5.323  -5.019  10.516
41964SOL     OW27898   0.793   5.354   7.849
41964SOL    HW127899   0.730  27.438   7.778
41964SOL    HW227900  22.825 -27.731  -3.114
41965SOL     OW27901   4.445   1.558   4.184
41965SOL    HW127902  15.530  12.608  -6.939
41965SOL    HW227903 -17.722   1.528   4.161
41966SOL     OW27904   3.736   9.572   6.931
41966SOL    HW127905   3.828   9.588  -4.127
41966SOL    HW227906   3.695  20.605   6.844
41967SOL     OW27907   8.316   8.248   8.266
41967SOL    HW127908  30.470   8.271   8.322
41967SOL    HW227909  30.436   8.209   8.189
41968SOL     OW27910   2.445   0.285   8.399
41968SOL    HW127911   2.452   0.331   8.315
41968SOL    HW227912   2.363   0.317   8.437
41969SOL     OW27913   0.992   3.593   5.851
41969SOL    HW127914   0.971   3.679   5.888
41969SOL    HW227915   1.069  -7.431   5.797
41970SOL     OW27916   0.801   8.466   4.406
41970SOL    HW127917   0.857  -2.588   4.329
41970SOL    HW227918   0.786   8.560   4.407
41971SOL     OW27919   0.567   3.309   7.372
41971SOL    HW127920   0.639   3.289  -3.608
41971SOL    HW227921  11.632 -18.688   7.330
41972SOL     OW27922   7.037   2.346   1.851
41972SOL    HW127923   7.025   2.340   1.757
41972SOL    HW227924   7.127   2.316   1.866
41973SOL     OW27925   8.563   1.586   0.650
41973SOL    HW127926   8.509   1.520   0.607
41973SOL    HW227927   8.652  -9.473   0.621
41974SOL     OW27928   3.696   7.323   4.508
41974SOL    HW127929   3.780   7.343 -28.652
41974SOL    HW227930   3.631   7.339   4.440
41975SOL     OW27931   7.183  -0.274   1.489
41975SOL    HW127932   7.210  21.883   1.537
41975SOL    HW227933   7.140  10.710  12.595
41976SOL     OW27934   8.224   8.157   9.044
41976SOL    HW127935   8.212  19.178  -1.902
41976SOL    HW227936   8.275   8.084   9.011
41977SOL     OW27937   9.213   7.357  11.630
41977SOL    HW127938   9.152   7.431   0.580
41977SOL    HW227939  20.198  29.358 -32.536
41978SOL     OW27940   0.005   6.198   0.017
41978SOL    HW127941   0.033   6.267  -0.043
41978SOL    HW227942   0.058   6.122  -0.007
41979SOL     OW27943   2.393  -0.518   0.738
41979SOL    HW127944   2.317  10.554 -10.253
41979SOL    HW227945  13.507  -0.472   0.777
41980SOL     OW27946   5.464   9.702   2.073
41980SOL    HW127947   5.489   9.771   2.135
41980SOL    HW227948   5.496   9.621   2.112
41981SOL     OW27949   9.763   6.565   9.381
41981SOL    HW127950   9.715  -4.557 -12.710
41981SOL    HW227951  20.784   6.590 -12.607
41982SOL     OW27952   0.763   9.997  10.300
41982SOL    HW127953   0.746   9.906  10.277
41982SOL    HW227954   0.681  -1.011  10.339
41983SOL     OW27955   5.594   1.700   2.263
41983SOL    HW127956   5.525   1.680   2.199
41983SOL    HW227957   5.636   1.616  24.359
41984SOL     OW27958   9.223   5.203   6.774
41984SOL    HW127959  -1.900  16.280   6.804
41984SOL    HW227960   9.235  -5.913   6.830
41985SOL     OW27961   8.041   8.053  10.163
41985SOL    HW127962  19.077   8.038  10.258
41985SOL    HW227963   8.132   8.034  10.140
41986SOL     OW27964   6.298   4.617  11.971
41986SOL    HW127965   6.258   4.653 -10.030
41986SOL    HW227966 -15.687  15.672   0.944
41987SOL     OW27967  10.602   5.219   7.667
41987SOL    HW127968  10.530   5.169   7.629
41987SOL    HW227969  10.560  16.316   7.732
41988SOL     OW27970  10.420   6.314   4.304
41988SOL    HW127971 -11.646   6.409   4.303
41988SOL    HW227972  10.403   6.294   4.396
41989SOL     OW27973   4.762   8.129   6.953
41989SOL    HW127974   4.670  30.200   6.927
41989SOL    HW227975  15.842   8.178   6.881
41990SOL     OW27976   0.017  13.833   8.440
41990SOL    HW127977   0.094  -8.199   8.474
41990SOL    HW227978  -0.051 -19.270   8.505
41991SOL     OW27979   7.370   7.174   4.886
41991SOL    HW127980   7.301   7.123  15.968
41991SOL    HW227981   7.360   7.155  26.871
41992SOL     OW27982   9.223   7.460   4.954
41992SOL    HW127983   9.173  -3.661   4.943
41992SOL    HW227984   9.277   7.466  -6.164
41993SOL     OW27985   6.675   4.894   1.348
41993SOL    HW127986   6.667   4.873   1.441
41993SOL    HW227987  17.630   4.932   1.324
41994SOL     OW27988   9.450   1.327   3.256
41994SOL    HW127989   9.441   1.412   3.300
41994SOL    HW227990  20.580  23.406  -7.815
41995SOL     OW27991   2.383   6.845   0.263
41995SOL    HW127992   2.427  17.826   0.202
41995SOL    HW227993   2.329  28.867   0.318
41996SOL     OW27994   5.922   9.669   1.019
41996SOL    HW127995   5.895  31.720   1.107
41996SOL    HW227996   5.943   9.762  12.069
41997SOL     OW27997  11.018   2.665   8.830
41997SOL    HW127998  10.998  -8.437 -35.258
41997SOL    HW227999  10.978  -8.293  -2.181
41998SOL     OW28000   7.430  12.569   5.485
41998SOL    HW128001 -25.614 -20.517   5.535
41998SOL    HW228002  40.496  12.646   5.466
41999SOL     OW28003   0.956   0.256   9.512
41999SOL    HW128004   0.996  33.330   9.437
41999SOL    HW228005   0.887  33.316  31.620
42000SOL     OW28006   0.961   9.416   2.915
42000SOL    HW128007   0.906  20.430   2.841
42000SOL    HW228008   1.034   9.462   2.875
42001SOL     OW28009   1.365   8.802   2.796
42001SOL    HW128010   1.454   8.812  13.868
42001SOL    HW228011   1.375  19.831   2.701
42002SOL     OW28012   9.246   1.218   8.759
42002SOL    HW128013   9.325   1.172  -2.254
42002SOL    HW228014  -1.831  -9.874   8.689
42003SOL     OW28015   7.990   6.238   9.737
42003SOL    HW128016   8.026   6.312   9.689
42003SOL    HW228017  -3.012   6.245   9.824
42004SOL     OW28018   9.347   9.159   9.124
42004SOL    HW128019  -1.726   9.187   9.039
42004SOL    HW228020  -1.606   9.199   9.131
42005SOL     OW28021   1.237   1.833   0.270
42005SOL    HW128022   1.314  -9.164  11.346
42005SOL    HW228023  -9.843  23.867   0.344
42006SOL     OW28024   5.721   7.804   6.481
42006SOL    HW128025   5.811   7.818   6.510
42006SOL    HW228026  27.749  -3.171   6.531
42007SOL     OW28027   8.228   0.156   4.605
42007SOL    HW128028   8.216   0.125   4.515
42007SOL    HW228029  -2.717  11.201  48.774
42008SOL     OW28030   6.428   9.726  -0.606
42008SOL    HW128031   6.422   9.768  21.387
42008SOL    HW228032   6.391   9.639  -0.620
42009SOL     OW28033   9.915   9.210   3.637
42009SOL    HW128034   9.853   9.173  -7.340
42009SOL    HW228035   9.930   9.299  -7.372
42010SOL     OW28036   8.081   4.469   8.078
42010SOL    HW128037   8.000   4.454   8.029
42010SOL    HW228038   8.053  15.548   8.160
42011SOL     OW28039   7.723   4.805  10.889
42011SOL    HW128040  29.767  38.003  -0.192
42011SOL    HW228041   7.817  15.847  10.870
42012SOL     OW28042  10.893   4.895   4.473
42012SOL    HW128043  10.917   4.944   4.394
42012SOL    HW228044  10.826   4.949   4.515
42013SOL     OW28045   6.959   4.974   6.909
42013SOL    HW128046  18.064  -5.999   6.890
42013SOL    HW228047   6.916  -6.036 -26.129
42014SOL     OW28048   5.782   5.087   0.771
42014SOL    HW128049   5.721   5.085   0.697
42014SOL    HW228050  -5.175   5.116   0.734
42015SOL     OW28051   0.227   8.969   5.588
42015SOL    HW128052   0.163  31.047   5.659
42015SOL    HW228053   0.287   8.897   5.608
42016SOL     OW28054   9.062   2.383   4.509
42016SOL    HW128055  -2.007  -8.733  15.598
42016SOL    HW228056   9.152  -8.677   4.484
42017SOL     OW28057   5.477   6.378   1.409
42017SOL    HW128058   5.568   6.372   1.439
42017SOL    HW228059  -5.585   6.470   1.422
42018SOL     OW28060  10.734   8.240   5.414
42018SOL    HW128061  10.774   8.257  16.368
42018SOL    HW228062 -11.439  -2.799   5.397
42019SOL     OW28063   8.011   6.326   3.775
42019SOL    HW128064   7.945   6.396   3.773
42019SOL    HW228065   8.063 -26.774  -7.187
42020SOL     OW28066   5.729  11.401   3.628
42020SOL    HW128067  -5.293   0.455   3.643
42020SOL    HW228068   5.640   0.349   3.659
42021SOL     OW28069   5.399   7.167  10.896
42021SOL    HW128070   5.396   7.102  10.967
42021SOL    HW228071   5.491   7.171  10.870
42022SOL     OW28072   9.054  10.008   6.020
42022SOL    HW128073   9.060   9.932  17.002
42022SOL    HW228074   9.087   9.977  17.144
42023SOL     OW28075   2.667   5.589   4.028
42023SOL    HW128076  13.653   5.516   3.998
42023SOL    HW228077 -19.464   5.667   4.005
42024SOL     OW28078   0.444   2.740  -0.583
42024SOL    HW128079  11.481  -8.256  -0.498
42024SOL    HW228080   0.536  -8.296  32.509
42025SOL     OW28081   8.353   6.498   7.523
42025SOL    HW128082   8.263   6.480   7.498
42025SOL    HW228083   8.369   6.587   7.492
42026SOL     OW28084   8.409   9.201   3.617
42026SOL    HW128085   8.417   9.278   3.561
42026SOL    HW228086   8.351   9.141   3.569
42027SOL     OW28087   3.599  -1.401   4.134
42027SOL    HW128088   3.636  20.663   4.047
42027SOL    HW228089   3.634  20.764   4.159
42028SOL     OW28090   6.049   4.468   9.180
42028SOL    HW128091   6.014 -17.616   9.269
42028SOL    HW228092   6.060  37.680  -1.876
42029SOL     OW28093   4.307   4.128   5.147
42029SOL    HW128094   4.282   4.036   5.159
42029SOL    HW228095   4.295   4.144   5.053
42030SOL     OW28096   5.784   6.949   2.113
42030SOL    HW128097   5.729  29.100   2.141
42030SOL    HW228098   5.778  17.989  -9.023
42031SOL     OW28099   7.095   6.338  -0.160
42031SOL    HW128100  -3.883   6.409  21.939
42031SOL    HW228101   7.145   6.280  -0.219
42032SOL     OW28102   8.405   6.596   7.040
42032SOL    HW128103   8.343   6.536  18.119
42032SOL    HW228104   8.487   6.547   7.035
42033SOL     OW28105   6.869   9.210   6.157
42033SOL    HW128106   6.935  20.317   6.138
42033SOL    HW228107  17.868  20.279  -4.800
42034SOL     OW28108   9.046   5.348   6.926
42034SOL    HW128109   9.012  16.315   6.978
42034SOL    HW228110   8.980 -27.758   6.857
42035SOL     OW28111   6.511   9.413   4.145
42035SOL    HW128112  -4.611   9.407   4.192
42035SOL    HW228113   6.540   9.322   4.134
42036SOL     OW28114  10.202   9.347   5.508
42036SOL    HW128115  -0.826  -1.635   5.433
42036SOL    HW228116  10.157 -12.679   5.574
42037SOL     OW28117   6.118   4.005   4.525
42037SOL    HW128118  17.137   4.098   4.517
42037SOL    HW228119  -4.849   4.002  26.668
42038SOL     OW28120   6.717   6.833   6.384
42038SOL    HW128121   6.701   6.927  -4.654
42038SOL    HW228122  17.764  -4.228   6.291
42039SOL     OW28123   3.891   4.142   8.133
42039SOL    HW128124 -18.192  -6.868  19.263
42039SOL    HW228125   3.983  15.162   8.117
42040SOL     OW28126   1.946  -0.362   7.338
42040SOL    HW128127   2.019  -0.343   7.279
42040SOL    HW228128   1.987  21.680   7.416
42041SOL     OW28129   7.745   2.249   8.224
42041SOL    HW128130   7.763   2.263   8.317
42041SOL    HW228131  29.736   2.212   8.222
42042SOL     OW28132   6.163   1.567   2.831
42042SOL    HW128133  17.205   1.504  -8.137
42042SOL    HW228134  17.284   1.617   2.841
42043SOL     OW28135   8.733   5.199   9.149
42043SOL    HW128136 -13.316   5.139   9.218
42043SOL    HW228137  -2.307   5.146   9.070
42044SOL     OW28138   8.651   0.116   3.503
42044SOL    HW128139  -2.355   0.198   3.467
42044SOL    HW228140   8.558   0.116   3.480
42045SOL     OW28141   7.266   8.219   0.521
42045SOL    HW128142   7.256  -2.867   0.438
42045SOL    HW228143  29.365   8.309   0.496
42046SOL     OW28144   6.187   3.181   3.441
42046SOL    HW128145   6.272   3.219   3.420
42046SOL    HW228146   6.208   3.098  -7.556
42047SOL     OW28147   5.399   4.473   4.343
42047SOL    HW128148   5.474   4.426   4.380
42047SOL    HW228149   5.430 -28.611   4.260
42048SOL     OW28150   1.802   6.261  10.826
42048SOL    HW128151   1.722   6.281  -0.166
42048SOL    HW228152   1.849  28.279  10.882
42049SOL     OW28153   8.467   1.311   2.802
42049SOL    HW128154   8.515   1.388   2.832
42049SOL    HW228155   8.519   1.277  13.769
42050SOL     OW28156   6.035   8.937   9.608
42050SOL    HW128157   6.014   8.891   9.689
42050SOL    HW228158   6.058   8.868   9.546
42051SOL     OW28159   8.323   8.719   5.141
42051SOL    HW128160   8.235  19.735   5.169
42051SOL    HW228161   8.310   8.762   5.056
42052SOL     OW28162   3.484   3.418   2.631
42052SOL    HW128163   3.454  -7.699  13.623
42052SOL    HW228164  14.603   3.445  13.625
42053SOL     OW28165   4.474   5.829  -1.106
42053SOL    HW128166 -17.619  16.897  21.063
42053SOL    HW228167  15.556 -16.176  -1.149
42054SOL     OW28168   2.348   9.977   9.857
42054SOL    HW128169   2.395  10.056  20.923
42054SOL    HW228170  -8.783   9.996   9.877
42055SOL     OW28171   1.347   8.364   7.747
42055SOL    HW128172  12.339   8.296   7.698
42055SOL    HW228173   1.281   8.432   7.762
42056SOL     OW28174   0.145  10.380   8.290
42056SOL    HW128175   0.139  10.465   8.334
42056SOL    HW228176   0.190  10.324  19.393
42057SOL     OW28177   4.342   8.387  10.275
42057SOL    HW128178   4.360  19.505 -33.832
42057SOL    HW228179   4.279   8.414  -0.830
42058SOL     OW28180   2.841   7.221   1.900
42058SOL    HW128181 -19.267   7.247  35.106
42058SOL    HW228182   2.919  -3.766  23.963
42059SOL     OW28183   4.172   2.175   6.210
42059SOL    HW128184   4.145   2.085  -4.849
42059SOL    HW228185   4.267   2.172   6.206
42060SOL     OW28186  -0.360   8.272   9.801
42060SOL    HW128187  10.636  19.341   9.722
42060SOL    HW228188  21.733   8.352   9.852
42061SOL     OW28189  12.723   2.841   3.190
42061SOL    HW128190 -20.398   2.773   3.257
42061SOL    HW228191  12.640 -19.246   3.144
42062SOL     OW28192  10.271   5.284   4.412
42062SOL    HW128193  21.393   5.303  -6.582
42062SOL    HW228194  10.206  -5.699   4.455
42063SOL     OW28195   7.743   0.768   9.044
42063SOL    HW128196  -3.307 -10.344   8.983
42063SOL    HW228197  18.741   0.738 -23.994
42064SOL     OW28198   5.702   9.594   7.954
42064SOL    HW128199   5.795  20.618 -14.139
42064SOL    HW228200   5.697   9.686  -3.059
42065SOL     OW28201   5.289   8.587  11.098
42065SOL    HW128202   5.379   8.572  11.070
42065SOL    HW228203  -5.783 -13.424 -11.039
42066SOL     OW28204   2.966   7.265   4.891
42066SOL    HW128205  14.014  -3.697   4.835
42066SOL    HW228206  14.041  -3.846   4.839
42067SOL     OW28207   5.815   2.226   2.642
42067SOL    HW128208   5.809   2.321   2.657
42067SOL    HW228209   5.895   2.215   2.590
42068SOL     OW28210   2.052   3.970   0.518
42068SOL    HW128211   2.052   4.014   0.604
42068SOL    HW228212   2.136  15.032  33.598
42069SOL     OW28213   5.061   0.717  10.019
42069SOL    HW128214 -16.978   0.678   9.941
42069SOL    HW228215   5.000   0.782   9.984
42070SOL     OW28216   3.540   6.009   8.968
42070SOL    HW128217   3.528  -5.025   8.873
42070SOL    HW228218   3.631  17.019   8.978
42071SOL     OW28219   2.560   3.087   6.072
42071SOL    HW128220   2.599  14.068   6.008
42071SOL    HW228221   2.633  58.310   6.129
42072SOL     OW28222   7.779   6.255   1.543
42072SOL    HW128223  -3.340   6.298   1.512
42072SOL    HW228224  -3.292   6.179  -9.448
42073SOL     OW28225   7.579   6.834   9.616
42073SOL    HW128226   7.548   6.913   9.572
42073SOL    HW228227   7.673   6.849   9.628
42074SOL     OW28228   1.773  10.375   0.879
42074SOL    HW128229  -9.216  10.294   0.868
42074SOL    HW228230   1.752  21.442 -10.250
42075SOL     OW28231  10.878   3.260   6.624
42075SOL    HW128232  10.945   3.299   6.567
42075SOL    HW228233  -0.244   3.295   6.591
42076SOL     OW28234   3.506   3.056   5.301
42076SOL    HW128235   3.430   3.100  27.418
42076SOL    HW228236   3.497   3.071   5.207
42077SOL     OW28237   9.190   5.788   9.187
42077SOL    HW128238   9.179   5.818   9.097
42077SOL    HW228239  20.291  38.834  -1.860
42078SOL     OW28240   8.989   1.695   1.730
42078SOL    HW128241   9.042   1.764 -20.310
42078SOL    HW228242   8.920   1.679   1.795
42079SOL     OW28243   2.320   5.051   1.308
42079SOL    HW128244  -8.648   5.112  -9.750
42079SOL    HW228245   2.360   4.982   1.360
42080SOL     OW28246   4.484  10.130  10.613
42080SOL    HW128247   4.536  10.154  10.536
42080SOL    HW228248  -6.546  10.035  10.620
42081SOL     OW28249   8.096   1.735   5.419
42081SOL    HW128250   8.132   1.809  -5.668
42081SOL    HW228251   8.023   1.772   5.469
42082SOL     OW28252   1.861   4.274   5.174
42082SOL    HW128253   1.945 -17.759   5.172
42082SOL    HW228254  -9.199 -28.853  -5.772
42083SOL     OW28255   6.568   0.284   5.981
42083SOL    HW128256   6.509   0.255   5.911
42083SOL    HW228257   6.529   0.365   6.013
42084SOL     OW28258   9.742   9.654  12.503
42084SOL    HW128259 -23.326   9.576 -20.591
42084SOL    HW228260   9.708   9.688 -31.572
42085SOL     OW28261   4.596  10.535   8.275
42085SOL    HW128262 -28.523  -0.550   8.191
42085SOL    HW228263 -28.579  21.522  19.371
42086SOL     OW28264   2.448   5.152   1.039
42086SOL    HW128265   2.379   5.212  23.091
42086SOL    HW228266   2.529   5.201  12.068
42087SOL     OW28267   9.862   2.422   8.010
42087SOL    HW128268  -1.193   2.328   8.024
42087SOL    HW228269 -12.287   2.466   8.058
42088SOL     OW28270   5.252   4.004   7.061
42088SOL    HW128271   5.176  15.055   7.005
42088SOL    HW228272   5.321  15.094   7.018
42089SOL     OW28273   2.434   2.431   2.024
42089SOL    HW128274   2.342   2.460   2.026
42089SOL    HW228275   2.476   2.483  35.211
42090SOL     OW28276  10.844   1.330   2.258
42090SOL    HW128277  10.830   1.265   2.189
42090SOL    HW228278  10.860   1.412  13.251
42091SOL     OW28279   1.217  10.092  10.833
42091SOL    HW128280   1.162  10.073  10.756
42091SOL    HW228281  -9.867  10.165  10.877
42092SOL     OW28282  11.036   7.254   7.972
42092SOL    HW128283 -11.118  18.323 -14.159
42092SOL    HW228284  11.072   7.181  -3.116
42093SOL     OW28285   0.596   3.313   4.545
42093SOL    HW128286   0.538   3.316  -6.571
42093SOL    HW228287  33.691   3.232  15.629
42094SOL     OW28288   6.030   4.125   1.695
42094SOL    HW128289   5.981   4.134   1.777
42094SOL    HW228290   5.965   4.101   1.630
42095SOL     OW28291  10.314   1.526   7.997
42095SOL    HW128292  10.264   1.608   8.005
42095SOL    HW228293  -0.792   1.457  19.043
42096SOL     OW28294   6.734   0.371  11.014
42096SOL    HW128295   6.726  11.503  10.991
42096SOL    HW228296   6.677   0.359  11.089
42097SOL     OW28297   6.115   1.659   3.760
42097SOL    HW128298  17.179  -9.297  25.800
42097SOL    HW228299   6.105   1.599   3.686
42098SOL     OW28300   9.765  12.053   7.705
42098SOL    HW128301   9.787 -10.119   7.698
42098SOL    HW228302  20.713   1.015   7.732
42099SOL     OW28303   8.640   4.269   8.737
42099SOL    HW128304  30.732   4.364 -13.331
42099SOL    HW228305   8.679   4.250   8.651
42100SOL     OW28306   6.465   2.353   7.669
42100SOL    HW128307   6.518   2.369   7.591
42100SOL    HW228308   6.375  13.398   7.638
42101SOL     OW28309  12.136  10.201   0.309
42101SOL    HW128310  -9.882  21.176  22.352
42101SOL    HW228311  12.050  10.159  11.344
42102SOL     OW28312   5.942   1.638   3.053
42102SOL    HW128313   5.925   1.551   3.015
42102SOL    HW228314   5.860  23.764   3.043
42103SOL     OW28315   1.858   5.172   4.804
42103SOL    HW128316  23.901   5.119   4.874
42103SOL    HW228317   1.930   5.220   4.845
42104SOL     OW28318   5.253   1.525  10.712
42104SOL    HW128319  16.287   1.618  10.690
42104SOL    HW228320   5.325   1.520  10.776
42105SOL     OW28321  10.132   9.668   9.158
42105SOL    HW128322  10.160 -12.338   9.212
42105SOL    HW228323  10.171  42.710   9.198
42106SOL     OW28324   6.031   9.822   5.211
42106SOL    HW128325   5.956   9.880   5.203
42106SOL    HW228326  17.147   9.880  27.284
42107SOL     OW28327   2.475   3.832   4.375
42107SOL    HW128328   2.403  -7.257  -6.626
42107SOL    HW228329   2.527   3.861   4.449
42108SOL     OW28330  10.257   6.918   6.376
42108SOL    HW128331 -11.892   6.929  28.391
42108SOL    HW228332  10.327   6.873   6.328
42109SOL     OW28333   4.722   4.595  -0.602
42109SOL    HW128334   4.656   4.538  10.398
42109SOL    HW228335   4.805   4.548  10.425
42110SOL     OW28336   8.173   2.629   8.154
42110SOL    HW128337   8.185   2.539   8.124
42110SOL    HW228338   8.122   2.621   8.235
42111SOL     OW28339   9.421   7.879   0.352
42111SOL    HW128340   9.385   7.794   0.376
42111SOL    HW228341   9.409   7.885   0.258
42112SOL     OW28342   8.410   5.035   2.307
42112SOL    HW128343  19.538   5.031   2.270
42112SOL    HW228344   8.356   5.069   2.236
42113SOL     OW28345   2.962   9.762   7.087
42113SOL    HW128346   2.933  20.732   7.146
42113SOL    HW228347   2.964   9.722   7.001
42114SOL     OW28348  10.103   2.635   1.138
42114SOL    HW128349  10.088   2.730  -9.895
42114SOL    HW228350 -11.881  -8.413   1.135
42115SOL     OW28351   3.663   3.955   1.545
42115SOL    HW128352  14.784  26.076   1.571
42115SOL    HW228353   3.666   3.953   1.449
42116SOL     OW28354   2.730   1.362   7.849
42116SOL    HW128355   2.696   1.273  -3.201
42116SOL    HW228356  24.903   1.355   7.831
42117SOL     OW28357   8.898  10.012   8.301
42117SOL    HW128358   8.814  10.056  -2.747
42117SOL    HW228359   8.921  -1.054   8.213
42118SOL     OW28360   1.336  10.139   1.006
42118SOL    HW128361   1.352  -0.822   1.058
42118SOL    HW228362   1.383 -11.926 -10.115
42119SOL     OW28363   6.639   7.433  10.865
42119SOL    HW128364   6.711   7.393  10.914
42119SOL    HW228365   6.563   7.424  10.922
42120SOL     OW28366   9.047   5.861   2.352
42120SOL    HW128367   9.142  27.927   2.350
42120SOL    HW228368   9.013   5.780   2.390
42121SOL     OW28369   4.892   9.385   8.754
42121SOL    HW128370   4.899   9.303   8.803
42121SOL    HW228371   4.858   9.448   8.817
42122SOL     OW28372  12.129   5.605   8.483
42122SOL    HW128373   1.175   5.614   8.525
42122SOL    HW228374   1.071   5.692   8.447
42123SOL     OW28375   7.441   6.557  11.861
42123SOL    HW128376   7.526  -4.510 -10.254
42123SOL    HW228377  18.437   6.600  11.788
42124SOL     OW28378  10.703   0.853   5.809
42124SOL    HW128379  10.721   0.934   5.761
42124SOL    HW228380  10.765   0.855   5.882
42125SOL     OW28381  10.345   4.924   0.010
42125SOL    HW128382  10.338  -6.054  22.017
42125SOL    HW228383  10.307   4.842  -0.024
42126SOL     OW28384   9.973  10.620   3.764
42126SOL    HW128385   9.927  10.692   3.721
42126SOL    HW228386  10.065  10.634  -7.298
42127SOL     OW28387   1.067   0.782  -1.844
42127SOL    HW128388  34.159   0.872  31.294
42127SOL    HW228389   1.024   0.730  -1.776
42128SOL     OW28390   3.790   8.397   8.206
42128SOL    HW128391   3.741  -2.564   8.184
42128SOL    HW228392  14.863   8.365   8.122
42129SOL     OW28393   4.070   0.971   5.938
42129SOL    HW128394   4.057   0.876  16.979
42129SOL    HW228395   4.056   0.996  16.887
42130SOL     OW28396   2.255   6.634   5.807
42130SOL    HW128397  35.435   6.562 -16.259
42130SOL    HW228398   2.201   6.635   5.886
42131SOL     OW28399   3.118   2.530   2.743
42131SOL    HW128400   3.125   2.557   2.652
42131SOL    HW228401  -8.003   2.571   2.774
42132SOL     OW28402   4.981  10.065   2.887
42132SOL    HW128403   4.936  21.133  -8.232
42132SOL    HW228404   4.981   9.970   2.883
42133SOL     OW28405   5.883   3.660   5.605
42133SOL    HW128406  28.006 -51.464   5.565
42133SOL    HW228407   5.858   3.691   5.692
42134SOL     OW28408   9.431   8.814   3.341
42134SOL    HW128409 -12.728  -2.273  -7.678
42134SOL    HW228410   9.490 -13.332 -18.774
42135SOL     OW28411   1.928   1.735   1.505
42135SOL    HW128412   1.991   1.770  12.481
42135SOL    HW228413   1.909   1.647   1.474
42136SOL     OW28414   1.230   7.076   3.053
42136SOL    HW128415   1.202   6.999  25.082
42136SOL    HW228416   1.152   7.131  14.098
42137SOL     OW28417   5.858   4.261   1.361
42137SOL    HW128418  16.817   4.252  12.450
42137SOL    HW228419  27.933  -6.848  23.375
42138SOL     OW28420  10.631   7.456  10.364
42138SOL    HW128421  10.659  -3.541  10.283
42138SOL    HW228422  10.699   7.390  -0.660
42139SOL     OW28423   2.818   6.320   3.313
42139SOL    HW128424  -8.198   6.358  14.268
42139SOL    HW228425 -19.238   6.386   3.377
42140SOL     OW28426   7.789  10.167   8.030
42140SOL    HW128427   7.797  -0.953  19.120
42140SOL    HW228428   7.709  -0.831  19.103
42141SOL     OW28429  10.624   3.931   3.940
42141SOL    HW128430  10.531   3.939   3.922
42141SOL    HW228431  -0.374  15.034   3.881
42142SOL     OW28432   3.389  10.333   9.233
42142SOL    HW128433  25.444  10.323   9.141
42142SOL    HW228434   3.308  10.360   9.276
42143SOL     OW28435   7.685   6.532   7.904
42143SOL    HW128436  -3.429   6.591 -14.169
42143SOL    HW228437  18.690   6.454  40.979
42144SOL     OW28438  10.368  12.362   8.456
42144SOL    HW128439  10.371  -9.679   8.369
42144SOL    HW228440  10.460 -20.765   8.482
42145SOL     OW28441   8.073  10.522   7.655
42145SOL    HW128442   8.157  -0.544   7.692
42145SOL    HW228443   8.046  -0.591  -3.439
42146SOL     OW28444   0.965   7.625   9.215
42146SOL    HW128445   1.011  -3.380 -12.941
42146SOL    HW228446   0.885 -14.402   9.220
42147SOL     OW28447   8.280   1.896   3.848
42147SOL    HW128448  19.396   1.953  25.935
42147SOL    HW228449  19.327   1.836   3.922
42148SOL     OW28450   5.182   9.307   2.394
42148SOL    HW128451   5.147  20.285   2.329
42148SOL    HW228452   5.193   9.389   2.346
42149SOL     OW28453   0.672   3.698   5.927
42149SOL    HW128454   0.582   3.675   5.906
42149SOL    HW228455   0.705 -18.456  17.016
42150SOL     OW28456   4.311   3.019   9.751
42150SOL    HW128457   4.245  -8.047   9.687
42150SOL    HW228458   4.261   3.038   9.830
42151SOL     OW28459   7.142   9.844   6.615
42151SOL    HW128460 -14.942   9.933   6.650
42151SOL    HW228461  -3.813   9.840   6.570
42152SOL     OW28462   3.237   6.380  10.701
42152SOL    HW128463  14.193   6.421  10.724
42152SOL    HW228464   3.298   6.413  10.767
42153SOL     OW28465   2.158   3.247   3.165
42153SOL    HW128466   2.184   3.274   3.077
42153SOL    HW228467  13.171   3.328  14.248
42154SOL     OW28468   2.470   2.625   5.964
42154SOL    HW128469 -19.548  -8.471   6.011
42154SOL    HW228470   2.500  24.704   5.874
42155SOL     OW28471   0.274   0.585   9.853
42155SOL    HW128472   0.370   0.581  20.890
42155SOL    HW228473  22.333  11.718   9.844
42156SOL     OW28474  10.587   5.842   1.879
42156SOL    HW128475 -11.417  -5.229  12.869
42156SOL    HW228476  10.620   5.918  12.967
42157SOL     OW28477   9.544   6.554  -1.073
42157SOL    HW128478   9.633   6.566  -1.038
42157SOL    HW228479   9.524  -4.402  32.004
42158SOL     OW28480   4.185   9.399   3.912
42158SOL    HW128481   4.162   9.487   3.941
42158SOL    HW228482   4.220 -12.668   3.824
42159SOL     OW28483   1.453  11.803   9.973
42159SOL    HW128484   1.426 -10.348   9.915
42159SOL    HW228485   1.385 -10.210   9.962
42160SOL     OW28486   5.430   1.708   4.726
42160SOL    HW128487  -5.635   1.619   4.750
42160SOL    HW228488 -16.567   1.723  -6.265
42161SOL     OW28489   4.940   4.864   1.798
42161SOL    HW128490  -6.191   4.847  12.814
42161SOL    HW228491   4.935   4.932  23.944
42162SOL     OW28492   8.344   0.718   6.815
42162SOL    HW128493   8.335   0.718  17.759
42162SOL    HW228494   8.394   0.797   6.835
42163SOL     OW28495   8.599   6.509   4.662
42163SOL    HW128496   8.679   6.457  26.737
42163SOL    HW228497   8.529  -4.595   4.662
42164SOL     OW28498   3.864   8.034   9.146
42164SOL    HW128499   3.954  -3.028   9.169
42164SOL    HW228500  14.852   7.960   9.178
42165SOL     OW28501   4.281   0.072   3.001
42165SOL    HW128502   4.289   0.015   3.077
42165SOL    HW228503   4.191   0.104   3.003
42166SOL     OW28504   2.567  10.192   7.051
42166SOL    HW128505 -19.593  10.240   7.034
42166SOL    HW228506   2.579  -0.841  18.185
42167SOL     OW28507  12.160   0.979   8.671
42167SOL    HW128508   1.088   1.021   8.751
42167SOL    HW228509   1.160  22.976  -2.338
42168SOL     OW28510   2.241   6.628   1.699
42168SOL    HW128511   2.290  -4.331   1.716
42168SOL    HW228512  35.401   6.562  12.794
42169SOL     OW28513   3.635  10.968   1.719
42169SOL    HW128514   3.661  -0.063   1.811
42169SOL    HW228515 -18.364  10.946  -9.367
42170SOL     OW28516   1.627  -1.194   1.112
42170SOL    HW128517   1.617  20.930 -10.011
42170SOL    HW228518   1.704   9.885   1.152
42171SOL     OW28519  10.454   3.605  10.046
42171SOL    HW128520  10.518   3.662  10.090
42171SOL    HW228521  10.369   3.643  10.069
42172SOL     OW28522   0.224   3.964   6.529
42172SOL    HW128523   0.229   3.870   6.511
42172SOL    HW228524  11.181 -40.167  17.529
42173SOL     OW28525   4.189   2.637   4.491
42173SOL    HW128526   4.279   2.624 -17.618
42173SOL    HW228527  37.277   2.715   4.445
42174SOL     OW28528   1.370  14.601   3.660
42174SOL    HW128529  12.473  -7.541   3.628
42174SOL    HW228530  12.422 -40.596   3.755
42175SOL     OW28531   0.507   8.651   1.257
42175SOL    HW128532   0.457   8.710  -9.727
42175SOL    HW228533   0.486   8.564   1.288
42176SOL     OW28534   4.863   6.896   2.745
42176SOL    HW128535  27.006   6.909  -8.226
42176SOL    HW228536   4.914   6.868   2.669
42177SOL     OW28537   9.105  10.783   6.486
42177SOL    HW128538   9.055  10.815  17.450
42177SOL    HW228539   9.098  10.853  17.591
42178SOL     OW28540   0.641   1.357   7.100
42178SOL    HW128541   0.630  -9.630   7.021
42178SOL    HW228542   0.721  12.432   7.141
42179SOL     OW28543   1.976   7.044   4.677
42179SOL    HW128544  -9.083   7.043   4.771
42179SOL    HW228545  12.978   6.961   4.645
42180SOL     OW28546   7.270   5.387   6.746
42180SOL    HW128547   7.327   5.372   6.670
42180SOL    HW228548   7.307   5.464   6.788
42181SOL     OW28549   4.661   9.127  -1.495
42181SOL    HW128550   4.641  20.189  31.533
42181SOL    HW228551   4.719   9.051  -1.502
42182SOL     OW28552   2.710   3.139   6.495
42182SOL    HW128553   2.673   3.226   6.502
42182SOL    HW228554  24.816   3.116   6.584
42183SOL     OW28555   0.916   5.043   9.959
42183SOL    HW128556  11.941  -5.953  -0.996
42183SOL    HW228557   0.954   5.111   9.903
42184SOL     OW28558   8.965   2.300  10.035
42184SOL    HW128559   8.903   2.349  -1.058
42184SOL    HW228560   9.033   2.273   9.974
42185SOL     OW28561   3.667   8.238   2.920
42185SOL    HW128562   3.650   8.320   2.874
42185SOL    HW228563   3.581   8.199   2.934
42186SOL     OW28564  -0.698   6.243   4.582
42186SOL    HW128565  21.417  17.318   4.664
42186SOL    HW228566  -0.717   6.151   4.602
42187SOL     OW28567   5.863   0.111   8.562
42187SOL    HW128568   5.787   0.118   8.505
42187SOL    HW228569   5.830   0.131   8.650
42188SOL     OW28570   2.817   4.549  10.972
42188SOL    HW128571  13.947   4.566  10.946
42188SOL    HW228572   2.823   4.476  11.034
42189SOL     OW28573   5.620   6.089   5.526
42189SOL    HW128574  -5.345   6.107  27.548
42189SOL    HW228575   5.659   6.048   5.604
42190SOL     OW28576   7.626   9.667   3.480
42190SOL    HW128577   7.617   9.761   3.496
42190SOL    HW228578   7.565   9.648   3.409
42191SOL     OW28579   0.077   2.037   5.687
42191SOL    HW128580  11.076   2.116   5.723
42191SOL    HW228581   0.143   2.012  16.791
42192SOL     OW28582   8.837   2.692   5.052
42192SOL    HW128583   8.848   2.747   5.130
42192SOL    HW228584  19.912 -30.512   5.077
42193SOL     OW28585   5.372   4.399   1.699
42193SOL    HW128586   5.323  -6.723  12.745
42193SOL    HW228587  38.424   4.467  12.741
42194SOL     OW28588   5.306   4.300   6.743
42194SOL    HW128589   5.354  -6.820   6.723
42194SOL    HW228590   5.221  -6.751 -15.380
42195SOL     OW28591   0.203  10.265   6.985
42195SOL    HW128592  11.212  10.177   6.966
42195SOL    HW228593  11.322  10.252   7.036
42196SOL     OW28594   0.492   2.857  10.681
42196SOL    HW128595   0.417   2.871  10.739
42196SOL    HW228596  11.596  -8.227  -0.303
42197SOL     OW28597   4.898   6.511   1.405
42197SOL    HW128598   4.826  28.547   1.451
42197SOL    HW228599   4.955   6.544   1.475
42198SOL     OW28600   5.376   9.941   5.809
42198SOL    HW128601   5.406  -1.189   5.796
42198SOL    HW228602  -5.631   9.964   5.896
42199SOL     OW28603   7.833   4.154  10.026
42199SOL    HW128604   7.792  15.140  -1.081
42199SOL    HW228605  -3.278  26.289  10.059
42200SOL     OW28606   0.358   9.131   5.962
42200SOL    HW128607  44.603   9.172   5.966
42200SOL    HW228608  11.365   9.137 -16.027
42201SOL     OW28609   5.914   0.300   5.771
42201SOL    HW128610   5.991   0.257   5.807
42201SOL    HW228611  39.035   0.388   5.808
42202SOL     OW28612   0.768   5.644   6.439
42202SOL    HW128613   0.739   5.615   6.526
42202SOL    HW228614   0.694  -5.345   6.405
42203SOL     OW28615   1.499   5.884  10.327
42203SOL    HW128616   1.504   5.980  21.376
42203SOL    HW228617   1.522   5.851  10.414
42204SOL     OW28618   6.097   2.275  10.370
42204SOL    HW128619   6.038   2.209  10.335
42204SOL    HW228620  -4.859   2.229  21.420
42205SOL     OW28621   1.040   8.137   3.114
42205SOL    HW128622  23.070  -2.837   3.064
42205SOL    HW228623   0.975  19.113 -18.938
42206SOL     OW28624   5.181   2.002   9.804
42206SOL    HW128625  16.305   2.043   9.790
42206SOL    HW228626   5.197   1.908   9.791
42207SOL     OW28627   9.149  10.619   1.115
42207SOL    HW128628   9.161  10.714  -9.934
42207SOL    HW228629  -1.906  -0.452   1.026
42208SOL     OW28630  10.752   5.661   2.571
42208SOL    HW128631 -22.285 -27.441   2.617
42208SOL    HW228632  10.758   5.570  -8.496
42209SOL     OW28633   8.942   3.639   2.411
42209SOL    HW128634   8.905   3.678  -8.708
42209SOL    HW228635  20.069   3.610   2.385
42210SOL     OW28636   6.260   7.682   4.831
42210SOL    HW128637   6.304  -3.435  15.836
42210SOL    HW228638   6.201 -25.409   4.761
42211SOL     OW28639   3.162   4.619   6.666
42211SOL    HW128640  36.332   4.595  17.629
42211SOL    HW228641   3.155  15.754  17.701
42212SOL     OW28642  10.533   7.990  10.491
42212SOL    HW128643  10.466   7.990  10.422
42212SOL    HW228644  10.582 -14.170  10.475
42213SOL     OW28645   9.940   3.804   6.322
42213SOL    HW128646   9.961   3.825  17.270
42213SOL    HW228647  10.005   3.738   6.347
42214SOL     OW28648   1.851   4.435   1.238
42214SOL    HW128649   1.857   4.378   1.314
42214SOL    HW228650   1.758  37.567   1.224
42215SOL     OW28651   2.306   3.481   2.332
42215SOL    HW128652  13.309   3.393   2.341
42215SOL    HW228653   2.275 -40.648 -19.834
42216SOL     OW28654  10.040   2.322   9.019
42216SOL    HW128655  -0.992  -8.801   9.066
42216SOL    HW228656   9.952   2.322  31.062
42217SOL     OW28657   9.116   4.282   3.559
42217SOL    HW128658 -12.918 -17.882  -7.476
42217SOL    HW228659   9.113  -6.728   3.649
42218SOL     OW28660   9.378  10.540   8.291
42218SOL    HW128661   9.283  10.550  30.368
42218SOL    HW228662   9.409  10.580   8.209
42219SOL     OW28663   5.988  -1.134   1.127
42219SOL    HW128664   5.994   9.997  12.192
42219SOL    HW228665   6.000   9.857   1.208
42220SOL     OW28666   5.317   6.275   6.036
42220SOL    HW128667   5.359   6.256  16.992
42220SOL    HW228668   5.228  28.382   6.013
42221SOL     OW28669   7.885   5.314   1.298
42221SOL    HW128670  18.879   5.231   1.313
42221SOL    HW228671   7.951  -5.747   1.232
42222SOL     OW28672   7.779   8.807   4.220
42222SOL    HW128673   7.872   8.828  -6.817
42222SOL    HW228674   7.776   8.711   4.220
42223SOL     OW28675   6.170   0.017   9.003
42223SOL    HW128676   6.165  33.225   8.970
42223SOL    HW228677   6.243  22.098  20.104
42224SOL     OW28678   1.016   9.556   4.457
42224SOL    HW128679 -10.050   9.579  15.407
42224SOL    HW228680  11.972   9.544   4.503
42225SOL     OW28681   4.959  10.296  11.014
42225SOL    HW128682   4.998  10.213  22.081
42225SOL    HW228683   5.034  10.355  -0.037
42226SOL     OW28684   7.840   1.216   8.748
42226SOL    HW128685   7.748   1.218   8.723
42226SOL    HW228686 -25.250   1.307  19.776
42227SOL     OW28687   3.554   7.949   6.521
42227SOL    HW128688   3.647   7.968   6.509
42227SOL    HW228689  14.591   7.892   6.598
42228SOL     OW28690   5.478  -0.200   0.753
42228SOL    HW128691  -5.489  -0.240 -10.239
42228SOL    HW228692   5.484  10.933  11.813
42229SOL     OW28693   7.262   2.230   7.441
42229SOL    HW128694  18.257   2.288   7.379
42229SOL    HW228695  29.387   2.166  18.425
42230SOL     OW28696  10.560   7.212   2.785
42230SOL    HW128697  10.521  18.165  24.854
42230SOL    HW228698  10.642   7.196   2.833
42231SOL     OW28699   2.406  10.216   8.538
42231SOL    HW128700 -19.699  21.278   8.449
42231SOL    HW228701   2.494  -0.861   8.529
42232SOL     OW28702   7.655   8.153   0.568
42232SOL    HW128703   7.583   8.106   0.527
42232SOL    HW228704 -14.354   8.088  11.614
42233SOL     OW28705   2.097   1.844   6.757
42233SOL    HW128706   2.035  12.812   6.746
42233SOL    HW228707   2.177  12.840   6.788
42234SOL     OW28708   1.683   2.568   1.814
42234SOL    HW128709  12.699  13.599  12.946
42234SOL    HW228710   1.688  -8.377   1.799
42235SOL     OW28711  10.070  10.508   1.467
42235SOL    HW128712 -23.041  10.604  -9.574
42235SOL    HW228713  -0.955  10.484  -9.481
42236SOL     OW28714   1.704   9.822   1.714
42236SOL    HW128715  12.752   9.729   1.691
42236SOL    HW228716  12.793   9.868   1.646
42237SOL     OW28717   1.514   1.666   9.961
42237SOL    HW128718   1.547  12.746  10.041
42237SOL    HW228719   1.488   1.739  20.945
42238SOL     OW28720   2.027  10.881   1.309
42238SOL    HW128721  35.150  10.923   1.223
42238SOL    HW228722  13.007  10.807  -9.742
42239SOL     OW28723   5.363   6.898  10.316
42239SOL    HW128724   5.431 -15.248  10.307
42239SOL    HW228725  -5.696   6.924  10.226
42240SOL     OW28726  10.203   6.283   9.024
42240SOL    HW128727  -0.905   6.249   8.967
42240SOL    HW228728  10.259   6.207   9.043
42241SOL     OW28729  10.853   6.750   2.689
42241SOL    HW128730  10.939  -4.249   2.688
42241SOL    HW228731  10.834  17.776   2.782
42242SOL     OW28732   2.954   0.294   8.280
42242SOL    HW128733   2.987   0.207 -13.777
42242SOL    HW228734   3.032   0.343   8.254
42243SOL     OW28735   8.586   1.574  14.319
42243SOL    HW128736   8.491   1.574 -51.930
42243SOL    HW228737   8.612   1.663   3.256
42244SOL     OW28738   1.994   4.973   1.294
42244SOL    HW128739   2.029   4.888  -9.721
42244SOL    HW228740   2.057   5.008   1.231
42245SOL     OW28741   6.250   6.731   2.361
42245SOL    HW128742 -15.905  17.720  -8.648
42245SOL    HW228743   6.258  17.748  -8.771
42246SOL     OW28744   7.932   2.500   5.855
42246SOL    HW128745  -3.050   2.425   5.866
42246SOL    HW228746 -14.206   2.496   5.930
42247SOL     OW28747   4.795   1.355   4.259
42247SOL    HW128748   4.843   1.391   4.185
42247SOL    HW228749   4.835   1.394  -6.703
42248SOL     OW28750   6.159   1.627  10.664
42248SOL    HW128751   6.094  23.659  10.611
42248SOL    HW228752   6.243  12.630  10.637
42249SOL     OW28753   4.536   9.432   6.609
42249SOL    HW128754 -17.618  20.490  -4.374
42249SOL    HW228755   4.598   9.385   6.665
42250SOL     OW28756   6.147   0.909   7.193
42250SOL    HW128757   6.238   0.931   7.215
42250SOL    HW228758   6.112   0.869   7.272
42251SOL     OW28759  12.203   7.197   9.306
42251SOL    HW128760 -20.901  29.240  20.258
42251SOL    HW228761  12.123   7.249   9.297
42252SOL     OW28762   6.798   4.067  12.632
42252SOL    HW128763  17.749   4.096 -20.510
42252SOL    HW228764   6.845   4.148  12.652
42253SOL     OW28765   6.866   8.914   5.890
42253SOL    HW128766   6.955  -2.107   5.920
42253SOL    HW228767  17.899  30.897   5.892
42254SOL     OW28768   0.185   4.244   9.997
42254SOL    HW128769   0.216   4.253   9.907
42254SOL    HW228770   0.099   4.201   9.988
42255SOL     OW28771   0.234   8.652   1.096
42255SOL    HW128772   0.215   8.615   1.010
42255SOL    HW228773   0.177   8.603   1.156
42256SOL     OW28774   5.375   3.488   0.072
42256SOL    HW128775  -5.721  25.491   0.084
42256SOL    HW228776   5.337   3.534  -0.003
42257SOL     OW28777   6.995   4.775   8.505
42257SOL    HW128778   6.961   4.788 -13.663
42257SOL    HW228779  18.066  26.764 -24.612
42258SOL     OW28780   8.294   5.418   7.863
42258SOL    HW128781   8.369   5.360   7.876
42258SOL    HW228782   8.306   5.488   7.928
42259SOL     OW28783   0.525   8.814   5.014
42259SOL    HW128784   0.495   8.900   5.045
42259SOL    HW228785   0.521   8.759   5.092
42260SOL     OW28786   3.325   9.723   8.789
42260SOL    HW128787   3.411   9.686   8.769
42260SOL    HW228788   3.263 -12.417  -2.291
42261SOL     OW28789   3.081   2.398   0.519
42261SOL    HW128790   3.000   2.419 -21.607
42261SOL    HW228791   3.136   2.354  22.533
42262SOL     OW28792  10.267   8.841   1.277
42262SOL    HW128793  21.394   8.800  -9.769
42262SOL    HW228794  10.230  19.845   1.358
42263SOL     OW28795   4.161   1.490   6.924
42263SOL    HW128796   4.113   1.550   6.867
42263SOL    HW228797  15.217   1.542   7.004
42264SOL     OW28798   6.220   4.071   3.291
42264SOL    HW128799   6.210   3.976  14.325
42264SOL    HW228800  -4.879   4.106   3.224
42265SOL     OW28801   0.704   2.740  -0.223
42265SOL    HW128802   0.794   2.774  10.812
42265SOL    HW228803   0.712   2.655  -0.180
42266SOL     OW28804   2.947   1.765   4.963
42266SOL    HW128805   2.942  23.837   5.058
42266SOL    HW228806  13.966   1.857   4.945
42267SOL     OW28807   8.231   6.600   4.312
42267SOL    HW128808   8.189   6.628   4.231
42267SOL    HW228809 -13.920   6.566   4.366
42268SOL     OW28810   6.932   8.255   6.517
42268SOL    HW128811  17.998  19.232   6.450
42268SOL    HW228812   6.990   8.330   6.504
42269SOL     OW28813   3.418   1.690   8.151
42269SOL    HW128814   3.350   1.623  41.275
42269SOL    HW228815   3.426   1.722   8.241
42270SOL     OW28816   7.511   4.004   7.768
42270SOL    HW128817   7.546   4.016  -3.359
42270SOL    HW228818   7.419   4.032 -14.318
42271SOL     OW28819   2.042   5.858   1.430
42271SOL    HW128820   2.028   5.880   1.338
42271SOL    HW228821   1.966   5.804   1.453
42272SOL     OW28822   6.204  -0.585   4.544
42272SOL    HW128823  17.257  10.548   4.557
42272SOL    HW228824   6.108  -0.595  26.618
42273SOL     OW28825  10.017   5.302   5.515
42273SOL    HW128826  10.008   5.284   5.422
42273SOL    HW228827   9.949   5.366  16.574
42274SOL     OW28828   5.145   7.680   7.432
42274SOL    HW128829   5.063   7.704   7.388
42274SOL    HW228830   5.118  -3.381  -3.518
42275SOL     OW28831   3.617   3.284  12.893
42275SOL    HW128832  25.625   3.347  -9.178
42275SOL    HW228833  36.695   3.207 -20.265
42276SOL     OW28834   1.385   3.844   3.905
42276SOL    HW128835   1.419   3.756   3.889
42276SOL    HW228836  12.346  -7.190   3.851
42277SOL     OW28837   2.593   7.260  10.024
42277SOL    HW128838   2.661   7.196  10.005
42277SOL    HW228839   2.511   7.214  -1.034
42278SOL     OW28840   7.828   1.277   2.559
42278SOL    HW128841  29.832   1.335  13.607
42278SOL    HW228842   7.803  -9.824  13.530
42279SOL     OW28843   5.447   1.281   4.290
42279SOL    HW128844   5.540  12.332   4.309
42279SOL    HW228845  -5.599   1.191   4.256
42280SOL     OW28846   3.410   8.559   5.604
42280SOL    HW128847   3.480  30.651   5.540
42280SOL    HW228848   3.442   8.602 -16.396
42281SOL     OW28849   6.089   7.238   3.151
42281SOL    HW128850  -4.943 -14.920   3.098
42281SOL    HW228851  17.170 -14.772  14.138
42282SOL     OW28852   0.868   1.529   7.363
42282SOL    HW128853 -10.185  12.578  -3.582
42282SOL    HW228854   0.877   1.434   7.350
42283SOL     OW28855   9.928   3.932   8.610
42283SOL    HW128856   9.931  -7.131   8.517
42283SOL    HW228857   9.928   3.848   8.656
42284SOL     OW28858   8.184   2.039  11.232
42284SOL    HW128859   8.104   2.090   0.207
42284SOL    HW228860   8.157  12.988  11.244
42285SOL     OW28861   8.642   2.327   4.425
42285SOL    HW128862  19.597   2.310   4.467
42285SOL    HW228863 -13.400   2.241   4.408
42286SOL     OW28864   0.215   3.601   2.476
42286SOL    HW128865   0.170   3.589   2.560
42286SOL    HW228866   0.307   3.584  -8.544
42287SOL     OW28867   7.586   5.772   7.728
42287SOL    HW128868   7.610  16.785 -14.440
42287SOL    HW228869   7.670   5.789   7.771
42288SOL     OW28870   4.335   5.776   9.677
42288SOL    HW128871   4.417   5.785  -1.313
42288SOL    HW228872   4.323  -5.178  31.714
42289SOL     OW28873   1.731   6.745   7.859
42289SOL    HW128874  12.741 -15.391   7.788
42289SOL    HW228875  -9.249   6.690   7.910
42290SOL     OW28876   1.479   7.376   0.700
42290SOL    HW128877   1.391   7.408   0.719
42290SOL    HW228878   1.465   7.296 -10.390
42291SOL     OW28879   5.827   5.147   1.674
42291SOL    HW128880   5.834  16.217   1.765
42291SOL    HW228881   5.903   5.090  -9.377
42292SOL     OW28882   9.961   8.682   4.037
42292SOL    HW128883 -12.177   8.719   3.972
42292SOL    HW228884  -0.994   8.677   3.993
42293SOL     OW28885   5.054   3.605  10.972
42293SOL    HW128886   5.120  -7.501  10.951
42293SOL    HW228887   5.004   3.567 -11.035
42294SOL     OW28888   1.023   6.794  -1.063
42294SOL    HW128889 -10.005   6.874  21.068
42294SOL    HW228890   1.082 -15.349  -1.022
42295SOL     OW28891   9.960  10.315  10.193
42295SOL    HW128892   9.905  10.390  10.169
42295SOL    HW228893  10.035  10.355  10.238
42296SOL     OW28894   5.553   3.476   7.562
42296SOL    HW128895   5.529   3.446  -3.566
42296SOL    HW228896   5.505   3.417  18.660
42297SOL     OW28897   2.991   7.843   3.437
42297SOL    HW128898   2.969 -25.186   3.460
42297SOL    HW228899   2.911   7.793   3.457
42298SOL     OW28900   2.798   8.568   2.719
42298SOL    HW128901   2.887 -13.482  -8.300
42298SOL    HW228902   2.742   8.639  -8.288
42299SOL     OW28903   4.795   8.207   8.615
42299SOL    HW128904   4.756   8.293  19.672
42299SOL    HW228905   4.860   8.196   8.684
42300SOL     OW28906   9.274   7.321   0.130
42300SOL    HW128907   9.190   7.326  44.335
42300SOL    HW228908   9.283  18.446  11.128
42301SOL     OW28909   7.905  -1.012   0.467
42301SOL    HW128910  -3.150  -1.080   0.401
42301SOL    HW228911 -14.079  21.078   0.469
42302SOL     OW28912   4.308  10.819   1.525
42302SOL    HW128913  26.306  10.856  23.571
42302SOL    HW228914   4.281  10.752  23.667
42303SOL     OW28915   0.958   2.504   2.070
42303SOL    HW128916   0.923   2.535   1.986
42303SOL    HW228917  12.079   2.554   2.081
42304SOL     OW28918   1.287   8.325   6.984
42304SOL    HW128919 -31.796   8.295   6.900
42304SOL    HW228920  23.285   8.370   6.959
42305SOL     OW28921   3.676   0.329   3.657
42305SOL    HW128922   3.642  11.292   3.703
42305SOL    HW228923   3.756 -10.742  25.693
42306SOL     OW28924   4.218   8.260  -0.183
42306SOL    HW128925  -6.834  -2.869  -0.216
42306SOL    HW228926   4.198   8.316  10.781
42307SOL     OW28927   5.760   1.796   0.544
42307SOL    HW128928  16.894   1.793  22.611
42307SOL    HW228929  -5.312   1.719   0.496
42308SOL     OW28930   6.662   4.039   8.356
42308SOL    HW128931  17.690   4.001  -2.596
42308SOL    HW228932   6.739   3.994   8.322
42309SOL     OW28933   6.756  -0.115   4.934
42309SOL    HW128934   6.828  -0.053   4.922
42309SOL    HW228935   6.680  10.968  15.933
42310SOL     OW28936   6.278   8.887  10.882
42310SOL    HW128937   6.323 -13.237  10.953
42310SOL    HW228938   6.205  -2.108  10.923
42311SOL     OW28939   1.838   1.242   4.537
42311SOL    HW128940   1.930   1.260  15.555
42311SOL    HW228941   1.789   1.283  15.505
42312SOL     OW28942   2.306   3.988   4.009
42312SOL    HW128943  24.404  14.960  -7.095
42312SOL    HW228944  46.382  -7.079   4.050
42313SOL     OW28945   1.988   0.264  -0.405
42313SOL    HW128946  13.032   0.238  10.543
42313SOL    HW228947 -31.094  22.431  -0.402
42314SOL     OW28948   2.916   2.701   2.826
42314SOL    HW128949   2.843   2.666   2.877
42314SOL    HW228950   2.956  13.806   2.883
42315SOL     OW28951   2.000   8.972   2.280
42315SOL    HW128952   2.025   8.884   2.309
42315SOL    HW228953  12.978 -13.123   2.208
42316SOL     OW28954   7.591   4.000   2.003
42316SOL    HW128955   7.645   4.021   2.079
42316SOL    HW228956   7.516   4.059   2.009
42317SOL     OW28957   5.045   7.088   9.715
42317SOL    HW128958   4.966   7.041   9.690
42317SOL    HW228959   5.013 -36.990  20.797
42318SOL     OW28960   5.865  11.306   8.059
42318SOL    HW128961   5.847   0.195   8.121
42318SOL    HW228962   5.779  11.345 -14.036
42319SOL     OW28963   1.564   9.677   0.529
42319SOL    HW128964   1.572 -12.412   0.624
42319SOL    HW228965   1.655   9.686   0.498
42320SOL     OW28966   8.331   6.037   3.516
42320SOL    HW128967   8.294   6.015   3.602
42320SOL    HW228968   8.329 -16.124   3.467
42321SOL     OW28969   9.055   8.646   9.664
42321SOL    HW128970   9.116  -2.343 -12.361
42321SOL    HW228971   8.974   8.697   9.666
42322SOL     OW28972   0.820   7.120   2.548
42322SOL    HW128973   0.910   7.108  -8.461
42322SOL    HW228974   0.790   7.032   2.526
42323SOL     OW28975   1.055   0.856   0.138
42323SOL    HW128976  -9.990   0.771   0.093
42323SOL    HW228977   1.120   0.905   0.087
42324SOL     OW28978   4.903   3.778   2.868
42324SOL    HW128979   4.953  -7.213  -8.106
42324SOL    HW228980   4.844   3.723   2.920
42325SOL     OW28981   3.499  10.626   6.855
42325SOL    HW128982   3.541  10.564  -4.126
42325SOL    HW228983   3.570  10.666   6.806
42326SOL     OW28984   1.148   3.667   5.370
42326SOL    HW128985   1.196   3.592   5.335
42326SOL    HW228986  12.176 -18.354  -5.745
42327SOL     OW28987   8.653  -0.234  11.540
42327SOL    HW128988   8.626  -0.234   0.593
42327SOL    HW228989  41.704  10.757  11.495
42328SOL     OW28990   4.139   9.131   4.462
42328SOL    HW128991   4.210 -13.011   4.458
42328SOL    HW228992   4.166  -1.846  26.608
42329SOL     OW28993   0.242   6.683   3.582
42329SOL    HW128994   0.201   6.613   3.632
42329SOL    HW228995   0.196   6.763   3.609
42330SOL     OW28996   6.275   0.193  -0.289
42330SOL    HW128997   6.244   0.227  -0.205
42330SOL    HW228998   6.363   0.229  10.742
42331SOL     OW28999   8.872   5.888   6.414
42331SOL    HW129000 -13.184   5.886   6.507
42331SOL    HW229001   8.869   5.981   6.392
42332SOL     OW29002   6.016   8.454   1.835
42332SOL    HW129003 -16.133  19.455   1.782
42332SOL    HW229004   5.972 -13.587   1.910
42333SOL     OW29005   0.753   4.201   7.946
42333SOL    HW129006   0.702 -17.923   7.879
42333SOL    HW229007   0.839   4.214   7.906
42334SOL     OW29008   9.174   5.112   3.332
42334SOL    HW129009   9.208  -5.894   3.415
42334SOL    HW229010  -1.869  -6.022   3.344
42335SOL     OW29011   1.133   1.419   5.919
42335SOL    HW129012  -9.953   1.381  50.003
42335SOL    HW229013   1.094   1.506  39.048
42336SOL     OW29014   3.320   9.165  10.848
42336SOL    HW129015  -7.630   9.183  10.877
42336SOL    HW229016   3.295 -12.839  10.796
42337SOL     OW29017   9.965   6.668   8.994
42337SOL    HW129018   9.930   6.744   9.041
42337SOL    HW229019   9.974   6.600   9.061
42338SOL     OW29020   3.954   4.300   2.759
42338SOL    HW129021   4.042   4.332   2.738
42338SOL    HW229022   3.897   4.374   2.742
42339SOL     OW29023   6.242  10.936   7.094
42339SOL    HW129024   6.329  10.897   7.083
42339SOL    HW229025   6.254  11.029  18.114
42340SOL     OW29026   8.620   0.055   7.560
42340SOL    HW129027   8.562   0.050   7.483
42340SOL    HW229028   8.570  22.185  18.664
42341SOL     OW29029   9.108   7.535   7.735
42341SOL    HW129030  -1.909   7.443   7.719
42341SOL    HW229031   9.126   7.578  -3.388
42342SOL     OW29032   8.032   9.737   8.049
42342SOL    HW129033   8.004   9.718   8.139
42342SOL    HW229034   8.111   9.685   8.037
42343SOL     OW29035   8.295  10.080   5.755
42343SOL    HW129036   8.342  10.162 -16.311
42343SOL    HW229037   8.238  10.072   5.832
42344SOL     OW29038   0.048   7.601   6.163
42344SOL    HW129039  22.162   7.689  39.268
42344SOL    HW229040  -0.035  -3.440   6.116
42345SOL     OW29041   5.059   8.688   8.516
42345SOL    HW129042   5.109   8.611   8.540
42345SOL    HW229043  -6.015   8.722   8.598
42346SOL     OW29044   1.731  11.123   7.509
42346SOL    HW129045   1.678  11.044   7.502
42346SOL    HW229046   1.683   0.149   7.459
42347SOL     OW29047   8.870   5.042   3.043
42347SOL    HW129048   8.927   5.112   3.075
42347SOL    HW229049   8.786   5.058   3.087
42348SOL     OW29050  -1.636   4.942   0.927
42348SOL    HW129051  31.482  15.896   0.885
42348SOL    HW229052  -1.722   4.950   0.968
42349SOL     OW29053   3.184   6.792   6.418
42349SOL    HW129054   3.099   6.824   6.386
42349SOL    HW229055   3.238   6.871  17.465
42350SOL     OW29056   4.881   1.175  10.351
42350SOL    HW129057   4.839   1.125  10.282
42350SOL    HW229058   4.930   1.244  10.305
42351SOL     OW29059   2.865   0.992  -0.241
42351SOL    HW129060   2.937  34.174  21.835
42351SOL    HW229061   2.792   1.040  -0.203
42352SOL     OW29062   7.725   6.072   1.961
42352SOL    HW129063   7.749  17.105   2.054
42352SOL    HW229064   7.808   6.080   1.915
42353SOL     OW29065   7.052   1.089   3.105
42353SOL    HW129066   7.000  34.175   3.033
42353SOL    HW229067   7.121   1.024   3.117
42354SOL     OW29068   4.565   0.518   3.293
42354SOL    HW129069   4.538   0.454   3.227
42354SOL    HW229070  15.648   0.466   3.361
42355SOL     OW29071   7.820  10.360   7.715
42355SOL    HW129072   7.889  10.297   7.736
42355SOL    HW229073  -3.291  10.307  18.719
42356SOL     OW29074   0.939   4.152   1.813
42356SOL    HW129075   0.890   4.119   1.889
42356SOL    HW229076   1.017   4.097   1.810
42357SOL     OW29077   8.887   8.164   4.792
42357SOL    HW129078   8.849   8.140   4.707
42357SOL    HW229079  19.999   8.221  -6.269
42358SOL     OW29080   7.001   6.166  11.262
42358SOL    HW129081  18.057   6.086  11.212
42358SOL    HW229082   6.962  17.265   0.158
42359SOL     OW29083  10.009   1.583   3.711
42359SOL    HW129084  10.007   1.569   3.805
42359SOL    HW229085  -1.038   1.495  -7.366
42360SOL     OW29086   4.689   3.746   3.446
42360SOL    HW129087  26.811  14.811  14.404
42360SOL    HW229088   4.739  -7.370   3.477
42361SOL     OW29089   9.702   6.632   5.782
42361SOL    HW129090 -34.484 -15.511   5.716
42361SOL    HW229091 -45.490   6.715   5.734
42362SOL     OW29092   0.744   0.964  -0.614
42362SOL    HW129093   0.795   1.027  -0.563
42362SOL    HW229094   0.739  11.926  10.481
42363SOL     OW29095   7.165   9.826   8.798
42363SOL    HW129096   7.113   9.762   8.749
42363SOL    HW229097   7.243   9.839 -24.375
42364SOL     OW29098  10.018   5.599   8.167
42364SOL    HW129099  10.090   5.598   8.103
42364SOL    HW229100   9.981 -27.608   8.162
42365SOL     OW29101   1.625   9.015  10.700
42365SOL    HW129102   1.600  20.029 -11.468
42365SOL    HW229103   1.691   9.083  10.688
42366SOL     OW29104   9.129   9.841  10.974
42366SOL    HW129105   9.048   9.829  11.023
42366SOL    HW229106   9.112   9.799  10.889
42367SOL     OW29107   2.784   8.778  11.037
42367SOL    HW129108 -30.243  -2.237  11.030
42367SOL    HW229109   2.737  -2.178   0.005
42368SOL     OW29110   8.362   9.389   4.011
42368SOL    HW129111  -2.585  -1.669   4.003
42368SOL    HW229112   8.341 -12.636   3.936
42369SOL     OW29113   1.126   8.502   7.800
42369SOL    HW129114   1.118  -2.510   7.891
42369SOL    HW229115   1.073   8.565   7.751
42370SOL     OW29116   4.230   0.863   0.466
42370SOL    HW129117   4.178   0.934   0.429
42370SOL    HW229118   4.168   0.811   0.517
42371SOL     OW29119   4.037   8.555   6.462
42371SOL    HW129120  26.036  -2.514   6.418
42371SOL    HW229121   4.107   8.531   6.402
42372SOL     OW29122   7.911   3.658   3.971
42372SOL    HW129123   7.964  14.660   4.041
42372SOL    HW229124   7.896   3.585   3.911
42373SOL     OW29125   0.187  11.107   8.267
42373SOL    HW129126   0.236  11.099   8.184
42373SOL    HW229127   0.098 -10.998  19.284
42374SOL     OW29128   1.770   9.627   1.048
42374SOL    HW129129   1.856   9.669   1.049
42374SOL    HW229130   1.709   9.697   1.069
42375SOL     OW29131  12.662   5.711   4.569
42375SOL    HW129132  12.682   5.618   4.564
42375SOL    HW229133 -20.406   5.750   4.498
42376SOL     OW29134   5.114   1.560   5.652
42376SOL    HW129135   5.142 -20.607  16.666
42376SOL    HW229136   5.090   1.602   5.569
42377SOL     OW29137   0.005   4.360   7.709
42377SOL    HW129138  22.090  15.492   7.685
42377SOL    HW229139  -0.049  15.360   7.641
42378SOL     OW29140   7.827   4.727   6.074
42378SOL    HW129141   7.825  15.701   6.005
42378SOL    HW229142  -3.175  15.844   6.032
42379SOL     OW29143   1.753   3.623   7.154
42379SOL    HW129144   1.660 -40.552   7.136
42379SOL    HW229145   1.797   3.608 -15.009
42380SOL     OW29146   7.707   1.113   5.063
42380SOL    HW129147   7.710  12.081   5.127
42380SOL    HW229148  -3.254   1.164 -16.999
42381SOL     OW29149   2.774   6.617   7.707
42381SOL    HW129150   2.804   6.568   7.631
42381SOL    HW229151   2.687  17.622   7.725
42382SOL     OW29152   3.931   4.859   8.380
42382SOL    HW129153   3.984   4.929   8.344
42382SOL    HW229154   3.905   4.807   8.303
42383SOL     OW29155   5.008   8.226   4.960
42383SOL    HW129156   5.102  19.250   4.971
42383SOL    HW229157   4.988   8.298   5.019
42384SOL     OW29158   4.547   6.618   7.922
42384SOL    HW129159  15.511  17.600   7.933
42384SOL    HW229160  -6.441   6.577   7.852
42385SOL     OW29161   4.682   5.682   2.236
42385SOL    HW129162  15.713   5.758   2.179
42385SOL    HW229163   4.655   5.714   2.323
42386SOL     OW29164   5.978  10.197   4.914
42386SOL    HW129165   5.919  10.121 -17.160
42386SOL    HW229166   5.926  10.264   4.869
42387SOL     OW29167   3.987   1.551   2.644
42387SOL    HW129168  -6.994   1.610   2.597
42387SOL    HW229169   3.911   1.541   2.587
42388SOL     OW29170   8.618   9.815  10.916
42388SOL    HW129171 -13.382   9.853  10.879
42388SOL    HW229172 -35.514  -1.253  11.004
42389SOL     OW29173   8.208   9.579  11.373
42389SOL    HW129174   8.141   9.626 -43.776
42389SOL    HW229175   8.274   9.646 -10.726
42390SOL     OW29176  10.012   7.516   2.612
42390SOL    HW129177   9.973  18.561   2.699
42390SOL    HW229178  20.985   7.473  13.597
42391SOL     OW29179  -0.507   8.214   5.728
42391SOL    HW129180  -0.491   8.195  16.860
42391SOL    HW229181  10.509  52.465   5.726
42392SOL     OW29182   5.347   1.564   1.031
42392SOL    HW129183  16.348   1.573  11.984
42392SOL    HW229184  27.383   1.487   1.068
42393SOL     OW29185   1.382  -0.703   4.330
42393SOL    HW129186   1.425  -0.784 -28.816
42393SOL    HW229187  12.485  21.445  -6.730
42394SOL     OW29188   5.239  12.771   9.635
42394SOL    HW129189 -27.923  12.772   9.720
42394SOL    HW229190  -5.871 -20.361   9.571
42395SOL     OW29191   1.602   7.202   7.989
42395SOL    HW129192  23.700   7.111   8.010
42395SOL    HW229193  -9.533  29.285   7.982
42396SOL     OW29194   3.159  10.474  10.308
42396SOL    HW129195   3.203  10.391  10.290
42396SOL    HW229196   3.211  10.540  10.261
42397SOL     OW29197   6.473   1.825   0.451
42397SOL    HW129198  -4.573   1.801   0.359
42397SOL    HW229199   6.567  23.915   0.467
42398SOL     OW29200   4.404   9.926   3.242
42398SOL    HW129201   4.425   9.987   3.313
42398SOL    HW229202   4.487   9.914 -29.923
42399SOL     OW29203   2.261   3.876   2.036
42399SOL    HW129204   2.250   3.834   2.122
42399SOL    HW229205   2.317   3.952   2.054
42400SOL     OW29206   4.010   8.139   2.042
42400SOL    HW129207   4.059   8.146  -8.916
42400SOL    HW229208   4.060  -2.849  13.018
42401SOL     OW29209  -1.126   8.332   6.190
42401SOL    HW129210  -1.092   8.242  28.272
42401SOL    HW229211  31.916   8.326   6.133
42402SOL     OW29212   7.900   2.584   1.148
42402SOL    HW129213   7.904   2.539   1.064
42402SOL    HW229214 -14.211   2.672   1.127
42403SOL     OW29215   3.713   7.493   9.869
42403SOL    HW129216   3.662   7.423   9.830
42403SOL    HW229217   3.648   7.549   9.912
42404SOL     OW29218   5.764   3.110   7.260
42404SOL    HW129219 -16.247   3.091  -3.844
42404SOL    HW229220   5.812   3.145 -14.743
42405SOL     OW29221  10.223   4.953   2.349
42405SOL    HW129222  10.310  15.952   2.341
42405SOL    HW229223  10.218  27.092   2.274
42406SOL     OW29224   4.802   2.310   8.177
42406SOL    HW129225   4.791   2.305  41.391
42406SOL    HW229226   4.725 -19.723   8.146
42407SOL     OW29227   3.518   8.657   2.074
42407SOL    HW129228   3.457 -24.414   2.131
42407SOL    HW229229   3.550  19.762  24.092
42408SOL     OW29230   7.604  10.206   5.668
42408SOL    HW129231   7.614 -11.810   5.597
42408SOL    HW229232   7.611  10.120  16.665
42409SOL     OW29233   0.817   5.873   3.075
42409SOL    HW129234   0.747   5.877   3.140
42409SOL    HW229235   0.809   5.953   3.025
42410SOL     OW29236   5.405   7.027   1.851
42410SOL    HW129237   5.331   7.033   1.912
42410SOL    HW229238   5.465   7.096  12.919
42411SOL     OW29239  10.510   1.172   3.143
42411SOL    HW129240  10.525   1.264   3.122
42411SOL    HW229241  -0.562   1.172   3.233
42412SOL     OW29242   9.203   6.286   7.039
42412SOL    HW129243   9.261  17.292   6.971
42412SOL    HW229244   9.116   6.254   7.014
42413SOL     OW29245   5.369   3.280   9.588
42413SOL    HW129246   5.381  -7.829   9.653
42413SOL    HW229247   5.367  -7.806   9.504
42414SOL     OW29248  -0.773   6.525   9.126
42414SOL    HW129249  -0.784  28.517  20.126
42414SOL    HW229250  21.221  17.586  31.241
42415SOL     OW29251   6.872   9.677  -0.452
42415SOL    HW129252   6.789 -12.413  21.674
42415SOL    HW229253  17.977  -1.403  -0.395
42416SOL     OW29254   0.663  10.202   5.656
42416SOL    HW129255   0.666  -0.821   5.562
42416SOL    HW229256   0.740  10.248   5.690
42417SOL     OW29257   0.357  10.943   1.784
42417SOL    HW129258  11.310  10.906   1.762
42417SOL    HW229259  22.421  11.037   1.788
42418SOL     OW29260   1.238   1.185   1.662
42418SOL    HW129261  -9.718  12.243  -9.335
42418SOL    HW229262   1.222   1.092   1.678
42419SOL     OW29263   8.099   9.043   7.332
42419SOL    HW129264   8.177  20.086   7.389
42419SOL    HW229265   8.132   9.011  29.328
42420SOL     OW29266   2.971   8.976   3.820
42420SOL    HW129267   2.908   9.047   3.816
42420SOL    HW229268  -8.119   8.899  -7.192
42421SOL     OW29269  10.886   3.879   9.127
42421SOL    HW129270  21.854 -29.262  20.227
42421SOL    HW229271 -22.178   3.801   9.125
42422SOL     OW29272   5.734   9.178   8.766
42422SOL    HW129273   5.734 -12.989   8.728
42422SOL    HW229274   5.644   9.194  30.871
42423SOL     OW29275   8.433   0.898   7.555
42423SOL    HW129276   8.519   0.940  29.634
42423SOL    HW229277 -13.627  11.844  18.599
42424SOL     OW29278   2.261   5.632   4.405
42424SOL    HW129279   2.285   5.702   4.465
42424SOL    HW229280   2.342   5.613   4.357
42425SOL     OW29281   8.181   3.063   1.081
42425SOL    HW129282  30.314  14.035   1.122
42425SOL    HW229283 -13.835  14.162  -9.999
42426SOL     OW29284   9.267   8.146   8.647
42426SOL    HW129285   9.356  30.261   8.644
42426SOL    HW229286 -12.867   8.222   8.663
42427SOL     OW29287   2.722   8.541   6.049
42427SOL    HW129288  35.813   8.479   6.115
42427SOL    HW229289  46.936   8.491   5.990
42428SOL     OW29290   5.316   1.220   7.661
42428SOL    HW129291   5.293   1.289 -14.480
42428SOL    HW229292  -5.653   1.257   7.714
42429SOL     OW29293   5.051   1.759   4.650
42429SOL    HW129294   5.073   1.666 -28.464
42429SOL    HW229295   4.959  -9.280   4.623
42430SOL     OW29296   1.319  10.716   6.878
42430SOL    HW129297   1.275  10.802 -15.201
42430SOL    HW229298  12.451  10.737 -15.205
42431SOL     OW29299   7.062   6.572   8.965
42431SOL    HW129300   7.129   6.616   9.018
42431SOL    HW229301   6.979   6.599   9.004
42432SOL     OW29302   1.746   5.037   1.388
42432SOL    HW129303   1.835   5.014   1.364
42432SOL    HW229304  -9.285   5.095   1.464
42433SOL     OW29305   3.003   8.459  -0.600
42433SOL    HW129306  14.057   8.365  21.490
42433SOL    HW229307   2.926   8.478  -0.547
42434SOL     OW29308   0.881   2.703   3.178
42434SOL    HW129309   0.815   2.741   3.121
42434SOL    HW229310   0.927   2.778  25.295
42435SOL     OW29311  12.709   6.739   5.127
42435SOL    HW129312 -20.328   6.695   5.103
42435SOL    HW229313  12.726   6.832   5.109
42436SOL     OW29314   5.814   7.379   3.533
42436SOL    HW129315   5.886   7.317   3.523
42436SOL    HW229316 -16.313   7.347  -7.430
42437SOL     OW29317   0.498   1.287   9.379
42437SOL    HW129318  11.617  -9.700   9.387
42437SOL    HW229319   0.482  23.332  20.506
42438SOL     OW29320  11.323   8.925   5.138
42438SOL    HW129321   0.254   8.863   5.205
42438SOL    HW229322  11.348  31.082   5.187
42439SOL     OW29323   1.257  10.234   9.281
42439SOL    HW129324   1.261 -11.874   9.190
42439SOL    HW229325   1.313  10.311   9.285
42440SOL     OW29326  10.266   2.361   7.691
42440SOL    HW129327  10.305   2.287   7.738
42440SOL    HW229328  10.336   2.393   7.634
42441SOL     OW29329   4.755   9.081   3.250
42441SOL    HW129330   4.733  42.108   3.266
42441SOL    HW229331   4.787   9.083   3.160
42442SOL     OW29332   6.852  11.372   4.343
42442SOL    HW129333   6.865 -10.798  26.394
42442SOL    HW229334   6.757  11.385   4.340
42443SOL     OW29335   9.782  10.397   5.158
42443SOL    HW129336   9.835  10.426   5.232
42443SOL    HW229337   9.751  21.517  -5.922
42444SOL     OW29338  -0.101   9.082  10.222
42444SOL    HW129339  21.955   9.156  10.167
42444SOL    HW229340  -0.120  20.152  10.311
42445SOL     OW29341   8.339   0.613   5.263
42445SOL    HW129342   8.259   0.589   5.309
42445SOL    HW229343   8.321  11.740   5.227
42446SOL     OW29344  10.414   1.226  10.482
42446SOL    HW129345  -0.588   1.205  10.397
42446SOL    HW229346  10.322   1.246  10.464
42447SOL     OW29347   5.228   4.242  12.146
42447SOL    HW129348   5.320  26.329  -9.907
42447SOL    HW229349   5.185   4.200   1.181
42448SOL     OW29350   2.396   5.879   2.447
42448SOL    HW129351  -8.671  16.827 -19.622
42448SOL    HW229352   2.422  16.925   2.355
42449SOL     OW29353   9.802   2.700   9.121
42449SOL    HW129354   9.814   2.778  20.214
42449SOL    HW229355   9.891   2.674   9.096
42450SOL     OW29356   2.767   6.934   5.840
42450SOL    HW129357   2.684   6.964   5.877
42450SOL    HW229358   2.753  29.015   5.745
42451SOL     OW29359   3.580   9.918   8.655
42451SOL    HW129360   3.588   9.959  -2.299
42451SOL    HW229361 -18.538  21.025   8.599
42452SOL     OW29362   3.246  10.198   3.135
42452SOL    HW129363   3.206  10.284   3.146
42452SOL    HW229364  -7.753  10.201   3.049
42453SOL     OW29365  10.312   0.482   8.335
42453SOL    HW129366  10.343   0.392   8.348
42453SOL    HW229367  10.287  11.551   8.423
42454SOL     OW29368   6.831   3.792   8.655
42454SOL    HW129369   6.753   3.786   8.711
42454SOL    HW229370  17.897   3.884   8.660
42455SOL     OW29371   6.432   5.794   9.389
42455SOL    HW129372  28.456   5.831  20.497
42455SOL    HW229373   6.410   5.701   9.388
42456SOL     OW29374   9.901   1.280   4.899
42456SOL    HW129375   9.971   1.214   4.905
42456SOL    HW229376   9.871   1.291  16.029
42457SOL     OW29377   0.506   4.263   5.373
42457SOL    HW129378  22.525  -6.741   5.308
42457SOL    HW229379   0.584  -6.721   5.367
42458SOL     OW29380   4.417  -0.330   8.837
42458SOL    HW129381  37.631  -0.342   8.840
42458SOL    HW229382  26.482  10.759   8.756
42459SOL     OW29383   6.813   9.746  11.893
42459SOL    HW129384  17.831   9.668  11.944
42459SOL    HW229385  -4.165   9.794 -10.131
42460SOL     OW29386   9.336   9.343  10.985
42460SOL    HW129387   9.295   9.263  11.019
42460SOL    HW229388  31.468 -23.744  11.058
42461SOL     OW29389   6.616   2.577   0.843
42461SOL    HW129390   6.522   2.563   0.832
42461SOL    HW229391   6.651   2.572   0.754
42462SOL     OW29392   2.427   6.706   8.228
42462SOL    HW129393  13.458   6.773 -24.959
42462SOL    HW229394   2.337 -15.399  -2.791
42463SOL     OW29395   4.407   9.740   7.032
42463SOL    HW129396   4.374   9.770   6.947
42463SOL    HW229397   4.493  20.742 -37.146
42464SOL     OW29398   7.852   2.657   2.710
42464SOL    HW129399  29.934   2.582   2.650
42464SOL    HW229400  29.857  13.678   2.768
42465SOL     OW29401   4.542   1.313   8.650
42465SOL    HW129402   4.448   1.309  -2.374
42465SOL    HW229403   4.553   1.384 -24.532
42466SOL     OW29404   9.789   8.169   4.388
42466SOL    HW129405   9.744   8.108 -28.671
42466SOL    HW229406 -12.222   8.116   4.347
42467SOL     OW29407   6.840   5.710   3.037
42467SOL    HW129408  17.788   5.719  14.104
42467SOL    HW229409  -4.156  16.827  25.153
42468SOL     OW29410   2.544  11.419   3.382
42468SOL    HW129411   2.600 -10.734   3.406
42468SOL    HW229412   2.498   0.401  -7.576
42469SOL     OW29413   5.394   9.573   9.510
42469SOL    HW129414   5.349   9.621   9.440
42469SOL    HW229415   5.347   9.490  -1.523
42470SOL     OW29416   3.090  10.077   1.665
42470SOL    HW129417   3.079  21.068  -9.293
42470SOL    HW229418  14.162  10.011  -9.437
42471SOL     OW29419   4.942   0.797   1.905
42471SOL    HW129420  15.962   0.759   1.819
42471SOL    HW229421  16.073   0.776   1.920
42472SOL     OW29422   9.324   1.183   0.306
42472SOL    HW129423  31.422   1.261   0.359
42472SOL    HW229424   9.409  23.235   0.271
42473SOL     OW29425   9.214  10.198   8.040
42473SOL    HW129426   9.199  10.182   8.134
42473SOL    HW229427   9.238  10.291 -14.043
42474SOL     OW29428   1.534  10.941   7.498
42474SOL    HW129429  12.527  10.860   7.519
42474SOL    HW229430   1.467  10.997   7.458
42475SOL     OW29431  10.287  12.793  10.031
42475SOL    HW129432  10.198  -9.315  -1.029
42475SOL    HW229433  10.292  -9.291  32.206
42476SOL     OW29434  -1.454   8.242   1.958
42476SOL    HW129435  20.596   8.157   1.927
42476SOL    HW229436   9.678  19.286  -9.106
42477SOL     OW29437   8.007  11.326   2.402
42477SOL    HW129438   8.043  11.265  -8.573
42477SOL    HW229439   7.916   0.298   2.429
42478SOL     OW29440  11.390   1.130   7.769
42478SOL    HW129441 -10.714   1.083  -3.191
42478SOL    HW229442  11.318   1.113 -14.372
42479SOL     OW29443   9.711   2.464  -1.123
42479SOL    HW129444  -1.284  24.552  32.080
42479SOL    HW229445  20.807   2.511   9.855
42480SOL     OW29446   8.826   9.912   6.721
42480SOL    HW129447   8.768   9.849   6.764
42480SOL    HW229448   8.768   9.969   6.671
42481SOL     OW29449   0.534   2.480   1.461
42481SOL    HW129450   0.522   2.475   1.366
42481SOL    HW229451   0.591   2.555   1.474
42482SOL     OW29452   1.134   7.093   0.269
42482SOL    HW129453   1.199   7.023  33.385
42482SOL    HW229454   1.174   7.164   0.218
42483SOL     OW29455   7.661   4.589   9.552
42483SOL    HW129456   7.582 -17.498  20.645
42483SOL    HW229457  18.686  15.567   9.480
42484SOL     OW29458   7.661  10.044   4.511
42484SOL    HW129459  -3.322  -1.058  37.584
42484SOL    HW229460   7.588  10.060   4.450
42485SOL     OW29461   5.955   3.776  10.419
42485SOL    HW129462   6.025   3.796  10.356
42485SOL    HW229463   5.922   3.691 -11.688
42486SOL     OW29464  -0.089   0.601   4.839
42486SOL    HW129465  -0.126   0.612  15.966
42486SOL    HW229466  10.899   0.659   4.783
42487SOL     OW29467   6.522   7.732   5.084
42487SOL    HW129468   6.480   7.810  16.088
42487SOL    HW229469  17.491  -3.354   5.129
42488SOL     OW29470  10.212   6.497   4.553
42488SOL    HW129471  -0.798   6.534   4.636
42488SOL    HW229472 -11.839   6.405   4.556
42489SOL     OW29473   4.066   3.892  10.070
42489SOL    HW129474   4.091  25.940   9.983
42489SOL    HW229475  15.033   3.834  10.096
42490SOL     OW29476   3.916   8.130   2.479
42490SOL    HW129477  25.944   8.150   2.401
42490SOL    HW229478   3.981   8.200   2.484
42491SOL     OW29479   5.361   6.282   8.660
42491SOL    HW129480   5.407   6.211  30.785
42491SOL    HW229481 -16.680   6.362  -2.344
42492SOL     OW29482   2.835   2.272   3.665
42492SOL    HW129483  24.985  13.319  25.680
42492SOL    HW229484  13.843   2.182   3.655
42493SOL     OW29485   9.963   4.742   4.822
42493SOL    HW129486   9.986  -6.258  15.777
42493SOL    HW229487   9.983   4.808   4.887
42494SOL     OW29488   1.446   3.474   7.634
42494SOL    HW129489   1.370  -7.622 -14.461
42494SOL    HW229490   1.521  -7.623   7.625
42495SOL     OW29491   5.226   4.593   5.593
42495SOL    HW129492   5.320   4.592   5.608
42495SOL    HW229493   5.201   4.685  -5.438
42496SOL     OW29494   3.363   5.018   1.741
42496SOL    HW129495   3.352   5.105   1.781
42496SOL    HW229496   3.319   5.025   1.657
42497SOL     OW29497   8.908   4.685   5.551
42497SOL    HW129498  31.015  -6.445   5.539
42497SOL    HW229499   8.987   4.732   5.577
42498SOL     OW29500  -0.506   6.526   1.202
42498SOL    HW129501  10.565  17.544   1.290
42498SOL    HW229502  -0.457  17.644  23.256
42499SOL     OW29503   0.685   3.543   6.726
42499SOL    HW129504   0.624   3.611  17.740
42499SOL    HW229505   0.710  -7.475   6.815
42500SOL     OW29506   2.933   5.467   9.171
42500SOL    HW129507   2.908   5.557   9.149
42500SOL    HW229508   2.876   5.413   9.116
42501SOL     OW29509   7.226   2.149   6.101
42501SOL    HW129510  -3.721   2.170   6.090
42501SOL    HW229511   7.183  -8.847  17.066
42502SOL     OW29512  10.319   8.803   2.961
42502SOL    HW129513  10.241   8.858  -8.092
42502SOL    HW229514  10.389   8.865  -8.059
42503SOL     OW29515   8.542   6.200   6.066
42503SOL    HW129516   8.605   6.214   5.995
42503SOL    HW229517  19.629  -4.894   6.129
42504SOL     OW29518   2.417   6.203   5.389
42504SOL    HW129519   2.497   6.150 -16.693
42504SOL    HW229520   2.428   6.259 -16.613
42505SOL     OW29521   1.865   6.793   5.490
42505SOL    HW129522   1.802   6.735  27.528
42505SOL    HW229523   1.821  -4.216  16.609
42506SOL     OW29524   9.458   2.864   1.298
42506SOL    HW129525   9.503   2.795  -9.692
42506SOL    HW229526   9.526   2.929   1.280
42507SOL     OW29527   3.222   4.329   5.756
42507SOL    HW129528   3.291   4.341   5.690
42507SOL    HW229529   3.203   4.418   5.787
42508SOL     OW29530   3.729   0.717   5.947
42508SOL    HW129531   3.812  22.809   5.901
42508SOL    HW229532   3.675   0.667   5.886
42509SOL     OW29533   1.822   2.650   4.931
42509SOL    HW129534  12.792   2.584   4.939
42509SOL    HW229535   1.864   2.630   4.848
42510SOL     OW29536   0.895   6.077  -0.802
42510SOL    HW129537  12.019  -4.934  10.203
42510SOL    HW229538  11.889   6.039  21.202
42511SOL     OW29539   9.947   8.199   7.827
42511SOL    HW129540  10.021   8.143   7.802
42511SOL    HW229541  -1.157  19.178   7.862
42512SOL     OW29542   5.948   6.742   6.172
42512SOL    HW129543   5.857   6.771   6.168
42512SOL    HW229544   5.964   6.702   6.086
42513SOL     OW29545   3.623   2.771   3.417
42513SOL    HW129546  14.644   2.735  -7.536
42513SOL    HW229547   3.537   2.790   3.380
42514SOL     OW29548   4.996   6.641   9.058
42514SOL    HW129549   4.905   6.651   9.031
42514SOL    HW229550   5.037  28.669  20.027
42515SOL     OW29551   7.315   9.351   9.635
42515SOL    HW129552  -3.811   9.313   9.620
42515SOL    HW229553  -3.698   9.316   9.720
42516SOL     OW29554   5.276   1.997   2.482
42516SOL    HW129555   5.221   2.065  -8.520
42516SOL    HW229556   5.329   1.965   2.555
42517SOL     OW29557   4.772   2.121   4.452
42517SOL    HW129558   4.801  24.288   4.428
42517SOL    HW229559   4.804   2.066  15.421
42518SOL     OW29560   2.621   8.283   4.592
42518SOL    HW129561  13.570   8.254   4.585
42518SOL    HW229562  24.707   8.318  -6.359
42519SOL     OW29563   7.965   3.732   4.543
42519SOL    HW129564  19.050  25.887   4.579
42519SOL    HW229565  -3.085   3.752   4.450
42520SOL     OW29566   3.678   3.589  10.908
42520SOL    HW129567  -7.435   3.543  10.869
42520SOL    HW229568   3.654   3.681  10.902
42521SOL     OW29569   2.512   7.682   5.595
42521SOL    HW129570  24.519 -14.337   5.577
42521SOL    HW229571   2.590 -14.343   5.587
42522SOL     OW29572   7.977   2.385   4.618
42522SOL    HW129573  -3.138 -19.669  -6.475
42522SOL    HW229574  -3.017   2.467   4.636
42523SOL     OW29575  10.918   0.960   7.375
42523SOL    HW129576  10.957   1.039   7.339
42523SOL    HW229577  10.891   0.910  18.337
42524SOL     OW29578   2.951  10.040   1.013
42524SOL    HW129579   2.898  21.156  12.030
42524SOL    HW229580  14.001  10.046   1.108
42525SOL     OW29581   2.212   8.183   9.999
42525SOL    HW129582  -8.909  30.229  10.036
42525SOL    HW229583   2.279  19.163  10.033
42526SOL     OW29584  12.277   7.040   6.402
42526SOL    HW129585  -9.841   7.045   6.314
42526SOL    HW229586 -20.885   7.110   6.451
42527SOL     OW29587  -0.376  -1.058   4.478
42527SOL    HW129588  21.640  20.954  15.493
42527SOL    HW229589  -0.430  -0.986   4.512
42528SOL     OW29590   7.532   1.636   0.601
42528SOL    HW129591   7.584  34.694   0.653
42528SOL    HW229592   7.461   1.582   0.564
42529SOL     OW29593   1.860   3.971   8.326
42529SOL    HW129594   1.784  -7.037   8.375
42529SOL    HW229595  12.878 -18.198   8.302
42530SOL     OW29596   3.350   1.596   2.708
42530SOL    HW129597   3.276   1.563   2.658
42530SOL    HW229598   3.361   1.533   2.779
42531SOL     OW29599   6.202   8.976   6.247
42531SOL    HW129600   6.273  -2.073   6.184
42531SOL    HW229601  -4.806   9.042  17.348
42532SOL     OW29602   4.097   3.948   7.321
42532SOL    HW129603   4.048  -7.113  -3.798
42532SOL    HW229604   4.087   4.042 -14.748
42533SOL     OW29605   0.483   7.610  10.840
42533SOL    HW129606  11.443   7.569 -11.204
42533SOL    HW229607   0.539 -14.542  10.816
42534SOL     OW29608   3.505   7.753   4.779
42534SOL    HW129609   3.447   7.826  -6.281
42534SOL    HW229610 -18.509   7.790   4.840
42535SOL     OW29611   2.619   4.820   1.915
42535SOL    HW129612   2.568  15.940   1.917
42535SOL    HW229613   2.660   4.819   1.829
42536SOL     OW29614   3.690   1.238   2.942
42536SOL    HW129615  -7.300   1.315   2.969
42536SOL    HW229616   3.645  -9.775   2.861
42537SOL     OW29617   6.286  10.320   6.136
42537SOL    HW129618   6.353  10.307  -4.970
42537SOL    HW229619   6.205  10.331  -4.954
42538SOL     OW29620   3.325   9.703   1.746
42538SOL    HW129621   3.355   9.779   1.795
42538SOL    HW229622 -40.918   9.681   1.785
42539SOL     OW29623   2.644   9.002   3.352
42539SOL    HW129624   2.575   9.034   3.294
42539SOL    HW229625   2.679   8.924 -18.771
42540SOL     OW29626   6.912   8.689   6.397
42540SOL    HW129627   6.846  19.760   6.334
42540SOL    HW229628  28.947  19.736   6.482
42541SOL     OW29629   1.819   3.174   9.020
42541SOL    HW129630   1.817   3.268   9.001
42541SOL    HW229631   1.912   3.150   9.013
42542SOL     OW29632   8.044  10.826  11.121
42542SOL    HW129633   8.095  -0.216 -10.877
42542SOL    HW229634   7.958 -11.221  11.148
42543SOL     OW29635   2.683   7.109   4.746
42543SOL    HW129636   2.673   7.161  15.865
42543SOL    HW229637   2.619  29.225   4.684
42544SOL     OW29638   7.276  11.050   4.578
42544SOL    HW129639   7.203   0.041  15.565
42544SOL    HW229640   7.282  -0.083   4.559
42545SOL     OW29641   8.231   3.713   1.344
42545SOL    HW129642   8.202   3.689   1.256
42545SOL    HW229643   8.275   3.635   1.377
42546SOL     OW29644   8.165   6.599   2.148
42546SOL    HW129645   8.169 -48.546   2.227
42546SOL    HW229646   8.073   6.573   2.141
42547SOL     OW29647   1.542   7.021   6.918
42547SOL    HW129648   1.478   6.954  17.982
42547SOL    HW229649   1.575   6.993   6.833
42548SOL     OW29650   8.555   6.193   6.826
42548SOL    HW129651  30.591  -4.784   6.768
42548SOL    HW229652  -2.417   6.152   6.771
42549SOL     OW29653   3.205   3.432   7.500
42549SOL    HW129654  -7.830   3.415   7.406
42549SOL    HW229655  -7.857   3.524   7.507
42550SOL     OW29656   3.814  10.879   7.443
42550SOL    HW129657   3.884  -0.219   7.474
42550SOL    HW229658   3.757  10.822   7.391
42551SOL     OW29659  12.239   5.386   5.824
42551SOL    HW129660 -20.909 -16.680   5.914
42551SOL    HW229661  12.332   5.407   5.826
42552SOL     OW29662   0.327   1.664   8.629
42552SOL    HW129663  11.325   1.750 -24.493
42552SOL    HW229664 -10.636   1.677   8.686
42553SOL     OW29665   3.346   5.113   6.519
42553SOL    HW129666   3.320   5.165   6.443
42553SOL    HW229667   3.284 -27.981   6.588
42554SOL     OW29668   7.647   7.203  10.402
42554SOL    HW129669   7.581   7.151  10.448
42554SOL    HW229670   7.658   7.158  -0.721
42555SOL     OW29671   7.940   7.847   3.629
42555SOL    HW129672   7.849  18.914   3.623
42555SOL    HW229673  -3.101   7.773   3.690
42556SOL     OW29674   9.946  10.309   9.035
42556SOL    HW129675   9.925  -0.676  -2.081
42556SOL    HW229676  10.021  10.352  20.115
42557SOL     OW29677   8.389   5.712   7.703
42557SOL    HW129678  19.379   5.779  18.697
42557SOL    HW229679   8.442   5.760   7.767
42558SOL     OW29680   6.723   0.776  11.501
42558SOL    HW129681 -15.385   0.857   0.419
42558SOL    HW229682   6.689   0.706  11.445
42559SOL     OW29683   1.405   1.143   3.691
42559SOL    HW129684  -9.709  45.350   3.654
42559SOL    HW229685   1.469 -20.869  -7.328
42560SOL     OW29686   0.154   9.153   9.409
42560SOL    HW129687   0.234 -12.928   9.461
42560SOL    HW229688   0.169   9.222  31.424
42561SOL     OW29689  10.134   2.309   3.014
42561SOL    HW129690  21.232 -19.840   3.041
42561SOL    HW229691  10.126   2.366   3.091
42562SOL     OW29692   2.205   0.465  10.136
42562SOL    HW129693   2.126  22.489  10.134
42562SOL    HW229694   2.219   0.490  10.044
42563SOL     OW29695   2.434   5.047   3.998
42563SOL    HW129696 -19.568  27.138   3.943
42563SOL    HW229697   2.381   5.125  26.061
42564SOL     OW29698   1.652   9.521   2.251
42564SOL    HW129699   1.660   9.566   2.167
42564SOL    HW229700   1.728  -1.489   2.301
42565SOL     OW29701   7.677  -0.291  11.827
42565SOL    HW129702   7.710  -0.380 -10.264
42565SOL    HW229703  18.729  21.805  11.921
42566SOL     OW29704   2.245   5.088   1.787
42566SOL    HW129705   2.192  16.116   1.708
42566SOL    HW229706   2.208  16.205   1.829
42567SOL     OW29707  -0.416   3.367   3.116
42567SOL    HW129708  -0.396   3.294  14.097
42567SOL    HW229709  10.588  -7.605  36.176
42568SOL     OW29710   6.342   4.420   2.061
42568SOL    HW129711   6.425   4.432   2.107
42568SOL    HW229712 -15.804   4.423   2.130
42569SOL     OW29713  12.037   6.459  10.037
42569SOL    HW129714 -10.048   6.369 -34.154
42569SOL    HW229715  -9.964   6.459 -34.066
42570SOL     OW29716   5.079   1.465  10.033
42570SOL    HW129717   5.024   1.505  10.100
42570SOL    HW229718  -5.899  12.450  10.081
42571SOL     OW29719  10.319   5.656   5.599
42571SOL    HW129720  21.410 -16.403   5.677
42571SOL    HW229721  -0.662   5.677   5.526
42572SOL     OW29722  10.132   2.279   1.730
42572SOL    HW129723  10.093  13.235   1.705
42572SOL    HW229724  10.196   2.296   1.660
42573SOL     OW29725   1.259   6.679   3.032
42573SOL    HW129726   1.190 -26.484   3.080
42573SOL    HW229727  23.306  -4.271   3.020
42574SOL     OW29728   1.096   0.449   4.726
42574SOL    HW129729   1.149   0.462   4.647
42574SOL    HW229730   1.028   0.516   4.720
42575SOL     OW29731   6.143   8.358   9.489
42575SOL    HW129732   6.087   8.430   9.458
42575SOL    HW229733   6.229  -2.642  -1.542
42576SOL     OW29734   1.309   7.093   5.654
42576SOL    HW129735  45.491   7.161 -16.488
42576SOL    HW229736  23.350   7.023   5.601
42577SOL     OW29737   4.959  11.162   2.618
42577SOL    HW129738   4.948  11.134   2.527
42577SOL    HW229739  16.046   0.205   2.612
42578SOL     OW29740   2.200  10.036   5.611
42578SOL    HW129741   2.167  10.124  16.634
42578SOL    HW229742   2.242  10.010  16.568
42579SOL     OW29743   7.915   6.534   2.377
42579SOL    HW129744   7.996   6.584   2.391
42579SOL    HW229745   7.853   6.572   2.439
42580SOL     OW29746  11.022   3.252   5.832
42580SOL    HW129747  11.089   3.204   5.782
42580SOL    HW229748 -11.025  -7.789  -5.118
42581SOL     OW29749   8.471   7.494   6.686
42581SOL    HW129750 -13.699   7.520   6.671
42581SOL    HW229751 -13.593   7.511   6.778
42582SOL     OW29752  -1.389   5.582   1.295
42582SOL    HW129753  -1.325   5.641   1.334
42582SOL    HW229754  31.646  -5.433   1.335
42583SOL     OW29755   6.886   8.703   4.521
42583SOL    HW129756   6.809  -2.318  15.615
42583SOL    HW229757   6.890  -2.264   4.459
42584SOL     OW29758   4.778   8.729  10.350
42584SOL    HW129759   4.799   8.698 -11.817
42584SOL    HW229760  37.963   8.688  10.406
42585SOL     OW29761  10.471  10.195   3.183
42585SOL    HW129762  10.434  10.179   3.096
42585SOL    HW229763  10.563  21.254  25.247
42586SOL     OW29764   2.342   2.862   7.577
42586SOL    HW129765  13.465   2.814 -25.537
42586SOL    HW229766   2.318   2.877  -3.372
42587SOL     OW29767   1.084   9.352   9.421
42587SOL    HW129768   1.056   9.368  20.550
42587SOL    HW229769  -9.959   9.438  -1.661
42588SOL     OW29770   1.371   8.623   1.622
42588SOL    HW129771   1.453   8.587   1.655
42588SOL    HW229772   1.332   8.667   1.697
42589SOL     OW29773  10.561   5.946   7.950
42589SOL    HW129774  10.616  -5.049   8.014
42589SOL    HW229775  10.473   5.951  -3.054
42590SOL     OW29776  10.746   9.423   0.609
42590SOL    HW129777  10.766   9.450   0.699
42590SOL    HW229778 -11.263   9.462   0.557
42591SOL     OW29779   0.527  10.807   4.610
42591SOL    HW129780   0.550  10.853   4.691
42591SOL    HW229781   0.602  10.821   4.552
42592SOL     OW29782   5.225   7.206   2.697
42592SOL    HW129783   5.141  18.228  -8.300
42592SOL    HW229784 -27.851   7.269 -30.365
42593SOL     OW29785   4.894  10.666  10.199
42593SOL    HW129786   4.894  10.726  -0.914
42593SOL    HW229787   4.829  10.702  21.299
42594SOL     OW29788   6.045   0.502  10.269
42594SOL    HW129789   5.977   0.535  10.210
42594SOL    HW229790   6.064   0.414  10.236
42595SOL     OW29791   0.371  10.796   0.864
42595SOL    HW129792  22.544  10.810  11.914
42595SOL    HW229793  22.422  10.758   0.947
42596SOL     OW29794   7.471   5.820   2.449
42596SOL    HW129795   7.376 -16.273  13.484
42596SOL    HW229796   7.502 -27.366   2.509
42597SOL     OW29797   4.015   9.014   9.351
42597SOL    HW129798   3.934   9.048   9.311
42597SOL    HW229799   3.985   8.967   9.429
42598SOL     OW29800   4.746   6.111   8.591
42598SOL    HW129801  26.734   6.093   8.570
42598SOL    HW229802   4.793   6.032   8.565
42599SOL     OW29803   7.147   2.537   9.532
42599SOL    HW129804   7.223   2.500 -12.503
42599SOL    HW229805   7.168   2.534   9.439
42600SOL     OW29806   4.618   1.404   5.015
42600SOL    HW129807  26.705  34.427  -6.024
42600SOL    HW229808  -6.380  45.589   4.934
42601SOL     OW29809   8.449   7.578   0.908
42601SOL    HW129810   8.389   7.650  11.968
42601SOL    HW229811   8.518   7.585  23.053
42602SOL     OW29812   5.160   9.834   8.496
42602SOL    HW129813  -5.841   9.899   8.437
42602SOL    HW229814  -5.911   9.765   8.437
42603SOL     OW29815   6.945   1.553   5.414
42603SOL    HW129816   6.991   1.603  -5.558
42603SOL    HW229817  29.085   1.550   5.340
42604SOL     OW29818   2.063   2.560   5.693
42604SOL    HW129819  13.116   2.485   5.751
42604SOL    HW229820   1.971  -8.457   5.703
42605SOL     OW29821   6.846   5.914   4.960
42605SOL    HW129822   6.873   5.983   4.899
42605SOL    HW229823  -4.196   5.835   4.907
42606SOL     OW29824   7.817   0.536   3.748
42606SOL    HW129825   7.883  11.623   3.697
42606SOL    HW229826  -3.178   0.456 -29.343
42607SOL     OW29827   2.710   2.237   2.739
42607SOL    HW129828   2.730 -19.935   2.747
42607SOL    HW229829   2.775   2.270   2.676
42608SOL     OW29830   3.126   6.458   8.173
42608SOL    HW129831   3.043  -4.596   8.129
42608SOL    HW229832   3.185 -26.727   8.137
42609SOL     OW29833   7.138   4.222   2.643
42609SOL    HW129834 -26.058 -17.910   2.622
42609SOL    HW229835   7.122  -6.734  13.640
42610SOL     OW29836   9.323   5.749   2.272
42610SOL    HW129837   9.281   5.694   2.205
42610SOL    HW229838  31.465   5.802   2.223
42611SOL     OW29839   9.435  11.503   9.790
42611SOL    HW129840   9.495 -10.623   9.733
42611SOL    HW229841   9.423  11.588   9.748
42612SOL     OW29842   2.874  10.486   4.410
42612SOL    HW129843  13.965 -33.737   4.363
42612SOL    HW229844  25.004 -11.575   4.489
42613SOL     OW29845   2.734   2.081   6.784
42613SOL    HW129846   2.752   2.118   6.870
42613SOL    HW229847   2.820   2.063  -4.294
42614SOL     OW29848   2.002   2.575  10.802
42614SOL    HW129849  -9.083   2.655  21.814
42614SOL    HW229850   1.932   2.518  -0.205
42615SOL     OW29851   5.463   0.218   2.005
42615SOL    HW129852   5.504  11.185   1.957
42615SOL    HW229853  16.557   0.294   1.985
42616SOL     OW29854   4.936   1.436   8.904
42616SOL    HW129855 -28.111   1.489   8.870
42616SOL    HW229856   4.876   1.500  -2.096
42617SOL     OW29857   5.736   2.292   1.964
42617SOL    HW129858  -5.209  24.380   1.974
42617SOL    HW229859   5.706   2.253   2.046
42618SOL     OW29860   8.556   3.571   9.789
42618SOL    HW129861   8.504   3.561  -1.330
42618SOL    HW229862   8.558   3.484  -1.212
42619SOL     OW29863   8.689   3.832  -1.260
42619SOL    HW129864   8.644   3.748  -1.257
42619SOL    HW229865   8.766   3.821  31.915
42620SOL     OW29866   4.179   6.382   2.795
42620SOL    HW129867   4.168  17.480   2.870
42620SOL    HW229868   4.204   6.298   2.834
42621SOL     OW29869  -0.204   2.255   2.730
42621SOL    HW129870  -0.269   2.246   2.800
42621SOL    HW229871  21.913   2.167   2.722
42622SOL     OW29872   6.414   3.461   4.027
42622SOL    HW129873   6.500 -18.657   4.014
42622SOL    HW229874   6.423   3.513   4.107
42623SOL     OW29875   2.857   9.813   1.552
42623SOL    HW129876  35.941  20.934   1.587
42623SOL    HW229877  24.871   9.747   1.576
42624SOL     OW29878   8.306   2.236   2.094
42624SOL    HW129879   8.346   2.238   2.007
42624SOL    HW229880 -13.707   2.273   2.152
42625SOL     OW29881   4.161   5.438   4.527
42625SOL    HW129882   4.156   5.534   4.521
42625SOL    HW229883   4.108   5.406   4.455
42626SOL     OW29884  10.728   2.163   9.839
42626SOL    HW129885  -0.327   2.076   9.802
42626SOL    HW229886  10.742   2.220   9.763
42627SOL     OW29887   1.329  12.919   9.870
42627SOL    HW129888  34.495  12.991   9.910
42627SOL    HW229889  12.321 -31.281  20.983
42628SOL     OW29890   1.425   3.666   6.369
42628SOL    HW129891   1.391   3.741   6.417
42628SOL    HW229892   1.417  -7.348 -15.802
42629SOL     OW29893   2.202   3.057   0.820
42629SOL    HW129894   2.265   2.988   0.839
42629SOL    HW229895  24.332   3.138 -10.216
42630SOL     OW29896   9.260   9.245   6.195
42630SOL    HW129897   9.292  20.196   6.177
42630SOL    HW229898 -12.742   9.292   6.228
42631SOL     OW29899   7.068   0.937   4.179
42631SOL    HW129900   7.065   0.859   4.123
42631SOL    HW229901   7.162 -10.081   4.184
42632SOL     OW29902   3.006   3.937  10.873
42632SOL    HW129903  36.094  14.946  10.959
42632SOL    HW229904   3.101   3.944  10.883
42633SOL     OW29905   6.724   7.443   3.250
42633SOL    HW129906   6.726   7.494   3.330
42633SOL    HW229907  17.672   7.418  -7.800
42634SOL     OW29908   6.010   8.624   8.085
42634SOL    HW129909  50.121   8.661   8.160
42634SOL    HW229910 -16.127   8.640  -3.029
42635SOL     OW29911   2.503  10.051   2.217
42635SOL    HW129912  13.539  21.070   2.311
42635SOL    HW229913   2.434   9.997   2.178
42636SOL     OW29914   4.968  10.398   0.770
42636SOL    HW129915 -17.188  10.452   0.751
42636SOL    HW229916  -6.105  10.329   0.828
42637SOL     OW29917   3.960   2.425   5.794
42637SOL    HW129918   3.867  13.445   5.808
42637SOL    HW229919   3.988  -8.677  16.767
42638SOL     OW29920   9.558   1.361   0.866
42638SOL    HW129921   9.490  34.547   0.866
42638SOL    HW229922   9.510  23.358  22.956
42639SOL     OW29923   3.696   3.380   0.376
42639SOL    HW129924  14.795   3.356  11.487
42639SOL    HW229925   3.630   3.435   0.418
42640SOL     OW29926   8.809   0.568   5.106
42640SOL    HW129927  19.794  11.563   5.042
42640SOL    HW229928   8.749   0.594 -16.904
42641SOL     OW29929   1.276  -0.373  -0.555
42641SOL    HW129930  12.275  -0.441  32.511
42641SOL    HW229931  23.286  43.814 -22.575
42642SOL     OW29932   7.646   9.059  10.656
42642SOL    HW129933 -14.407   8.982  10.706
42642SOL    HW229934   7.634   9.027 -22.552
42643SOL     OW29935   6.979   4.127   0.470
42643SOL    HW129936  -4.050  -6.836   0.527
42643SOL    HW229937   7.016  -6.985   0.521
42644SOL     OW29938   1.671   6.191   7.379
42644SOL    HW129939   1.630   6.132   7.442
42644SOL    HW229940   1.603  -4.833   7.313
42645SOL     OW29941   5.789   4.120   0.377
42645SOL    HW129942   5.869  26.148   0.365
42645SOL    HW229943   5.719  15.095   0.372
42646SOL     OW29944   5.773   9.661   6.530
42646SOL    HW129945   5.781   9.698  17.658
42646SOL    HW229946   5.715   9.585   6.541
42647SOL     OW29947   9.821   1.271   7.588
42647SOL    HW129948   9.894   1.249   7.531
42647SOL    HW229949   9.800   1.189   7.633
42648SOL     OW29950   3.370  10.852   1.709
42648SOL    HW129951   3.461  10.882   1.712
42648SOL    HW229952  14.402 -11.270   1.624
42649SOL     OW29953   7.713   1.809   9.178
42649SOL    HW129954   7.685   1.899  20.234
42649SOL    HW229955 -14.282   1.801   9.222
42650SOL     OW29956   9.180   5.634   2.853
42650SOL    HW129957  -1.931  -5.412   2.916
42650SOL    HW229958   9.211   5.544   2.843
42651SOL     OW29959   6.029   3.164   6.992
42651SOL    HW129960   6.066   3.143  18.118
42651SOL    HW229961   6.089   3.229   6.956
42652SOL     OW29962   4.143   7.546   1.152
42652SOL    HW129963  -6.823   7.490   1.126
42652SOL    HW229964   4.172  -3.405   1.130
42653SOL     OW29965   1.866  10.471   4.550
42653SOL    HW129966   1.948  -0.608  -6.461
42653SOL    HW229967  12.843  10.398  15.590
42654SOL     OW29968   3.923   5.076   4.677
42654SOL    HW129969   3.986  27.160  -6.434
42654SOL    HW229970   3.960   5.012  15.778
42655SOL     OW29971  10.766   7.696   7.854
42655SOL    HW129972  10.825   7.771  18.890
42655SOL    HW229973  -0.218  -3.419  18.870
42656SOL     OW29974   0.651   1.194   2.839
42656SOL    HW129975  11.720   1.187  -8.109
42656SOL    HW229976   0.728   1.170   2.787
42657SOL     OW29977   9.456   6.338  11.380
42657SOL    HW129978 -12.704   6.287 -21.748
42657SOL    HW229979  -1.609   6.427  11.357
42658SOL     OW29980   6.631   9.047   8.940
42658SOL    HW129981 -15.430   9.136   8.972
42658SOL    HW229982   6.627   9.056   8.845
42659SOL     OW29983   8.172   7.385  10.702
42659SOL    HW129984   8.163  51.597  -0.259
42659SOL    HW229985   8.173  18.487  -0.410
42660SOL     OW29986   0.491   7.535   0.603
42660SOL    HW129987   0.562  18.594   0.665
42660SOL    HW229988   0.498   7.604   0.537
42661SOL     OW29989   6.148   8.974   1.588
42661SOL    HW129990  39.334   8.921   1.547
42661SOL    HW229991  17.236  31.112   1.646
42662SOL     OW29992   0.068   3.816  -0.485
42662SOL    HW129993  22.107   3.858  10.631
42662SOL    HW229994   0.107   3.736  10.589
42663SOL     OW29995   4.463   2.225   8.175
42663SOL    HW129996  26.560   2.185   8.089
42663SOL    HW229997   4.503  24.244  19.277
42664SOL     OW29998   0.763   7.421  -0.817
42664SOL    HW129999   0.737  -3.699  21.216
42664SOL    HW230000   0.688  -3.596  -0.763
42665SOL     OW30001   4.825  10.763   7.101
42665SOL    HW130002  15.794  21.844  -3.987
42665SOL    HW230003  -6.222  -0.370  18.121
42666SOL     OW30004   3.824   7.314   3.116
42666SOL    HW130005   3.747   7.275   3.157
42666SOL    HW230006 -18.289   7.357   3.037
42667SOL     OW30007   9.815   6.135   5.878
42667SOL    HW130008   9.792   6.055   5.926
42667SOL    HW230009   9.891   6.170   5.923
42668SOL     OW30010   8.389   8.687  12.377
42668SOL    HW130011   8.446  19.660  -9.665
42668SOL    HW230012   8.440   8.726   1.266
42669SOL     OW30013   1.378   3.822   7.244
42669SOL    HW130014   1.414  14.878   7.331
42669SOL    HW230015   1.298   3.874   7.241
42670SOL     OW30016  11.180   0.643   0.729
42670SOL    HW130017   0.068   0.615   0.673
42670SOL    HW230018  11.158   0.732 -10.285
42671SOL     OW30019   4.922   2.164   9.540
42671SOL    HW130020   4.931  13.136   9.473
42671SOL    HW230021   5.010   2.200   9.550
42672SOL     OW30022   6.354   5.239  10.539
42672SOL    HW130023   6.287   5.181  10.502
42672SOL    HW230024   6.329   5.326  -0.531
42673SOL     OW30025   0.985   3.049   8.840
42673SOL    HW130026 -10.034   2.962   8.806
42673SOL    HW230027   0.891   3.058   8.830
42674SOL     OW30028   3.970   4.221   4.585
42674SOL    HW130029   3.972   4.158   4.656
42674SOL    HW230030   4.050   4.273   4.597
42675SOL     OW30031  10.598   5.469   1.687
42675SOL    HW130032  10.526  16.544  12.779
42675SOL    HW230033  10.659   5.543  12.718
42676SOL     OW30034   7.727   1.484   7.828
42676SOL    HW130035   7.636 -20.572   7.846
42676SOL    HW230036   7.766   1.565   7.793
42677SOL     OW30037   1.900   2.625   8.150
42677SOL    HW130038   1.844 -19.433   8.225
42677SOL    HW230039   1.952  -8.336  -2.905
42678SOL     OW30040   8.203   2.268   7.302
42678SOL    HW130041   8.171   2.351   7.265
42678SOL    HW230042   8.132   2.239 -14.719
42679SOL     OW30043   1.589   6.269   7.862
42679SOL    HW130044  -9.430   6.266   7.956
42679SOL    HW230045   1.591  17.217  -3.205
42680SOL     OW30046   8.694   1.078   2.081
42680SOL    HW130047  -2.407   1.072   2.007
42680SOL    HW230048   8.741  23.074   2.080
42681SOL     OW30049   0.421   7.271   2.235
42681SOL    HW130050   0.378   7.337   2.180
42681SOL    HW230051   0.430 -14.767   2.321
42682SOL     OW30052   9.316   9.532  12.089
42682SOL    HW130053   9.402  -1.511   1.008
42682SOL    HW230054 -23.827 -12.639  -9.977
42683SOL     OW30055   1.491   5.296   9.461
42683SOL    HW130056   1.559  16.363   9.400
42683SOL    HW230057   1.508   5.348  20.579
42684SOL     OW30058   5.687   6.760   1.393
42684SOL    HW130059  16.665   6.744   1.322
42684SOL    HW230060   5.727   6.844   1.372
42685SOL     OW30061   9.436   1.087   9.745
42685SOL    HW130062   9.411  12.144  -1.204
42685SOL    HW230063 -12.727  12.117   9.699
42686SOL     OW30064   7.557   1.396   3.837
42686SOL    HW130065   7.464   1.416   3.841
42686SOL    HW230066   7.600   1.472   3.876
42687SOL     OW30067   1.163   8.048   9.172
42687SOL    HW130068   1.133   8.014   9.257
42687SOL    HW230069   1.258  52.193   9.173
42688SOL     OW30070  10.963   1.479   5.999
42688SOL    HW130071  11.014   1.398   5.995
42688SOL    HW230072  10.896   1.462   6.065
42689SOL     OW30073   1.035   9.822   4.848
42689SOL    HW130074  -9.995   9.917  -6.197
42689SOL    HW230075   1.068   9.789  15.805
42690SOL     OW30076   8.447   6.547   9.543
42690SOL    HW130077   8.389   6.472  -1.482
42690SOL    HW230078   8.414   6.615   9.602
42691SOL     OW30079  11.492   3.098   0.565
42691SOL    HW130080  11.569   3.045   0.543
42691SOL    HW230081   0.488  -7.865   0.610
42692SOL     OW30082   7.494   7.431   6.340
42692SOL    HW130083   7.511  51.541  17.299
42692SOL    HW230084   7.403  18.451  -4.678
42693SOL     OW30085  10.266  10.468   8.249
42693SOL    HW130086  10.238  10.520   8.324
42693SOL    HW230087  10.303  10.388 -13.791
42694SOL     OW30088   4.974   3.564   7.906
42694SOL    HW130089   4.942   3.528   7.988
42694SOL    HW230090   4.900   3.614  18.910
42695SOL     OW30091   6.919   0.335   9.416
42695SOL    HW130092   6.964   0.287   9.346
42695SOL    HW230093   6.831   0.298   9.417
42696SOL     OW30094   1.902   7.812  11.484
42696SOL    HW130095  -9.056  18.855  11.535
42696SOL    HW230096  -9.160   7.719   0.443
42697SOL     OW30097   8.606   7.558   1.131
42697SOL    HW130098   8.607   7.527   1.222
42697SOL    HW230099 -13.438   7.647   1.136
42698SOL     OW30100   4.480   0.594   4.940
42698SOL    HW130101   4.561   0.629   4.904
42698SOL    HW230102   4.423   0.580   4.864
42699SOL     OW30103   6.904   4.114   2.527
42699SOL    HW130104   6.814  -6.896  -8.498
42699SOL    HW230105   6.911   4.033  13.617
42700SOL     OW30106   9.922   5.360   8.924
42700SOL    HW130107  -1.115   5.433   8.986
42700SOL    HW230108  10.014   5.334   8.914
42701SOL     OW30109   7.671   2.206   6.892
42701SOL    HW130110   7.599   2.177   6.836
42701SOL    HW230111 -25.485  -8.765   6.947
42702SOL     OW30112   9.556  10.972  11.050
42702SOL    HW130113   9.500  11.012  22.156
42702SOL    HW230114  20.618 -22.075 -11.088
42703SOL     OW30115   7.877   7.658   5.414
42703SOL    HW130116   7.918   7.573   5.395
42703SOL    HW230117   7.948   7.721   5.403
42704SOL     OW30118   5.935   8.074   5.935
42704SOL    HW130119   5.938  19.055   6.011
42704SOL    HW230120   5.854  19.164   5.947
42705SOL     OW30121   4.738  10.582   0.700
42705SOL    HW130122   4.708  10.630   0.777
42705SOL    HW230123  15.850  10.634   0.666
42706SOL     OW30124  10.292   9.233   3.795
42706SOL    HW130125  10.244   9.274  -7.173
42706SOL    HW230126  -0.735   9.303  25.810
42707SOL     OW30127   1.385   9.820  10.283
42707SOL    HW130128  12.463   9.733  10.294
42707SOL    HW230129   1.449   9.868 -11.849
42708SOL     OW30130   3.659  11.038   5.357
42708SOL    HW130131   3.744  11.015   5.318
42708SOL    HW230132   3.653  10.983   5.435
42709SOL     OW30133   4.460   3.467   7.294
42709SOL    HW130134   4.537   3.432   7.250
42709SOL    HW230135   4.429   3.537   7.237
42710SOL     OW30136   4.647   5.551   6.409
42710SOL    HW130137 -17.509   5.593  17.409
42710SOL    HW230138   4.681   5.616  17.510
42711SOL     OW30139   7.434   8.960   6.160
42711SOL    HW130140   7.443   8.865   6.175
42711SOL    HW230141   7.470   8.973  17.111
42712SOL     OW30142   8.851   3.272   7.012
42712SOL    HW130143   8.909  14.247   7.052
42712SOL    HW230144 -13.177  14.348   6.939
42713SOL     OW30145   9.382   9.081   3.293
42713SOL    HW130146   9.391   8.988  36.435
42713SOL    HW230147   9.467 -12.975  -7.784
42714SOL     OW30148   6.077   9.258   2.029
42714SOL    HW130149  39.200   9.274   2.123
42714SOL    HW230150  17.172   9.181   2.015
42715SOL     OW30151   5.030   7.579   0.578
42715SOL    HW130152  27.029   7.528   0.567
42715SOL    HW230153   5.057   7.561   0.668
42716SOL     OW30154   7.009   3.397   2.970
42716SOL    HW130155   7.057  25.522  -8.137
42716SOL    HW230156  -4.112  -7.670   2.927
42717SOL     OW30157   3.900   2.938   2.577
42717SOL    HW130158   3.855   2.894   2.505
42717SOL    HW230159   3.831  -8.049   2.619
42718SOL     OW30160   8.411  11.763   7.207
42718SOL    HW130161  19.436 -21.312   7.123
42718SOL    HW230162   8.332 -10.297  29.337
42719SOL     OW30163   7.906   7.767   2.330
42719SOL    HW130164   7.874   7.694  13.422
42719SOL    HW230165   7.832 -14.290   2.274
42720SOL     OW30166   6.019   9.695   2.651
42720SOL    HW130167  -4.973  31.833   2.593
42720SOL    HW230168 -16.014   9.702   2.735
42721SOL     OW30169   9.970   4.620   5.827
42721SOL    HW130170   9.912   4.696   5.823
42721SOL    HW230171   9.962   4.579   5.741
42722SOL     OW30172   3.802   3.397   6.270
42722SOL    HW130173   3.828   3.388 -26.940
42722SOL    HW230174 -18.272   3.309   6.305
42723SOL     OW30175   3.699   1.109   9.060
42723SOL    HW130176  25.689   1.095  20.067
42723SOL    HW230177  25.806   1.022   9.090
42724SOL     OW30178   7.740   9.835   2.784
42724SOL    HW130179  29.788  20.960   2.813
42724SOL    HW230180   7.825 -12.254   2.827
42725SOL     OW30181   3.571   5.619   5.465
42725SOL    HW130182  -7.392   5.605   5.409
42725SOL    HW230183   3.606   5.661  16.583
42726SOL     OW30184   9.011   3.109   8.710
42726SOL    HW130185   8.996   3.161   8.789
42726SOL    HW230186   8.957  -7.890   8.644
42727SOL     OW30187   2.821   2.903  10.644
42727SOL    HW130188   2.793  -8.046  10.659
42727SOL    HW230189   2.915   2.909  10.631
42728SOL     OW30190   9.245   2.828  10.948
42728SOL    HW130191   9.270   2.767  10.878
42728SOL    HW230192   9.154 -30.312  10.968
42729SOL     OW30193   2.830   5.617   0.657
42729SOL    HW130194   2.757  -5.475   0.623
42729SOL    HW230195   2.898   5.609   0.589
42730SOL     OW30196   0.268   1.572  10.394
42730SOL    HW130197   0.221   1.613  10.321
42730SOL    HW230198   0.354   1.552  10.358
42731SOL     OW30199   8.042   7.159  -0.350
42731SOL    HW130200   7.951   7.188  10.699
42731SOL    HW230201   8.093   7.239  -0.347
42732SOL     OW30202   4.373   3.222   2.535
42732SOL    HW130203   4.310   3.152   2.553
42732SOL    HW230204   4.365  14.321  24.689
42733SOL     OW30205   1.354   5.376   3.070
42733SOL    HW130206 -20.673   5.308   3.028
42733SOL    HW230207  12.431   5.384   3.157
42734SOL     OW30208  13.006   8.187   7.792
42734SOL    HW130209  12.945  19.154   7.787
42734SOL    HW230210 -31.083 -13.922  -3.189
42735SOL     OW30211  10.443   9.424   3.390
42735SOL    HW130212  10.356   9.386   3.401
42735SOL    HW230213  10.500  20.411  -7.594
42736SOL     OW30214   7.641   7.844   7.785
42736SOL    HW130215   7.597   7.761  18.808
42736SOL    HW230216 -14.475  29.984  29.800
42737SOL     OW30217   2.467   7.702   8.367
42737SOL    HW130218  -8.667   7.700   8.377
42737SOL    HW230219   2.500  -3.313   8.453
42738SOL     OW30220   3.631   9.830   0.191
42738SOL    HW130221   3.667   9.756   0.240
42738SOL    HW230222   3.633   9.801   0.100
42739SOL     OW30223   8.498   4.369   9.366
42739SOL    HW130224  30.632   4.376  -1.752
42739SOL    HW230225   8.554   4.325   9.430
42740SOL     OW30226   2.734   2.473   0.982
42740SOL    HW130227   2.768 -19.544  12.086
42740SOL    HW230228  13.841  24.486   0.975
42741SOL     OW30229   8.247   8.544   6.181
42741SOL    HW130230   8.305  -2.433 -15.854
42741SOL    HW230231   8.193   8.509  28.331
42742SOL     OW30232   7.398   6.346   5.027
42742SOL    HW130233   7.369   6.263  27.144
42742SOL    HW230234   7.380 -26.707  27.173
42743SOL     OW30235   3.119   7.252  10.046
42743SOL    HW130236  25.151   7.183   9.999
42743SOL    HW230237  36.210  29.321  10.137
42744SOL     OW30238   1.465   5.680   9.146
42744SOL    HW130239   1.552  -5.391   9.122
42744SOL    HW230240   1.405   5.618  31.183
42745SOL     OW30241   0.809   7.301   0.547
42745SOL    HW130242   0.796   7.230  11.650
42745SOL    HW230243 -10.139   7.294   0.521
42746SOL     OW30244   0.876   2.579  10.114
42746SOL    HW130245   0.808  13.585  10.056
42746SOL    HW230246   0.860   2.674  10.117
42747SOL     OW30247   5.537   4.319   6.361
42747SOL    HW130248   5.507   4.406  -4.706
42747SOL    HW230249   5.614   4.336 -15.665
42748SOL     OW30250   9.187   2.421   8.929
42748SOL    HW130251   9.132  -8.636   8.853
42748SOL    HW230252   9.258   2.356   8.924
42749SOL     OW30253   3.119   0.317   2.260
42749SOL    HW130254   3.122  22.307   2.296
42749SOL    HW230255  14.102   0.365   2.320
42750SOL     OW30256   3.451   7.074   2.690
42750SOL    HW130257   3.518   7.020   2.731
42750SOL    HW230258   3.417   7.128   2.762
42751SOL     OW30259   7.792   8.390   1.811
42751SOL    HW130260   7.850   8.402  -9.303
42751SOL    HW230261 -14.282   8.297  12.871
42752SOL     OW30262   6.676  10.332   5.661
42752SOL    HW130263   6.613  10.304  -5.313
42752SOL    HW230264   6.689  10.255  27.684
42753SOL     OW30265   7.954   4.555   3.782
42753SOL    HW130266   8.015  -6.435   3.728
42753SOL    HW230267   7.872   4.604   3.776
42754SOL     OW30268   8.358   0.898   8.082
42754SOL    HW130269 -13.760   0.984   8.101
42754SOL    HW230270 -13.698   0.902  19.029
42755SOL     OW30271   2.774   7.005   7.498
42755SOL    HW130272   2.851  18.035 -14.526
42755SOL    HW230273   2.747   6.915  29.557
42756SOL     OW30274   8.091   6.982  14.660
42756SOL    HW130275  -2.998   7.029  -7.352
42756SOL    HW230276   8.025   6.953 -29.561
42757SOL     OW30277   3.427   4.758   2.166
42757SOL    HW130278  -7.553   4.818 -19.957
42757SOL    HW230279   3.433   4.677  -8.923
42758SOL     OW30280   4.065   2.876   7.799
42758SOL    HW130281   4.156  13.897  -3.219
42758SOL    HW230282   4.021   2.882  -3.156
42759SOL     OW30283   5.956   2.104   8.326
42759SOL    HW130284   5.897   2.065   8.391
42759SOL    HW230285   5.898  13.184  19.302
42760SOL     OW30286  11.670   9.379   2.400
42760SOL    HW130287   0.687  -1.737   2.409
42760SOL    HW230288   0.543   9.346   2.421
42761SOL     OW30289  11.577   2.163   0.736
42761SOL    HW130290  11.620  13.123   0.769
42761SOL    HW230291   0.603   2.204  11.720
42762SOL     OW30292   6.616   3.141   4.158
42762SOL    HW130293   6.550  14.155   4.093
42762SOL    HW230294   6.678   3.068  -6.881
42763SOL     OW30295  10.064   2.960  10.763
42763SOL    HW130296  10.072   2.876  -0.232
42763SOL    HW230297  10.133   3.014  10.800
42764SOL     OW30298   7.937   5.121   7.131
42764SOL    HW130299 -14.141   5.193 -25.925
42764SOL    HW230300   7.953   5.163 -15.033
42765SOL     OW30301   7.744   0.212   2.189
42765SOL    HW130302  -3.360   0.156   2.232
42765SOL    HW230303 -14.312  22.356   2.255
42766SOL     OW30304   7.405   4.631   0.830
42766SOL    HW130305  18.469  15.763   0.834
42766SOL    HW230306  -3.565  15.626   0.879
42767SOL     OW30307   8.902   7.980   3.455
42767SOL    HW130308  -2.166   8.061 -18.583
42767SOL    HW230309  -2.214  18.963 -29.660
42768SOL     OW30310   1.499   3.877  10.632
42768SOL    HW130311  12.463   3.894  10.688
42768SOL    HW230312   1.509   3.782  10.634
42769SOL     OW30313   5.409   7.422   0.605
42769SOL    HW130314   5.498  -3.587  11.629
42769SOL    HW230315   5.355  -3.567 -10.496
42770SOL     OW30316   1.581   4.082   1.274
42770SOL    HW130317   1.531   4.025   1.333
42770SOL    HW230318   1.613  37.142   1.205
42771SOL     OW30319   5.538   9.220   5.027
42771SOL    HW130320  38.594   9.157 -17.017
42771SOL    HW230321  38.723   9.229   5.096
42772SOL     OW30322   0.889   3.782   7.228
42772SOL    HW130323   0.878   3.797   7.134
42772SOL    HW230324 -10.172   3.865   7.269
42773SOL     OW30325   7.609   6.165  -0.262
42773SOL    HW130326   7.554   6.243  -0.257
42773SOL    HW230327   7.649   6.169  10.691
42774SOL     OW30328   0.830  10.324  -0.648
42774SOL    HW130329   0.860  10.275  -0.724
42774SOL    HW230330  22.912  10.262  32.543
42775SOL     OW30331   3.688   3.887   4.599
42775SOL    HW130332   3.774   3.868   4.563
42775SOL    HW230333   3.653   3.956   4.543
42776SOL     OW30334  10.806   5.585   6.333
42776SOL    HW130335  10.850   5.640   6.269
42776SOL    HW230336  10.713   5.596  -4.724
42777SOL     OW30337   7.711   0.200   1.460
42777SOL    HW130338  29.872   0.201   1.510
42777SOL    HW230339   7.706  11.326  34.539
42778SOL     OW30340   7.127   9.631   0.104
42778SOL    HW130341   7.108   9.723  11.127
42778SOL    HW230342   7.165   9.598   0.023
42779SOL     OW30343   7.059   7.226   8.519
42779SOL    HW130344   6.994   7.289   8.487
42779SOL    HW230345   7.048   7.150   8.463
42780SOL     OW30346   2.309   0.651   9.252
42780SOL    HW130347   2.297   0.594   9.176
42780SOL    HW230348  -8.635   0.662  31.337
42781SOL     OW30349  10.212   3.691   1.845
42781SOL    HW130350  10.260  14.789   1.786
42781SOL    HW230351  21.229   3.615   1.791
42782SOL     OW30352   1.533   1.007   7.870
42782SOL    HW130353   1.529   0.953  18.830
42782SOL    HW230354   1.517   0.946  52.099
42783SOL     OW30355   7.540   8.118   0.835
42783SOL    HW130356   7.445   8.104   0.836
42783SOL    HW230357   7.564   8.116  22.822
42784SOL     OW30358   9.485   4.240  10.304
42784SOL    HW130359  20.608   4.284  10.319
42784SOL    HW230360   9.433   4.305  10.257
42785SOL     OW30361   3.068   1.430   8.940
42785SOL    HW130362   3.063   1.486 -13.217
42785SOL    HW230363   3.106   1.348   8.908
42786SOL     OW30364   0.731   4.062   6.180
42786SOL    HW130365   0.658   4.084  50.395
42786SOL    HW230366   0.732   4.131   6.114
42787SOL     OW30367   5.318   1.756   2.899
42787SOL    HW130368   5.402   1.801   2.910
42787SOL    HW230369   5.341   1.663   2.891
42788SOL     OW30370   1.887  10.927   8.725
42788SOL    HW130371   1.834  -0.033   8.733
42788SOL    HW230372   1.941  21.982  -2.393
42789SOL     OW30373   8.369   9.694   1.017
42789SOL    HW130374  -2.763   9.717   1.028
42789SOL    HW230375  19.420   9.688  11.961
42790SOL     OW30376   3.780   2.454   7.068
42790SOL    HW130377   3.770   2.432   7.160
42790SOL    HW230378  14.888   2.396   7.036
42791SOL     OW30379   9.947   6.833   5.163
42791SOL    HW130380   9.959  17.791 -16.867
42791SOL    HW230381 -23.111  17.934   5.204
42792SOL     OW30382   8.042   0.947   9.889
42792SOL    HW130383   8.026  -9.999   9.903
42792SOL    HW230384 -13.964   0.927  20.986
42793SOL     OW30385   8.844   7.181   7.659
42793SOL    HW130386   8.799   7.120  18.640
42793SOL    HW230387   8.937   7.160   7.649
42794SOL     OW30388   3.047   6.532   4.948
42794SOL    HW130389   3.121   6.570   4.996
42794SOL    HW230390   3.080   6.447   4.919
42795SOL     OW30391   4.214  11.006   7.199
42795SOL    HW130392   4.226  11.078   7.137
42795SOL    HW230393   4.120  10.991   7.200
42796SOL     OW30394   2.415   0.364   3.155
42796SOL    HW130395   2.374   0.451   3.148
42796SOL    HW230396   2.446   0.360  14.285
42797SOL     OW30397   9.655   6.721  10.925
42797SOL    HW130398   9.682   6.721  10.833
42797SOL    HW230399   9.723   6.770  10.970
42798SOL     OW30400   8.233   1.257   6.693
42798SOL    HW130401  19.301   1.284 -15.299
42798SOL    HW230402  30.247  12.362   6.668
42799SOL     OW30403   1.780   8.203   2.150
42799SOL    HW130404  12.831   8.234   2.060
42799SOL    HW230405   1.714   8.261   2.188
42800SOL     OW30406   8.880  10.344   5.095
42800SOL    HW130407   8.849  21.390  16.045
42800SOL    HW230408  42.007  10.251   5.112
42801SOL     OW30409   2.303   7.694   4.353
42801SOL    HW130410   2.393   7.711  15.420
42801SOL    HW230411  24.329  18.797   4.402
42802SOL     OW30412   8.913   1.845   8.613
42802SOL    HW130413   8.997  12.906 -13.424
42802SOL    HW230414  31.016  68.060  -2.517
42803SOL     OW30415   0.871   7.774  10.444
42803SOL    HW130416 -10.243   7.810  10.492
42803SOL    HW230417   0.920   7.850 -11.665
42804SOL     OW30418   4.538   1.495   2.102
42804SOL    HW130419   4.583  12.511  13.061
42804SOL    HW230420   4.607  12.575  13.196
42805SOL     OW30421   8.648   5.289   9.501
42805SOL    HW130422 -35.534   5.340  20.463
42805SOL    HW230423 -24.538 -16.770   9.566
42806SOL     OW30424   2.039  10.114   4.587
42806SOL    HW130425  -8.936  10.046  -6.431
42806SOL    HW230426   2.003  10.087   4.502
42807SOL     OW30427   9.401   7.355   7.928
42807SOL    HW130428   9.377 -14.662   7.997
42807SOL    HW230429   9.481   7.391   7.889
42808SOL     OW30430  13.087   0.738   6.879
42808SOL    HW130431  13.077   0.714  17.827
42808SOL    HW230432 -30.982   0.710   6.902
42809SOL     OW30433   4.113   6.944   6.933
42809SOL    HW130434   4.083   7.021   6.884
42809SOL    HW230435   4.075  -4.170   6.885
42810SOL     OW30436  -2.425   5.120   4.316
42810SOL    HW130437  30.735   5.067   4.384
42810SOL    HW230438   8.521   5.115   4.336
42811SOL     OW30439   4.862   2.523   4.959
42811SOL    HW130440   4.926   2.457  16.026
42811SOL    HW230441  15.819  24.571   4.995
42812SOL     OW30442   5.566   6.044   0.578
42812SOL    HW130443   5.485  -4.957   0.612
42812SOL    HW230444   5.630   6.055   0.648
42813SOL     OW30445   6.487   2.315   9.276
42813SOL    HW130446  28.531  13.360   9.365
42813SOL    HW230447  28.661   2.326   9.288
42814SOL     OW30448   7.419   2.326   3.925
42814SOL    HW130449   7.376  -8.687   4.006
42814SOL    HW230450   7.462   2.405   3.894
42815SOL     OW30451   6.315   8.570   3.909
42815SOL    HW130452  -4.678   8.637   3.959
42815SOL    HW230453   6.223   8.580   3.933
42816SOL     OW30454  10.282  10.060   9.065
42816SOL    HW130455  -0.709  10.037   8.986
42816SOL    HW230456 -11.888  10.044  -1.996
42817SOL     OW30457   1.275   0.619  -0.701
42817SOL    HW130458  -9.759   0.544  43.515
42817SOL    HW230459   1.324   0.593  -0.779
42818SOL     OW30460  11.597   7.550   8.379
42818SOL    HW130461 -21.616  18.591 -35.798
42818SOL    HW230462 -21.480  18.617  -2.742
42819SOL     OW30463   1.532  11.265   8.322
42819SOL    HW130464   1.560  11.330   8.257
42819SOL    HW230465   1.496   0.277   8.394
42820SOL     OW30466   0.557   6.909   4.189
42820SOL    HW130467   0.580   6.842 -28.865
42820SOL    HW230468  11.613   6.868   4.105
42821SOL     OW30469  11.994   9.382   9.673
42821SOL    HW130470   0.881   9.321   9.672
42821SOL    HW230471 -10.045   9.369   9.759
42822SOL     OW30472   8.425   1.427   8.759
42822SOL    HW130473   8.375   1.375   8.696
42822SOL    HW230474   8.442   1.510   8.714
42823SOL     OW30475   2.916   9.376   5.782
42823SOL    HW130476   2.945   9.380  27.770
42823SOL    HW230477   2.825   9.346   5.778
42824SOL     OW30478   1.487   5.954   0.459
42824SOL    HW130479  12.621   5.946   0.447
42824SOL    HW230480   1.450   5.947   0.371
42825SOL     OW30481   7.616   0.349   3.303
42825SOL    HW130482   7.640   0.338   3.395
42825SOL    HW230483   7.699  11.380   3.255
42826SOL     OW30484   1.717   0.996   8.495
42826SOL    HW130485   1.811   0.978   8.498
42826SOL    HW230486   1.698  12.080  -2.462
42827SOL     OW30487   5.888  10.553   7.790
42827SOL    HW130488  -5.107  10.489   7.735
42827SOL    HW230489   5.795  -0.496 -14.312
42828SOL     OW30490   2.252   5.769   4.661
42828SOL    HW130491 -19.896 -16.349   4.715
42828SOL    HW230492  -8.710   5.714   4.678
42829SOL     OW30493   4.160   9.770   6.507
42829SOL    HW130494   4.163   9.777  -4.628
42829SOL    HW230495   4.084   9.714  -4.515
42830SOL     OW30496   5.702   1.087   0.955
42830SOL    HW130497   5.620   1.119   0.919
42830SOL    HW230498   5.770   1.124  11.938
42831SOL     OW30499   4.062  -0.326   9.554
42831SOL    HW130500  15.133  10.800   9.580
42831SOL    HW230501   3.984  10.699   9.607
42832SOL     OW30502   7.234   4.174  11.018
42832SOL    HW130503  -3.888   4.138  22.090
42832SOL    HW230504   7.249  26.331   0.032
42833SOL     OW30505   1.746   8.529   2.575
42833SOL    HW130506  -9.318  -2.485   2.486
42833SOL    HW230507   1.709   8.441  -8.454
42834SOL     OW30508   7.496   1.185   6.268
42834SOL    HW130509   7.533   1.099   6.252
42834SOL    HW230510  40.608   1.192   6.363
42835SOL     OW30511   1.953   6.416   3.659
42835SOL    HW130512  12.944   6.466   3.725
42835SOL    HW230513  12.940   6.424   3.580
42836SOL     OW30514   4.701  10.297   0.359
42836SOL    HW130515   4.655  10.379  11.417
42836SOL    HW230516   4.742  -0.729   0.274
42837SOL     OW30517   8.597   6.872   6.779
42837SOL    HW130518   8.544   6.909   6.708
42837SOL    HW230519   8.545   6.798 -15.268
42838SOL     OW30520   1.647   9.418   9.498
42838SOL    HW130521  12.694   9.510   9.520
42838SOL    HW230522   1.554   9.397   9.511
42839SOL     OW30523   2.288  10.939   7.310
42839SOL    HW130524   2.209  10.907  -3.773
42839SOL    HW230525   2.304  -0.164  -3.659
42840SOL     OW30526   5.337   0.255   5.460
42840SOL    HW130527   5.345   0.162   5.481
42840SOL    HW230528   5.280  11.330  16.568
42841SOL     OW30529   6.828   0.454   4.610
42841SOL    HW130530   6.825   0.394   4.536
42841SOL    HW230531  -4.145  11.558   4.585
42842SOL     OW30532   8.447   0.369   6.802
42842SOL    HW130533   8.485   0.306  17.903
42842SOL    HW230534   8.370  22.404  39.885
42843SOL     OW30535   4.169   5.042   8.008
42843SOL    HW130536  26.166   5.073   7.972
42843SOL    HW230537  26.267  16.001   7.959
42844SOL     OW30538  -0.008   1.602   5.089
42844SOL    HW130539  22.066   1.632   5.180
42844SOL    HW230540  -0.031   1.679   5.037
42845SOL     OW30541   5.349   5.274   8.659
42845SOL    HW130542   5.335   5.179   8.658
42845SOL    HW230543   5.364  27.376  30.646
42846SOL     OW30544   7.914  11.427   1.077
42846SOL    HW130545   7.966  11.353   1.108
42846SOL    HW230546   7.972   0.463   1.084
42847SOL     OW30547   7.377   7.264   1.494
42847SOL    HW130548   7.295   7.239   1.451
42847SOL    HW230549   7.426   7.182  -9.537
42848SOL     OW30550   2.016   6.015   4.508
42848SOL    HW130551   1.952   6.081   4.532
42848SOL    HW230552  -8.980  -4.989   4.430
42849SOL     OW30553   4.632   7.761  10.161
42849SOL    HW130554   4.712   7.800  10.127
42849SOL    HW230555   4.576   7.750  10.084
42850SOL     OW30556   3.589   9.055   8.745
42850SOL    HW130557  25.762   9.071   8.742
42850SOL    HW230558   3.566  20.066   8.656
42851SOL     OW30559   3.085   9.749   9.619
42851SOL    HW130560   3.036  -1.303   9.701
42851SOL    HW230561   3.076   9.843   9.601
42852SOL     OW30562   3.784   9.537   1.906
42852SOL    HW130563   3.715   9.570   1.848
42852SOL    HW230564  25.833   9.558  -9.046
42853SOL     OW30565   8.560   5.089   9.794
42853SOL    HW130566   8.609  16.055   9.757
42853SOL    HW230567  19.659   5.128   9.858
42854SOL     OW30568   1.717   3.965   5.825
42854SOL    HW130569   1.634   3.927 -16.224
42854SOL    HW230570  12.758  37.068   5.731
42855SOL     OW30571   4.711   2.739   4.141
42855SOL    HW130572  37.864   2.651   4.156
42855SOL    HW230573  37.838   2.753   4.047
42856SOL     OW30574   3.160   6.908   0.852
42856SOL    HW130575   3.106  28.921 -10.232
42856SOL    HW230576   3.109   6.988   0.846
42857SOL     OW30577   9.220   4.636   2.942
42857SOL    HW130578   9.220   4.661   3.034
42857SOL    HW230579 -23.808   4.611   2.923
42858SOL     OW30580   5.685   2.465   8.563
42858SOL    HW130581 -27.472   2.553   8.562
42858SOL    HW230582   5.748   2.466   8.491
42859SOL     OW30583   4.989   2.441   1.205
42859SOL    HW130584   5.031   2.521   1.234
42859SOL    HW230585   4.946   2.465   1.122
42860SOL     OW30586   7.827   0.824   7.387
42860SOL    HW130587   7.773   0.801   7.311
42860SOL    HW230588  -3.234  11.955   7.406
42861SOL     OW30589   4.673   3.790   8.430
42861SOL    HW130590   4.685 -40.273   8.424
42861SOL    HW230591   4.602   3.778   8.493
42862SOL     OW30592   8.868   2.793   8.033
42862SOL    HW130593   8.876   2.715  19.128
42862SOL    HW230594  30.988   2.863   8.084
42863SOL     OW30595   9.436   0.309   0.778
42863SOL    HW130596   9.435   0.220  11.782
42863SOL    HW230597   9.349   0.344   0.757
42864SOL     OW30598  10.102   4.061   4.202
42864SOL    HW130599  21.170   4.143   4.243
42864SOL    HW230600  -1.018   4.084   4.156
42865SOL     OW30601   2.966   4.249   5.766
42865SOL    HW130602  25.046   4.154  38.897
42865SOL    HW230603  14.098   4.273  16.798
42866SOL     OW30604   7.514   7.719   0.004
42866SOL    HW130605   7.497   7.808   0.036
42866SOL    HW230606  18.617   7.683   0.066
42867SOL     OW30607   5.176   9.007   0.124
42867SOL    HW130608   5.218 -24.140   0.205
42867SOL    HW230609  16.194   9.099   0.138
42868SOL     OW30610   3.977   8.379   4.928
42868SOL    HW130611   3.992   8.340   4.842
42868SOL    HW230612   4.064   8.409  -6.084
42869SOL     OW30613   5.010   4.517  12.563
42869SOL    HW130614 -17.107   4.498  -9.602
42869SOL    HW230615   5.029   4.610  -9.519
42870SOL     OW30616   7.214   8.277   4.877
42870SOL    HW130617  -3.800   8.236   4.794
42870SOL    HW230618   7.245   8.367   4.869
42871SOL     OW30619   9.509  10.750  10.924
42871SOL    HW130620  31.640 -11.397  -0.071
42871SOL    HW230621   9.511  10.824  10.984
42872SOL     OW30622   2.679   4.073   1.265
42872SOL    HW130623 -19.400  15.151   1.353
42872SOL    HW230624   2.590   4.037  12.295
42873SOL     OW30625  -0.232   6.185   6.876
42873SOL    HW130626  10.713   6.189   6.857
42873SOL    HW230627  -0.204   6.276   6.882
42874SOL     OW30628   1.017   8.713   8.440
42874SOL    HW130629   0.942   8.668   8.401
42874SOL    HW230630   1.013  19.841  19.443
42875SOL     OW30631   2.358   2.093  10.468
42875SOL    HW130632   2.356   2.039  -0.492
42875SOL    HW230633   2.446   2.131  10.467
42876SOL     OW30634   1.353  10.240   1.333
42876SOL    HW130635   1.393  10.233   1.420
42876SOL    HW230636 -20.652  10.252   1.274
42877SOL     OW30637   9.730   3.679   5.146
42877SOL    HW130638   9.723  36.823  -5.985
42877SOL    HW230639  20.832  14.645  -5.893
42878SOL     OW30640   1.880   5.389  10.132
42878SOL    HW130641   1.792   5.383  10.094
42878SOL    HW230642   1.871   5.349  21.258
42879SOL     OW30643   2.118   2.431   1.314
42879SOL    HW130644  -8.902   2.503   1.254
42879SOL    HW230645  35.315  -8.663   1.312
42880SOL     OW30646   6.741   1.830   3.460
42880SOL    HW130647  17.820   1.829   3.547
42880SOL    HW230648  17.827   1.899  14.452
42881SOL     OW30649   9.463   1.719   7.079
42881SOL    HW130650  -1.569  34.789   7.161
42881SOL    HW230651  31.629   1.757  -3.973
42882SOL     OW30652   6.585   1.969   7.012
42882SOL    HW130653   6.581   1.893  -4.085
42882SOL    HW230654   6.544   2.040  -4.077
42883SOL     OW30655   9.577  10.959   1.386
42883SOL    HW130656   9.515  10.904   1.338
42883SOL    HW230657   9.651  10.970   1.326
42884SOL     OW30658   0.237   9.738   5.841
42884SOL    HW130659   0.275 -12.290   5.769
42884SOL    HW230660   0.271   9.650  16.867
42885SOL     OW30661   5.029   7.712   8.182
42885SOL    HW130662  -5.947   7.772  -2.898
42885SOL    HW230663   5.039   7.727  -2.763
42886SOL     OW30664   9.313   7.251   4.467
42886SOL    HW130665  -1.788   7.197   4.516
42886SOL    HW230666  -1.669   7.290 -17.546
42887SOL     OW30667   1.874  -1.757   0.158
42887SOL    HW130668   1.894  20.368   0.077
42887SOL    HW230669   1.785   9.310  11.220
42888SOL     OW30670   0.728  -0.185  10.958
42888SOL    HW130671   0.665  10.924  -0.063
42888SOL    HW230672 -10.345  10.778  11.006
42889SOL     OW30673   2.057   2.173   1.049
42889SOL    HW130674   1.987   2.238   1.044
42889SOL    HW230675  13.061   2.105  -9.932
42890SOL     OW30676  11.424  10.540   6.191
42890SOL    HW130677  11.389 -22.559   6.279
42890SOL    HW230678   0.420  10.452  17.238
42891SOL     OW30679   0.183   8.047  10.863
42891SOL    HW130680   0.150   8.066  10.951
42891SOL    HW230681  11.306  19.043  10.877
42892SOL     OW30682   4.468   3.071   6.581
42892SOL    HW130683  -6.511   3.075   6.506
42892SOL    HW230684  -6.583   2.978   6.597
42893SOL     OW30685   9.475   5.009   3.632
42893SOL    HW130686  20.571   5.087  -7.408
42893SOL    HW230687  20.541   4.960 -29.565
42894SOL     OW30688   5.815   1.894  -1.074
42894SOL    HW130689  16.875   1.861  10.053
42894SOL    HW230690  16.921   1.855   9.909
42895SOL     OW30691   4.413   7.147   7.068
42895SOL    HW130692  -6.602  -3.800   7.059
42895SOL    HW230693  -6.673   7.126   6.987
42896SOL     OW30694   7.824   1.920   8.565
42896SOL    HW130695  -3.168  12.986  -2.553
42896SOL    HW230696   7.890  12.959   8.635
42897SOL     OW30697   0.138   9.219   4.346
42897SOL    HW130698   0.218   9.235   4.396
42897SOL    HW230699   0.071 -12.878  26.492
42898SOL     OW30700   4.754   8.470   4.742
42898SOL    HW130701   4.847   8.489   4.755
42898SOL    HW230702  -6.331   8.544   4.782
42899SOL     OW30703  12.836   0.151   9.884
42899SOL    HW130704  -9.197   0.069  -1.135
42899SOL    HW230705 -42.292   0.212  20.900
42900SOL     OW30706   9.329   4.207   8.627
42900SOL    HW130707  20.276   4.230  30.697
42900SOL    HW230708   9.328   4.119  19.704
42901SOL     OW30709   3.882   1.831   2.307
42901SOL    HW130710  14.859  -9.251  -8.792
42901SOL    HW230711  26.027   1.869  -8.791
42902SOL     OW30712   6.405   1.666   1.289
42902SOL    HW130713   6.412   1.627  -9.838
42902SOL    HW230714   6.439   1.754   1.279
42903SOL     OW30715   6.241  11.034  11.035
42903SOL    HW130716  -4.872  11.009  10.979
42903SOL    HW230717   6.219  10.996  11.120
42904SOL     OW30718  10.580   2.201  11.648
42904SOL    HW130719  -0.426   2.228  11.562
42904SOL    HW230720  10.494  13.283 -10.425
42905SOL     OW30721   7.482   0.980   9.764
42905SOL    HW130722   7.489   1.024   9.849
42905SOL    HW230723  29.651  12.014  20.772
42906SOL     OW30724   6.111  10.662  10.547
42906SOL    HW130725  -4.984 -11.493  -0.512
42906SOL    HW230726   6.084 -11.351  10.483
42907SOL     OW30727   6.670   4.799   5.939
42907SOL    HW130728   6.590   4.764  28.057
42907SOL    HW230729   6.703   4.728   5.883
42908SOL     OW30730   9.882   2.872   0.749
42908SOL    HW130731   9.955  24.904  22.787
42908SOL    HW230732   9.830  24.882  22.870
42909SOL     OW30733   4.453   6.939   7.219
42909SOL    HW130734 -28.750   6.896   7.226
42909SOL    HW230735   4.438   7.015  -3.877
42910SOL     OW30736  -0.268   9.602   1.315
42910SOL    HW130737  -0.285   9.600   1.409
42910SOL    HW230738  10.687 -12.501  12.314
42911SOL     OW30739   1.494   8.107   1.084
42911SOL    HW130740   1.414   8.092   1.034
42911SOL    HW230741   1.466  19.203  12.196
42912SOL     OW30742  10.298   2.519   7.163
42912SOL    HW130743  -0.670   2.578  -3.852
42912SOL    HW230744  21.283  -8.469 -14.976
42913SOL     OW30745   2.204   2.925   6.208
42913SOL    HW130746 -19.866  14.027 -26.839
42913SOL    HW230747   2.113   2.933  -4.859
42914SOL     OW30748   8.537   3.079   3.958
42914SOL    HW130749  30.646  -7.982   4.046
42914SOL    HW230750   8.613   3.060   3.902
42915SOL     OW30751  10.631   7.756   4.274
42915SOL    HW130752  10.556   7.799  15.273
42915SOL    HW230753  -0.334   7.780   4.219
42916SOL     OW30754  -1.128   1.251   8.119
42916SOL    HW130755   9.905  12.196   8.106
42916SOL    HW230756   9.873   1.266  19.244
42917SOL     OW30757  10.858   1.845   0.382
42917SOL    HW130758  10.949   1.876   0.376
42917SOL    HW230759  10.865  12.795   0.416
42918SOL     OW30760  10.957   1.570   9.321
42918SOL    HW130761  11.034   1.513   9.316
42918SOL    HW230762  10.906  12.574   9.393
42919SOL     OW30763   0.813   7.290   9.821
42919SOL    HW130764 -10.150   7.247   9.859
42919SOL    HW230765   0.782  -3.812  -1.285
42920SOL     OW30766   7.045   6.595   3.148
42920SOL    HW130767   7.062   6.524   3.209
42920SOL    HW230768   6.950   6.597   3.139
42921SOL     OW30769  10.760   8.763   8.695
42921SOL    HW130770  10.764   8.713  19.653
42921SOL    HW230771  10.833   8.824   8.690
42922SOL     OW30772   2.943   5.777   2.683
42922SOL    HW130773  13.938   5.852   2.646
42922SOL    HW230774   2.901   5.701   2.643
42923SOL     OW30775   2.444  10.444  10.920
42923SOL    HW130776   2.417  10.371  10.865
42923SOL    HW230777  13.579  10.449  10.907
42924SOL     OW30778   7.104   7.250   0.482
42924SOL    HW130779   7.181   7.302  11.545
42924SOL    HW230780   7.030   7.302   0.513
42925SOL     OW30781   8.722   0.223   3.833
42925SOL    HW130782  19.761  11.356   3.855
42925SOL    HW230783   8.688   0.220  14.783
42926SOL     OW30784   8.794   9.250   3.552
42926SOL    HW130785   8.793  -1.839   3.470
42926SOL    HW230786   8.886   9.259   3.574
42927SOL     OW30787   2.972   6.954   2.240
42927SOL    HW130788   2.878   6.961   2.223
42927SOL    HW230789   2.979   6.953   2.335
42928SOL     OW30790   1.448   1.594   7.450
42928SOL    HW130791   1.423   1.638   7.368
42928SOL    HW230792 -20.703   1.535   7.469
42929SOL     OW30793   3.062   1.079   7.522
42929SOL    HW130794   3.102   1.001 -14.516
42929SOL    HW230795   3.105  45.311   7.565
42930SOL     OW30796   5.764   8.226   4.173
42930SOL    HW130797   5.810   8.142   4.181
42930SOL    HW230798   5.759   8.259   4.262
42931SOL     OW30799   2.411  10.132   1.319
42931SOL    HW130800   2.375  21.235   1.256
42931SOL    HW230801  -8.536  10.129   1.299
42932SOL     OW30802   9.242   5.422   1.914
42932SOL    HW130803   9.187  27.430   1.945
42932SOL    HW230804  20.364   5.380  12.929
42933SOL     OW30805   2.809   8.676   5.238
42933SOL    HW130806  24.937   8.621   5.300
42933SOL    HW230807  24.902   8.765   5.269
42934SOL     OW30808   5.845   4.548   2.521
42934SOL    HW130809 -49.314   4.590   2.598
42934SOL    HW230810 -16.328   4.557   2.534
42935SOL     OW30811  10.823   5.941   1.359
42935SOL    HW130812  -0.124   5.918   1.348
42935SOL    HW230813  10.808   5.939   1.453
42936SOL     OW30814   3.445   7.650  10.451
42936SOL    HW130815   3.391   7.594  21.546
42936SOL    HW230816  14.548  29.669 -11.667
42937SOL     OW30817   4.384   1.932   4.526
42937SOL    HW130818   4.309   1.914   4.584
42937SOL    HW230819   4.460 -20.157  -6.457
42938SOL     OW30820   2.378  10.104   1.588
42938SOL    HW130821  13.432  10.094   1.494
42938SOL    HW230822   2.441  10.170   1.616
42939SOL     OW30823   7.174   2.390  12.177
42939SOL    HW130824   7.190  13.448  12.270
42939SOL    HW230825  18.270 -19.627 -20.988
42940SOL     OW30826   1.237   7.393  -0.541
42940SOL    HW130827   1.255   7.486  -0.559
42940SOL    HW230828 -20.808  -3.660  21.627
42941SOL     OW30829   1.432   3.129   0.624
42941SOL    HW130830  12.536   3.060 -10.429
42941SOL    HW230831   1.419  -7.908   0.719
42942SOL     OW30832   9.041   6.693   4.188
42942SOL    HW130833  -1.919  17.785   4.194
42942SOL    HW230834   8.990   6.735   4.119
42943SOL     OW30835   0.070   3.827   5.148
42943SOL    HW130836   0.092   3.734  -5.896
42943SOL    HW230837   0.101   3.854   5.235
42944SOL     OW30838   8.237   8.769   7.648
42944SOL    HW130839   8.324  30.854   7.607
42944SOL    HW230840  -2.845   8.697   7.603
42945SOL     OW30841   2.351   6.197   7.088
42945SOL    HW130842  13.472   6.185  -3.999
42945SOL    HW230843   2.283  17.233   7.021
42946SOL     OW30844   4.258   9.442   2.851
42946SOL    HW130845   4.199   9.510  -8.155
42946SOL    HW230846   4.295 -12.599   2.771
42947SOL     OW30847   1.121   6.041  -0.289
42947SOL    HW130848   1.165  17.103  10.833
42947SOL    HW230849   1.041  17.036  32.857
42948SOL     OW30850   9.405   5.667   9.052
42948SOL    HW130851  -1.611   5.724   8.979
42948SOL    HW230852  -1.689   5.599   9.013
42949SOL     OW30853   7.048   0.090   7.227
42949SOL    HW130854  -3.988   0.009   7.175
42949SOL    HW230855   7.069   0.159   7.164
42950SOL     OW30856   7.365   3.278   0.083
42950SOL    HW130857   7.420   3.288   0.161
42950SOL    HW230858   7.330  25.268   0.090
42951SOL     OW30859   8.828   9.337   7.097
42951SOL    HW130860   8.753   9.351  18.079
42951SOL    HW230861   8.840   9.421   7.142
42952SOL     OW30862   4.330   5.805   2.304
42952SOL    HW130863  26.480   5.808   2.368
42952SOL    HW230864  -6.722   5.712   2.286
42953SOL     OW30865   0.885  11.906   2.930
42953SOL    HW130866   0.922 -10.248   2.883
42953SOL    HW230867   0.802   0.883   2.885
42954SOL     OW30868   6.925   5.576   3.527
42954SOL    HW130869  -4.044   5.614   3.475
42954SOL    HW230870   6.960   5.492   3.557
42955SOL     OW30871   8.087   0.487   0.611
42955SOL    HW130872   8.071   0.408   0.662
42955SOL    HW230873   8.072  11.499   0.520
42956SOL     OW30874   3.644   2.816   5.930
42956SOL    HW130875 -18.421   2.777 -16.235
42956SOL    HW230876   3.635   2.909   5.913
42957SOL     OW30877   3.546   3.495  -0.542
42957SOL    HW130878 -18.449   3.499  -0.496
42957SOL    HW230879   3.533   3.402  21.519
42958SOL     OW30880   5.889   1.259   2.081
42958SOL    HW130881   5.930   1.344   2.069
42958SOL    HW230882  -5.143   1.216   1.996
42959SOL     OW30883   5.280   9.636   4.414
42959SOL    HW130884   5.283  20.584   4.443
42959SOL    HW230885   5.297  -1.353   4.493
42960SOL     OW30886   5.300   1.973   8.265
42960SOL    HW130887  -5.758   1.892   8.311
42960SOL    HW230888  -5.689   2.025 -24.791
42961SOL     OW30889   7.788   4.353   2.290
42961SOL    HW130890   7.858  -6.637  13.371
42961SOL    HW230891  -3.330  15.414  -8.699
42962SOL     OW30892   0.910   3.228   0.879
42962SOL    HW130893   0.971   3.287 -10.206
42962SOL    HW230894   0.826  14.280   0.834
42963SOL     OW30895   7.993  10.470   7.187
42963SOL    HW130896   8.066  10.411  -3.866
42963SOL    HW230897  30.041  10.491   7.099
42964SOL     OW30898   3.939   4.328   0.904
42964SOL    HW130899   3.882   4.267   0.858
42964SOL    HW230900 -18.200   4.381   0.957
42965SOL     OW30901   6.212   7.717   9.094
42965SOL    HW130902 -37.996   7.796   9.117
42965SOL    HW230903   6.199   7.659   9.169
42966SOL     OW30904   1.787  11.059   6.727
42966SOL    HW130905  12.917  11.088   6.734
42966SOL    HW230906   1.751   0.070  28.732
42967SOL     OW30907   3.715   0.418   2.282
42967SOL    HW130908   3.622  55.625   2.301
42967SOL    HW230909   3.720   0.346   2.219
42968SOL     OW30910   0.923  10.017   5.914
42968SOL    HW130911 -10.172 -34.215   5.887
42968SOL    HW230912   0.985  -1.013  50.001
42969SOL     OW30913   4.471  -0.174   7.162
42969SOL    HW130914   4.481  10.865   7.066
42969SOL    HW230915   4.379  -0.153   7.176
42970SOL     OW30916   0.541   6.860   9.352
42970SOL    HW130917   0.587   6.929   9.303
42970SOL    HW230918  11.649   6.799   9.378
42971SOL     OW30919   2.611   1.716   9.250
42971SOL    HW130920   2.619   1.772  -1.712
42971SOL    HW230921   2.525  -9.302   9.214
42972SOL     OW30922   0.422   2.608   8.023
42972SOL    HW130923   0.457 -19.403   8.081
42972SOL    HW230924  44.650   2.544   8.016
42973SOL     OW30925   7.960   7.136   1.810
42973SOL    HW130926   7.888   7.097  -9.181
42973SOL    HW230927   7.918   7.193   1.745
42974SOL     OW30928   7.255   9.970   5.536
42974SOL    HW130929   7.191  10.012   5.592
42974SOL    HW230930   7.209  20.934   5.499
42975SOL     OW30931   8.841   3.717  10.005
42975SOL    HW130932  30.857   3.748  10.071
42975SOL    HW230933   8.919   3.770  21.059
42976SOL     OW30934   1.244   5.438   7.271
42976SOL    HW130935   1.164 -16.652   7.220
42976SOL    HW230936   1.231   5.380   7.346
42977SOL     OW30937   7.863   7.796   8.337
42977SOL    HW130938   7.776  18.843   8.296
42977SOL    HW230939   7.849  29.821   8.414
42978SOL     OW30940  11.667   4.948  11.566
42978SOL    HW130941 -21.516   5.002  11.613
42978SOL    HW230942  22.790  -6.070   0.567
42979SOL     OW30943   4.660   7.549   6.244
42979SOL    HW130944   4.656   7.455   6.262
42979SOL    HW230945   4.661   7.555   6.149
42980SOL     OW30946   5.538   9.042   7.772
42980SOL    HW130947   5.523   9.105  -3.197
42980SOL    HW230948   5.630   9.016  18.822
42981SOL     OW30949   4.451   3.233   0.106
42981SOL    HW130950  15.396   3.247  22.182
42981SOL    HW230951   4.464   3.148  11.105
42982SOL     OW30952  11.342   0.888   0.556
42982SOL    HW130953   0.333   0.967   0.513
42982SOL    HW230954  11.260   0.913   0.598
42983SOL     OW30955   6.397   5.646   8.413
42983SOL    HW130956  -4.699   5.585   8.365
42983SOL    HW230957   6.484   5.634   8.374
42984SOL     OW30958   4.489   2.518   0.897
42984SOL    HW130959   4.486   2.534   0.803
42984SOL    HW230960   4.577   2.545   0.923
42985SOL     OW30961   7.096   1.845  11.926
42985SOL    HW130962   7.054   1.924   0.855
42985SOL    HW230963  -3.888   1.815   0.814
42986SOL     OW30964   2.475  10.959   5.396
42986SOL    HW130965   2.511  -0.084   5.307
42986SOL    HW230966   2.398  11.016   5.388
42987SOL     OW30967   4.808   9.276   7.569
42987SOL    HW130968  37.834   9.295   7.559
42987SOL    HW230969   4.849 -12.760   7.494
42988SOL     OW30970   5.608   0.938   8.728
42988SOL    HW130971   5.588  33.966 -13.375
42988SOL    HW230972  -5.467  23.027   8.816
42989SOL     OW30973   2.037   5.490   1.392
42989SOL    HW130974   2.010   5.441   1.469
42989SOL    HW230975   1.960   5.491 -20.744
42990SOL     OW30976   1.111   7.355   4.526
42990SOL    HW130977   1.062  -3.669  26.524
42990SOL    HW230978  23.183   7.261  15.580
42991SOL     OW30979   1.638   7.999   3.928
42991SOL    HW130980  34.712   7.988   3.845
42991SOL    HW230981   1.609   7.925  15.021
42992SOL     OW30982   1.367   5.038   7.554
42992SOL    HW130983   1.423  16.000  40.666
42992SOL    HW230984   1.387   5.088   7.475
42993SOL     OW30985   2.789   7.416  10.434
42993SOL    HW130986   2.834   7.376  10.360
42993SOL    HW230987   2.726   7.477  10.395
42994SOL     OW30988   2.195  10.406   7.778
42994SOL    HW130989   2.220  10.381 -25.252
42994SOL    HW230990   2.099  10.406  -3.260
42995SOL     OW30991   7.213   9.002   0.885
42995SOL    HW130992   7.273  20.114   0.902
42995SOL    HW230993   7.270   8.928   0.864
42996SOL     OW30994   5.748   6.622   9.660
42996SOL    HW130995  -5.374   6.665  31.718
42996SOL    HW230996   5.815  39.791   9.615
42997SOL     OW30997   2.449   7.754   6.847
42997SOL    HW130998   2.514   7.783  -4.128
42997SOL    HW230999   2.498  18.784   6.766
42998SOL     OW31000   2.058   5.002   9.007
42998SOL    HW131001  24.198   5.069   9.037
42998SOL    HW231002   2.002 -17.032 -24.175
42999SOL     OW31003   0.322   1.069   3.299
42999SOL    HW131004   0.387   1.081  14.269
42999SOL    HW231005   0.308   1.156 -29.784
43000SOL     OW31006   4.224  11.479   7.623
43000SOL    HW131007  -6.798  11.402  18.609
43000SOL    HW231008   4.264   0.420  18.747
43001SOL     OW31009  10.956   6.622   3.821
43001SOL    HW131010  10.934   6.622   3.914
43001SOL    HW231011  11.032   6.565   3.814
43002SOL     OW31012   8.926  11.964   4.377
43002SOL    HW131013   9.011 -32.233   4.396
43002SOL    HW231014   8.916   0.995   4.441
43003SOL     OW31015   8.698   7.718   9.298
43003SOL    HW131016  -2.254 -14.357  20.299
43003SOL    HW231017   8.677   7.809  20.359
43004SOL     OW31018   4.507  10.783   1.174
43004SOL    HW131019  15.479  10.808   1.111
43004SOL    HW231020  15.626  10.826   1.142
43005SOL     OW31021   6.452   0.778  11.167
43005SOL    HW131022  -4.552   0.731  11.242
43005SOL    HW231023   6.380   0.830   0.163
43006SOL     OW31024   4.112   3.697   7.955
43006SOL    HW131025   4.101   3.749   7.875
43006SOL    HW231026   4.198   3.722  19.028
43007SOL     OW31027   1.144  12.016   2.832
43007SOL    HW131028  -9.978   1.024   2.819
43007SOL    HW231029   1.120 -10.155  13.863
43008SOL     OW31030  10.476   2.236   2.693
43008SOL    HW131031  10.530  24.360  13.668
43008SOL    HW231032  10.518   2.254  -8.262
43009SOL     OW31033   7.116   3.710   7.532
43009SOL    HW131034  18.140   3.758  29.530
43009SOL    HW231035  29.289   3.717   7.547
43010SOL     OW31036   3.937   8.489   6.894
43010SOL    HW131037  14.921   8.444   6.830
43010SOL    HW231038   4.017   8.510   6.845
43011SOL     OW31039   6.080  10.069   6.971
43011SOL    HW131040  39.274  10.127   6.959
43011SOL    HW231041   6.034  10.072  28.965
43012SOL     OW31042   3.697   8.230   4.092
43012SOL    HW131043   3.609   8.198  37.231
43012SOL    HW231044   3.707   8.308   4.147
43013SOL     OW31045  11.525   6.521   9.433
43013SOL    HW131046  11.599  -4.471   9.396
43013SOL    HW231047   0.494   6.534   9.528
43014SOL     OW31048  10.033   0.076   8.108
43014SOL    HW131049  10.114  11.158  30.219
43014SOL    HW231050 -12.031  -0.017   8.120
43015SOL     OW31051   6.186   6.152   7.941
43015SOL    HW131052   6.277   6.179   7.936
43015SOL    HW231053   6.156   6.186   8.026
43016SOL     OW31054   7.991   7.516   0.443
43016SOL    HW131055 -14.102   7.498   0.350
43016SOL    HW231056  -3.035  -3.610   0.483
43017SOL     OW31057   3.172   4.592   0.792
43017SOL    HW131058   3.130   4.670   0.829
43017SOL    HW231059   3.265 -17.466   0.789
43018SOL     OW31060   5.302   3.397   7.295
43018SOL    HW131061   5.260   3.350  29.301
43018SOL    HW231062   5.237   3.460 -14.755
43019SOL     OW31063   0.584   5.302   7.697
43019SOL    HW131064  22.636   5.224  -3.294
43019SOL    HW231065   0.508  16.366   7.645
43020SOL     OW31066   3.605   8.449   3.505
43020SOL    HW131067   3.640   8.457  -7.623
43020SOL    HW231068   3.645  19.408 -18.540
43021SOL     OW31069   0.834   8.915   7.838
43021SOL    HW131070   0.765   8.889   7.899
43021SOL    HW231071 -10.252   8.952  -3.276
43022SOL     OW31072   2.360  11.736   8.797
43022SOL    HW131073  13.464 -10.336   8.867
43022SOL    HW231074   2.406  11.692  -2.314
43023SOL     OW31075   9.417   3.829   7.506
43023SOL    HW131076   9.434   3.758  29.647
43023SOL    HW231077   9.355  -7.248 -14.636
43024SOL     OW31078   4.188   2.902  12.256
43024SOL    HW131079  15.209   2.969  -9.889
43024SOL    HW231080   4.221   2.951 -20.787
43025SOL     OW31081   1.213   8.054  10.548
43025SOL    HW131082   1.235   8.022  10.461
43025SOL    HW231083   1.138  -2.928  10.534
43026SOL     OW31084   7.913   9.801   3.598
43026SOL    HW131085   7.915   9.722   3.543
43026SOL    HW231086   7.824  -1.205   3.588
43027SOL     OW31087  -0.138   2.884   2.968
43027SOL    HW131088  10.837  -8.093   2.934
43027SOL    HW231089  32.999  -8.126   3.057
43028SOL     OW31090   8.299   4.105   5.898
43028SOL    HW131091   8.350   4.171   5.851
43028SOL    HW231092   8.210   4.116 -16.214
43029SOL     OW31093   6.933   4.141   6.843
43029SOL    HW131094   7.001  15.168  40.028
43029SOL    HW231095  17.988  15.270   6.810
43030SOL     OW31096   3.439   0.682   1.988
43030SOL    HW131097   3.381   0.627   2.042
43030SOL    HW231098   3.396   0.767  35.106
43031SOL     OW31099   8.514  12.443   2.356
43031SOL    HW131100   8.445 -20.628  13.442
43031SOL    HW231101  19.561  -9.719   2.403
43032SOL     OW31102   7.159   3.673   9.856
43032SOL    HW131103   7.104  -7.300   9.897
43032SOL    HW231104   7.189   3.618 -23.190
43033SOL     OW31105   6.803   9.270   2.248
43033SOL    HW131106   6.850   9.321   2.313
43033SOL    HW231107  17.891   9.284  13.206
43034SOL     OW31108   8.721   0.821   7.738
43034SOL    HW131109  19.801   0.839  -3.217
43034SOL    HW231110   8.735   0.727   7.724
43035SOL     OW31111   5.764   4.259   8.610
43035SOL    HW131112   5.775  15.237   8.538
43035SOL    HW231113   5.758   4.345   8.568
43036SOL     OW31114   4.225   0.937   4.425
43036SOL    HW131115   4.182 -10.063   4.502
43036SOL    HW231116   4.162   0.873  48.551
43037SOL     OW31117   6.358   7.746   6.917
43037SOL    HW131118   6.397   7.670   6.960
43037SOL    HW231119   6.265   7.742   6.941
43038SOL     OW31120   9.482   1.368  -1.506
43038SOL    HW131121  20.520 -20.680  31.702
43038SOL    HW231122   9.575   1.357  -1.526
43039SOL     OW31123   1.656   5.628   0.419
43039SOL    HW131124   1.683   5.717  11.435
43039SOL    HW231125  -9.416   5.637   0.509
43040SOL     OW31126   7.681   4.352  -0.246
43040SOL    HW131127  -3.430   4.382  -0.191
43040SOL    HW231128  18.722   4.257  10.805
43041SOL     OW31129   9.431   3.005   5.149
43041SOL    HW131130   9.464  36.123  49.397
43041SOL    HW231131  20.386  -8.080   5.154
43042SOL     OW31132   2.165   5.236   6.869
43042SOL    HW131133   2.161   5.326   6.836
43042SOL    HW231134  -8.842   5.244   6.958
43043SOL     OW31135  10.066   3.083   9.546
43043SOL    HW131136  -0.976   3.096   9.452
43043SOL    HW231137  10.122  -7.886   9.579
43044SOL     OW31138   2.584   2.944   4.124
43044SOL    HW131139   2.553  -8.156   4.191
43044SOL    HW231140   2.584  14.069   4.166
43045SOL     OW31141   5.698   1.290   4.065
43045SOL    HW131142   5.658  12.405   4.109
43045SOL    HW231143   5.735   1.238   4.137
43046SOL     OW31144   6.840   9.685   3.798
43046SOL    HW131145   6.859  20.632  14.852
43046SOL    HW231146  39.885   9.704  14.896
43047SOL     OW31147  11.063   1.560   3.641
43047SOL    HW131148 -11.046 -20.550   3.555
43047SOL    HW231149  10.993   1.534  14.740
43048SOL     OW31150   5.325   0.562   6.304
43048SOL    HW131151  49.448   0.624  39.487
43048SOL    HW231152  27.493   0.545 -15.746
43049SOL     OW31153   3.121   1.623   4.791
43049SOL    HW131154   3.074   1.661   4.865
43049SOL    HW231155   3.101  -9.510   4.795
43050SOL     OW31156   8.816   2.765   2.716
43050SOL    HW131157   8.770   2.833   2.667
43050SOL    HW231158  -2.132  -8.249  -8.327
43051SOL     OW31159   7.675   3.629   1.500
43051SOL    HW131160   7.761   3.607   1.465
43051SOL    HW231161   7.628   3.668   1.426
43052SOL     OW31162   6.424  11.385   1.944
43052SOL    HW131163   6.449  11.296   1.969
43052SOL    HW231164   6.393   0.338   1.854
43053SOL     OW31165   7.672   8.059   2.114
43053SOL    HW131166   7.668   8.121   2.187
43053SOL    HW231167   7.765   8.056  13.129
43054SOL     OW31168   0.015  -1.091   7.148
43054SOL    HW131169  -0.072   9.951  40.305
43054SOL    HW231170   0.073  32.062   7.216
43055SOL     OW31171  10.729   7.109   6.922
43055SOL    HW131172  10.644   7.078   6.892
43055SOL    HW231173  10.776  18.069  -4.093
43056SOL     OW31174   4.816   3.843   6.444
43056SOL    HW131175   4.722   3.832   6.457
43056SOL    HW231176  -6.192   3.880   6.526
43057SOL     OW31177   1.763   7.411   9.077
43057SOL    HW131178  23.866   7.448  42.281
43057SOL    HW231179   1.708   7.336   9.098
43058SOL     OW31180   8.802   2.798   4.164
43058SOL    HW131181   8.836   2.716  15.241
43058SOL    HW231182   8.794   2.779   4.070
43059SOL     OW31183   4.337   2.230   5.364
43059SOL    HW131184  15.454   2.285   5.360
43059SOL    HW231185   4.265  35.408   5.385
43060SOL     OW31186   8.067   5.689   5.169
43060SOL    HW131187   7.997   5.743   5.132
43060SOL    HW231188   8.042  38.795   5.261
43061SOL     OW31189  11.687  12.029   0.519
43061SOL    HW131190 -10.324  11.975   0.478
43061SOL    HW231191   0.568 -10.071   0.469
43062SOL     OW31192   4.186   9.133   0.084
43062SOL    HW131193   4.107  20.187   0.136
43062SOL    HW231194   4.225 -24.066   0.121
43063SOL     OW31195  10.295   9.074  -0.725
43063SOL    HW131196  10.247   9.075  -0.643
43063SOL    HW231197  10.355   9.148  32.399
43064SOL     OW31198   9.256   2.526   5.971
43064SOL    HW131199   9.287   2.616   5.967
43064SOL    HW231200   9.327   2.479   6.015
43065SOL     OW31201   2.621  10.761   8.412
43065SOL    HW131202   2.529  -0.300   8.422
43065SOL    HW231203   2.631  10.845   8.457
43066SOL     OW31204  11.014   1.012   8.785
43066SOL    HW131205  10.973   0.962   8.714
43066SOL    HW231206  11.107   1.011 -13.315
43067SOL     OW31207   1.573   5.032   1.192
43067SOL    HW131208   1.622   5.048   1.273
43067SOL    HW231209   1.621   5.081   1.125
43068SOL     OW31210   5.074   5.854   2.136
43068SOL    HW131211   5.024   5.836   2.057
43068SOL    HW231212  27.091   5.901   2.193
43069SOL     OW31213   5.616   5.358  12.401
43069SOL    HW131214   5.521  -5.689 -20.705
43069SOL    HW231215   5.633   5.452  -9.675
43070SOL     OW31216   1.933   8.171   8.618
43070SOL    HW131217   1.981   8.136  -2.497
43070SOL    HW231218   1.972   8.128   8.694
43071SOL     OW31219   1.687  -0.218  10.197
43071SOL    HW131220   1.777  -0.249 -11.879
43071SOL    HW231221   1.635  10.742  10.185
43072SOL     OW31222   1.814   8.351   3.822
43072SOL    HW131223   1.741   8.323   3.877
43072SOL    HW231224  -9.150 -13.730   3.879
43073SOL     OW31225   1.846   2.350  10.858
43073SOL    HW131226   1.871  -8.770  10.903
43073SOL    HW231227  23.832   2.339  10.839
43074SOL     OW31228   7.820   6.247   8.370
43074SOL    HW131229  18.845   6.293   8.287
43074SOL    HW231230   7.733   6.226  30.481
43075SOL     OW31231   4.827   2.126   6.900
43075SOL    HW131232   4.889  -8.888   6.831
43075SOL    HW231233  26.854  13.096   6.860
43076SOL     OW31234   7.768   1.421   3.652
43076SOL    HW131235   7.856   1.417   3.691
43076SOL    HW231236   7.710   1.392   3.722
43077SOL     OW31237  10.109   5.978  10.053
43077SOL    HW131238  10.118  -5.039  10.146
43077SOL    HW231239  10.015  17.002  21.081
43078SOL     OW31240   1.579   5.361   4.874
43078SOL    HW131241   1.507   5.397   4.925
43078SOL    HW231242  12.581   5.286   4.829
43079SOL     OW31243   0.580   7.053   6.211
43079SOL    HW131244   0.503   7.022  -4.877
43079SOL    HW231245   0.571   7.013  -4.742
43080SOL     OW31246  10.332   6.823   0.220
43080SOL    HW131247  10.262  -4.231   0.284
43080SOL    HW231248  10.303  -4.264   0.143
43081SOL     OW31249   4.261   7.205  10.938
43081SOL    HW131250   4.222   7.272  10.994
43081SOL    HW231251   4.220   7.218  10.853
43082SOL     OW31252  10.410  10.412   5.834
43082SOL    HW131253  10.469  10.441 -27.215
43082SOL    HW231254  21.494  10.433   5.753
43083SOL     OW31255   9.482   0.094   4.734
43083SOL    HW131256  31.637   0.133   4.776
43083SOL    HW231257   9.498   0.107   4.640
43084SOL     OW31258  12.310   3.354   6.901
43084SOL    HW131259  -9.860   3.333  17.920
43084SOL    HW231260  -9.774   3.434   6.953
43085SOL     OW31261   9.271   9.081   6.681
43085SOL    HW131262 -12.717   9.054  17.716
43085SOL    HW231263   9.259  20.178  17.645
43086SOL     OW31264   6.875   4.376   3.876
43086SOL    HW131265   6.911 -17.709   3.788
43086SOL    HW231266  17.831 -17.750   3.870
43087SOL     OW31267   1.222   9.181   3.001
43087SOL    HW131268   1.306   9.141  25.101
43087SOL    HW231269   1.236  -1.764   3.012
43088SOL     OW31270   3.821   6.509   8.782
43088SOL    HW131271   3.770   6.435  19.855
43088SOL    HW231272  25.927   6.482  19.734
43089SOL     OW31273   9.505   5.288   8.298
43089SOL    HW131274   9.576   5.351 -24.809
43089SOL    HW231275   9.541   5.223  -2.802
43090SOL     OW31276   0.935   6.898   3.161
43090SOL    HW131277  12.012   6.979   3.124
43090SOL    HW231278  11.957   6.843   3.085
43091SOL     OW31279   8.919   0.838   1.825
43091SOL    HW131280  19.932   0.809   1.912
43091SOL    HW231281   8.900   0.932  12.863
43092SOL     OW31282   7.038   8.262   1.020
43092SOL    HW131283  -3.986  -2.684   1.036
43092SOL    HW231284   7.082   8.244   0.937
43093SOL     OW31285   5.236  11.024  10.534
43093SOL    HW131286   5.210  10.965  -0.577
43093SOL    HW231287  16.211  11.094 -11.546
43094SOL     OW31288   8.904   7.740   7.010
43094SOL    HW131289   8.848   7.818   7.009
43094SOL    HW231290  20.020   7.765  -4.081
43095SOL     OW31291   5.162   3.189   2.221
43095SOL    HW131292  27.193   3.251   2.277
43095SOL    HW231293   5.100  14.157   2.206
43096SOL     OW31294  10.164   8.915   4.233
43096SOL    HW131295  10.146   9.009  26.301
43096SOL    HW231296  10.142   8.898  15.364
43097SOL     OW31297   1.748   7.129   5.446
43097SOL    HW131298  12.782  -4.001   5.478
43097SOL    HW231299  23.918   7.138  16.455
43098SOL     OW31300   5.643  10.453   3.290
43098SOL    HW131301   5.595  10.432   3.370
43098SOL    HW231302   5.734  10.459   3.318
43099SOL     OW31303   2.473   0.491   4.384
43099SOL    HW131304   2.554  33.633  26.420
43099SOL    HW231305   2.446  22.488   4.343
43100SOL     OW31306   4.986   1.723   9.218
43100SOL    HW131307   4.928   1.732   9.142
43100SOL    HW231308   5.071   1.752   9.186
43101SOL     OW31309   5.575   7.313   4.770
43101SOL    HW131310   5.588   7.380 -17.242
43101SOL    HW231311 -16.549   7.242   4.816
43102SOL     OW31312   2.939   0.219   1.469
43102SOL    HW131313  13.986   0.274   1.547
43102SOL    HW231314  36.005   0.144   1.496
43103SOL     OW31315   7.634   8.474   8.966
43103SOL    HW131316  -3.488   8.521   8.952
43103SOL    HW231317   7.609   8.382   8.966
43104SOL     OW31318   3.978  10.389   8.394
43104SOL    HW131319   3.955 -11.737   8.314
43104SOL    HW231320  -7.027  10.473  19.404
43105SOL     OW31321   8.482   0.849   6.068
43105SOL    HW131322   8.441   0.788   6.006
43105SOL    HW231323   8.427 -10.193 -26.973
43106SOL     OW31324  10.645  -0.476  10.332
43106SOL    HW131325  10.715  10.503  10.307
43106SOL    HW231326  10.681  -0.425  10.404
43107SOL     OW31327   1.145   4.296   9.861
43107SOL    HW131328   1.220 -28.881   9.851
43107SOL    HW231329   1.178  -6.669   9.911
43108SOL     OW31330   8.935   0.231   1.039
43108SOL    HW131331  30.950   0.264   0.976
43108SOL    HW231332   9.012   0.285  12.065
43109SOL     OW31333   6.289  10.397   4.247
43109SOL    HW131334  17.323  10.395   4.342
43109SOL    HW231335   6.210  10.444  26.298
43110SOL     OW31336   0.422  10.236   7.174
43110SOL    HW131337   0.499  10.287  -3.893
43110SOL    HW231338   0.458  10.152  29.280
43111SOL     OW31339   2.404  10.010   0.724
43111SOL    HW131340   2.432  10.028   0.635
43111SOL    HW231341   2.472   9.952   0.760
43112SOL     OW31342   9.326   1.162   4.265
43112SOL    HW131343 -12.772   1.068   4.260
43112SOL    HW231344   9.367   1.183   4.181
43113SOL     OW31345   4.043   6.760  11.386
43113SOL    HW131346   4.059   6.763   0.252
43113SOL    HW231347 -18.107   6.697  11.396
43114SOL     OW31348   1.517   8.615  11.484
43114SOL    HW131349   1.514   8.665  11.402
43114SOL    HW231350  12.544   8.681   0.513
43115SOL     OW31351   1.166   6.003   3.678
43115SOL    HW131352   1.255  17.054  -7.327
43115SOL    HW231353   1.129  16.972   3.732
43116SOL     OW31354   0.507   8.882   9.698
43116SOL    HW131355   0.600   8.900   9.713
43116SOL    HW231356   0.493  30.873   9.731
43117SOL     OW31357   6.095  11.861  11.361
43117SOL    HW131358  17.175  11.776  11.345
43117SOL    HW231359   6.129 -10.191 -21.672
43118SOL     OW31360   9.816   3.624   8.176
43118SOL    HW131361   9.910   3.625  19.230
43118SOL    HW231362  -1.234  14.676   8.082
43119SOL     OW31363   2.288   5.625   2.355
43119SOL    HW131364   2.281   5.674  -8.766
43119SOL    HW231365   2.201  27.664 -19.713
43120SOL     OW31366   2.872   0.737  11.836
43120SOL    HW131367   2.946   0.722  11.895
43120SOL    HW231368   2.802  22.762 -10.208
43121SOL     OW31369   2.815  10.476   8.047
43121SOL    HW131370  24.890  10.380   8.043
43121SOL    HW231371   2.885  10.493  -2.929
43122SOL     OW31372   3.780   2.525   2.882
43122SOL    HW131373 -18.369   2.508  -8.220
43122SOL    HW231374  -7.206  13.632  13.880
43123SOL     OW31375   7.653   0.397   9.434
43123SOL    HW131376  -3.431   0.410   9.350
43123SOL    HW231377   7.735   0.353  20.451
43124SOL     OW31378   8.994   5.860   8.302
43124SOL    HW131379   9.033  16.896   8.215
43124SOL    HW231380   8.970  27.848   8.322
43125SOL     OW31381   6.286  11.502  11.126
43125SOL    HW131382   6.334 -10.659   0.096
43125SOL    HW231383   6.199  11.476  11.095
43126SOL     OW31384   8.877   7.063   7.415
43126SOL    HW131385   8.916  51.224   7.328
43126SOL    HW231386  19.869  29.059  18.457
43127SOL     OW31387   3.382  12.151  10.454
43127SOL    HW131388  14.466  12.195  -0.513
43127SOL    HW231389   3.291  -9.900  10.460
43128SOL     OW31390   0.969   7.109   4.818
43128SOL    HW131391   1.041   7.095  -6.283
43128SOL    HW231392   1.012   7.138   4.898
43129SOL     OW31393   0.390   0.054   3.534
43129SOL    HW131394   0.470   0.035  14.526
43129SOL    HW231395   0.351   0.128   3.486
43130SOL     OW31396   1.996   7.138   7.589
43130SOL    HW131397   1.946   7.196   7.646
43130SOL    HW231398  -9.108   7.099   7.531
43131SOL     OW31399   3.667  10.346   6.099
43131SOL    HW131400   3.677 -22.776   6.194
43131SOL    HW231401  14.796  -0.682  28.144
43132SOL     OW31402   6.685   8.454   1.691
43132SOL    HW131403   6.715   8.528   1.638
43132SOL    HW231404   6.592  19.484   1.670
43133SOL     OW31405   6.888   4.588   8.206
43133SOL    HW131406  17.908   4.538   8.285
43133SOL    HW231407   6.803   4.624   8.179
43134SOL     OW31408   9.303  11.415   1.657
43134SOL    HW131409   9.346  11.499   1.641
43134SOL    HW231410   9.349   0.339  12.772
43135SOL     OW31411   5.708   9.507  -0.598
43135SOL    HW131412   5.624   9.517  21.437
43135SOL    HW231413   5.717   9.586  10.495
43136SOL     OW31414   5.953   6.457   9.753
43136SOL    HW131415  16.989   6.390   9.685
43136SOL    HW231416   5.888  17.561   9.726
43137SOL     OW31417   3.369   9.337   0.030
43137SOL    HW131418  14.497   9.315  22.082
43137SOL    HW231419   3.379   9.405  11.136
43138SOL     OW31420   1.163   2.756   3.425
43138SOL    HW131421   1.091  24.783  -7.579
43138SOL    HW231422   1.184 -19.365   3.342
43139SOL     OW31423   3.385   1.679   4.852
43139SOL    HW131424   3.294  12.702   4.828
43139SOL    HW231425   3.388   1.773  26.950
43140SOL     OW31426   4.621   9.078   8.771
43140SOL    HW131427   4.566   9.033   8.835
43140SOL    HW231428   4.570   9.077   8.690
43141SOL     OW31429   2.322   8.387   0.881
43141SOL    HW131430   2.408   8.416   0.913
43141SOL    HW231431   2.271   8.372   0.960
43142SOL     OW31432  10.355   7.569   8.364
43142SOL    HW131433  10.420   7.569   8.435
43142SOL    HW231434  21.356  40.600  52.525
43143SOL     OW31435   4.295  10.251   1.729
43143SOL    HW131436  37.468  10.298   1.667
43143SOL    HW231437   4.352  10.183   1.766
43144SOL     OW31438   0.605  10.102   3.584
43144SOL    HW131439   0.638  -0.867   3.529
43144SOL    HW231440   0.675  10.037   3.586
43145SOL     OW31441   8.677   4.609   4.474
43145SOL    HW131442  19.680  15.705   4.407
43145SOL    HW231443  19.642   4.561   4.509
43146SOL     OW31444   8.478   6.560   9.261
43146SOL    HW131445   8.573  28.641   9.268
43146SOL    HW231446   8.448   6.550  -1.688
43147SOL     OW31447   7.877   4.693   8.762
43147SOL    HW131448   7.890   4.624   8.697
43147SOL    HW231449 -14.261 -17.324   8.721
43148SOL     OW31450   8.214   6.082   2.471
43148SOL    HW131451   8.290   6.023 -19.603
43148SOL    HW231452   8.252   6.169   2.482
43149SOL     OW31453   4.332   8.907   6.243
43149SOL    HW131454   4.361   8.962   6.170
43149SOL    HW231455 -28.870  19.910   6.213
43150SOL     OW31456   0.498   5.275   3.948
43150SOL    HW131457   0.545   5.192  26.022
43150SOL    HW231458   0.475   5.284   4.041
43151SOL     OW31459   3.210   5.673   3.945
43151SOL    HW131460   3.188   5.691   4.036
43151SOL    HW231461   3.140   5.714   3.894
43152SOL     OW31462   6.117   0.741   6.322
43152SOL    HW131463   6.035   0.791   6.324
43152SOL    HW231464   6.125 -10.334   6.411
43153SOL     OW31465   5.963  -0.468   2.179
43153SOL    HW131466   5.986  -0.484   2.088
43153SOL    HW231467 -16.145  21.526   2.212
43154SOL     OW31468  10.565   0.673   6.897
43154SOL    HW131469  10.516   0.635  28.903
43154SOL    HW231470  10.656  11.688   6.880
43155SOL     OW31471  10.920   1.066  10.772
43155SOL    HW131472  10.894   0.975  10.780
43155SOL    HW231473  10.858   1.103  10.709
43156SOL     OW31474   8.742   2.473   1.727
43156SOL    HW131475   8.774   2.542  12.824
43156SOL    HW231476   8.676   2.427   1.779
43157SOL     OW31477   9.316   9.423   2.102
43157SOL    HW131478  -1.673  -1.564   2.163
43157SOL    HW231479   9.293   9.482  13.071
43158SOL     OW31480   7.043   2.854   5.637
43158SOL    HW131481   6.957   2.888   5.614
43158SOL    HW231482  18.140   2.930  27.719
43159SOL     OW31483   5.342   5.592   2.636
43159SOL    HW131484   5.370   5.599   2.728
43159SOL    HW231485   5.411  27.618   2.595
43160SOL     OW31486   0.848   5.395   9.835
43160SOL    HW131487   0.898   5.314   9.834
43160SOL    HW231488   0.811  16.440  20.962
43161SOL     OW31489   4.274   5.561   2.200
43161SOL    HW131490   4.183   5.576   2.227
43161SOL    HW231491   4.281   5.606  -8.924
43162SOL     OW31492   0.174   5.032   3.963
43162SOL    HW131493  11.280 -17.115  -7.067
43162SOL    HW231494  11.248  -5.949  -7.144
43163SOL     OW31495   6.189   3.805   3.274
43163SOL    HW131496   6.094  14.855  25.348
43163SOL    HW231497   6.202  14.751   3.290
43164SOL     OW31498   2.769  11.491   1.936
43164SOL    HW131499   2.796   0.511   2.005
43164SOL    HW231500 -19.326  11.547   1.860
43165SOL     OW31501   3.747   6.402   2.907
43165SOL    HW131502   3.825  17.390 -19.195
43165SOL    HW231503 -29.435   6.381  -8.202
43166SOL     OW31504  -1.053   0.447   2.777
43166SOL    HW131505  10.036  33.483  -8.269
43166SOL    HW231506  20.963  11.482  13.744
43167SOL     OW31507   7.529   3.308   4.095
43167SOL    HW131508   7.483   3.289   4.177
43167SOL    HW231509   7.620   3.285 -17.967
43168SOL     OW31510   6.714  11.199  10.450
43168SOL    HW131511   6.648   0.172 -11.697
43168SOL    HW231512   6.770   0.089  10.416
43169SOL     OW31513   6.480   9.018  10.277
43169SOL    HW131514   6.561   9.002 -11.851
43169SOL    HW231515  17.526   9.110  10.304
43170SOL     OW31516   1.850   8.930   6.627
43170SOL    HW131517   1.860   8.851  17.720
43170SOL    HW231518  23.996   8.990  17.700
43171SOL     OW31519   5.883   5.914   8.401
43171SOL    HW131520  -5.085  28.001   8.464
43171SOL    HW231521   5.924  16.968   8.316
43172SOL     OW31522   1.469  10.984   3.073
43172SOL    HW131523   1.528  10.986   2.998
43172SOL    HW231524   1.383  11.004   3.037
43173SOL     OW31525   0.848   3.721  11.033
43173SOL    HW131526   0.900   3.777  -0.064
43173SOL    HW231527   0.816 -18.299  22.141
43174SOL     OW31528   9.065  11.594   8.938
43174SOL    HW131529   9.017  11.652   8.879
43174SOL    HW231530   9.154   0.551   8.903
43175SOL     OW31531   2.980   9.405   9.776
43175SOL    HW131532   2.941  20.483   9.854
43175SOL    HW231533  -7.970   9.383  20.843
43176SOL     OW31534   6.948   7.727   2.821
43176SOL    HW131535   6.856   7.732   2.848
43176SOL    HW231536   6.981   7.817   2.832
43177SOL     OW31537   5.390   9.134   0.791
43177SOL    HW131538   5.367   9.077   0.864
43177SOL    HW231539  27.496   9.216  11.871
43178SOL     OW31540   9.760   3.277   1.818
43178SOL    HW131541  20.851  -7.732   1.743
43178SOL    HW231542   9.822  14.267  12.910
43179SOL     OW31543   9.900  12.060   6.785
43179SOL    HW131544   9.925 -21.144   6.821
43179SOL    HW231545   9.808  12.050   6.760
43180SOL     OW31546   6.004   9.273   5.184
43180SOL    HW131547   5.982   9.355   5.228
43180SOL    HW231548   6.073   9.235   5.237
43181SOL     OW31549   3.939   8.931   5.386
43181SOL    HW131550  26.047   8.841   5.369
43181SOL    HW231551  -7.109   8.970 -16.780
43182SOL     OW31552   9.158   3.004   1.963
43182SOL    HW131553   9.194   2.936   2.020
43182SOL    HW231554   9.076   2.967   1.931
43183SOL     OW31555   5.960   0.300   5.082
43183SOL    HW131556   6.051   0.330   5.090
43183SOL    HW231557   5.909  22.445   5.128
43184SOL     OW31558   4.360   9.386   6.031
43184SOL    HW131559   4.347  20.365   6.104
43184SOL    HW231560   4.306   9.462   6.053
43185SOL     OW31561   4.253   1.297   7.645
43185SOL    HW131562   4.312  12.322   7.718
43185SOL    HW231563   4.303  12.390   7.583
43186SOL     OW31564   3.612   6.603   9.605
43186SOL    HW131565   3.685   6.604   9.667
43186SOL    HW231566   3.565   6.684   9.622
43187SOL     OW31567   6.383   8.859   2.948
43187SOL    HW131568  -4.582  -2.135   2.910
43187SOL    HW231569  17.460   8.790   3.002
43188SOL     OW31570  10.475   5.139   2.349
43188SOL    HW131571  10.489  16.273  13.381
43188SOL    HW231572  10.436   5.114  -8.774
43189SOL     OW31573   6.529   7.260   5.449
43189SOL    HW131574   6.491   7.324   5.510
43189SOL    HW231575  -4.473   7.193  16.546
43190SOL     OW31576  -0.829  -2.135   6.699
43190SOL    HW131577  21.313  42.095   6.711
43190SOL    HW231578  10.234  -2.199  17.805
43191SOL     OW31579   2.983   4.123   5.495
43191SOL    HW131580   3.067   4.107 -16.542
43191SOL    HW231581  -8.108   4.168   5.562
43192SOL     OW31582   3.143   4.889   6.552
43192SOL    HW131583   3.206  27.033   6.523
43192SOL    HW231584  14.126   4.874  -4.563
43193SOL     OW31585   5.371   8.112   1.572
43193SOL    HW131586   5.464   8.111  23.628
43193SOL    HW231587   5.332  19.083  23.597
43194SOL     OW31588   1.108  11.293   6.457
43194SOL    HW131589  12.120  11.201   6.462
43194SOL    HW231590   1.165 -10.773  28.611
43195SOL     OW31591   2.262   0.186   2.688
43195SOL    HW131592  13.377  11.257   2.639
43195SOL    HW231593   2.223   0.119   2.632
43196SOL     OW31594   1.593   0.143   2.272
43196SOL    HW131595   1.594  11.279   2.265
43196SOL    HW231596   1.671   0.115   2.225
43197SOL     OW31597   5.635   7.552   0.520
43197SOL    HW131598 -16.383   7.597   0.463
43197SOL    HW231599   5.648  -3.448  11.646
43198SOL     OW31600   1.446   3.679   8.252
43198SOL    HW131601  -9.509   3.668   8.296
43198SOL    HW231602   1.455   3.760   8.202
43199SOL     OW31603   2.559   3.406   3.883
43199SOL    HW131604   2.597   3.442 -18.117
43199SOL    HW231605   2.564   3.311 -18.185
43200SOL     OW31606   5.972   1.356   0.198
43200SOL    HW131607   6.009  12.325   0.250
43200SOL    HW231608   5.877   1.347   0.207
43201SOL     OW31609   3.473  12.625   6.238
43201SOL    HW131610  25.507   1.501   6.235
43201SOL    HW231611  25.638  -9.474   6.276
43202SOL     OW31612   5.196   7.871   6.719
43202SOL    HW131613  16.177   7.811 -15.312
43202SOL    HW231614   5.166  -3.174   6.628
43203SOL     OW31615   6.009   4.501   7.906
43203SOL    HW131616   5.951  -6.611   7.881
43203SOL    HW231617 -16.115  -6.460  -3.164
43204SOL     OW31618  -0.134   2.459  11.158
43204SOL    HW131619  -0.123 -19.547  11.096
43204SOL    HW231620  10.989  -8.586   0.164
43205SOL     OW31621   9.514   8.648   5.451
43205SOL    HW131622   9.429   8.692   5.454
43205SOL    HW231623  20.535   8.562   5.413
43206SOL     OW31624   7.840  10.288   3.013
43206SOL    HW131625  18.918  10.231   2.946
43206SOL    HW231626  -3.290  10.302  14.022
43207SOL     OW31627   5.867   4.912   3.348
43207SOL    HW131628   5.928   4.964  -7.638
43207SOL    HW231629  -5.198  -6.069   3.277
43208SOL     OW31630  11.486   2.495  12.241
43208SOL    HW131631  11.537  13.610  -9.869
43208SOL    HW231632   0.390   2.473  12.167
43209SOL     OW31633   3.507   4.235  10.991
43209SOL    HW131634  -7.569   4.263  11.075
43209SOL    HW231635 -18.532   4.150  11.009
43210SOL     OW31636   9.954  10.212   9.484
43210SOL    HW131637   9.988  10.271   9.551
43210SOL    HW231638  21.054  10.221   9.410
43211SOL     OW31639   7.464   3.943   4.225
43211SOL    HW131640   7.535  -7.035   4.242
43211SOL    HW231641   7.392   3.972   4.282
43212SOL     OW31642   6.161   4.815   0.776
43212SOL    HW131643   6.200   4.728   0.781
43212SOL    HW231644   6.092   4.814   0.843
43213SOL     OW31645   8.816   5.499  10.563
43213SOL    HW131646   8.831  16.444  10.563
43213SOL    HW231647   8.848   5.529  10.479
43214SOL     OW31648   6.141   3.239   5.480
43214SOL    HW131649   6.086   3.175   5.435
43214SOL    HW231650   6.079   3.305   5.512
43215SOL     OW31651   3.479  10.782   7.115
43215SOL    HW131652   3.527  10.825   7.045
43215SOL    HW231653  14.577 -11.366   7.146
43216SOL     OW31654   2.399   7.169   0.522
43216SOL    HW131655   2.491  -3.856   0.540
43216SOL    HW231656   2.380 -25.892  11.487
43217SOL     OW31657   4.928   7.597  10.844
43217SOL    HW131658   4.998   7.640  10.795
43217SOL    HW231659   4.851   7.651  -0.211
43218SOL     OW31660   0.530   9.662   3.100
43218SOL    HW131661   0.563   9.744   3.063
43218SOL    HW231662   0.435 -12.407   3.102
43219SOL     OW31663   2.634   9.827  10.771
43219SOL    HW131664   2.629   9.860  10.860
43219SOL    HW231665   2.644  -1.134  10.717
43220SOL     OW31666   6.931   2.389   4.458
43220SOL    HW131667  -4.168   2.439  15.554
43220SOL    HW231668   7.018   2.405   4.495
43221SOL     OW31669   7.554   9.078   8.830
43221SOL    HW131670   7.537   9.153   8.887
43221SOL    HW231671   7.647   9.087   8.807
43222SOL     OW31672   8.628   4.781   7.425
43222SOL    HW131673   8.704  -6.303   7.461
43222SOL    HW231674   8.604   4.846   7.492
43223SOL     OW31675   8.831  11.222  10.082
43223SOL    HW131676  19.796   0.130  -0.925
43223SOL    HW231677   8.827  11.213  -1.053
43224SOL     OW31678   8.870   5.661   7.537
43224SOL    HW131679   8.790   5.630  -3.459
43224SOL    HW231680   8.941  -5.414   7.590
43225SOL     OW31681   6.865   2.396   7.837
43225SOL    HW131682   6.814  -8.719   7.807
43225SOL    HW231683  17.850  -8.602   7.903
43226SOL     OW31684   8.852   9.218   4.818
43226SOL    HW131685  30.890   9.278  26.959
43226SOL    HW231686   8.897   9.275   4.755
43227SOL     OW31687  10.969  11.294   8.036
43227SOL    HW131688  10.927 -21.796  41.236
43227SOL    HW231689  11.052 -10.824   8.064
43228SOL     OW31690   5.999   9.682   4.623
43228SOL    HW131691 -16.134   9.716   4.552
43228SOL    HW231692   6.040  -1.280   4.662
43229SOL     OW31693   0.997   9.708   2.712
43229SOL    HW131694  12.040  -1.416  13.707
43229SOL    HW231695   0.906  -1.323   2.742
43230SOL     OW31696   5.861   8.538   9.866
43230SOL    HW131697  -5.160 -13.618   9.811
43230SOL    HW231698   5.806 -13.575  -1.104
43231SOL     OW31699   0.283   8.405   3.163
43231SOL    HW131700   0.317  -2.546  25.248
43231SOL    HW231701   0.274   8.376   3.254
43232SOL     OW31702   6.594   9.420   8.298
43232SOL    HW131703  28.629   9.498  -2.708
43232SOL    HW231704   6.652  -1.586   8.229
43233SOL     OW31705   9.002   7.793  10.841
43233SOL    HW131706   8.907   7.795  10.828
43233SOL    HW231707   9.034   7.869  10.793
43234SOL     OW31708   8.859  11.887   2.331
43234SOL    HW131709   8.823 -10.240   2.256
43234SOL    HW231710   8.915  11.954  24.372
43235SOL     OW31711  10.195  13.293   0.910
43235SOL    HW131712  10.128  -8.768   0.975
43235SOL    HW231713  10.146  -8.812   0.832
43236SOL     OW31714   3.728   3.430   4.492
43236SOL    HW131715   3.691  14.558   4.487
43236SOL    HW231716  -7.384   3.373   4.465
43237SOL     OW31717   4.976   3.425   8.790
43237SOL    HW131718  -6.058  14.559   8.804
43237SOL    HW231719 -17.196  36.527   8.775
43238SOL     OW31720  -0.563   9.694   5.666
43238SOL    HW131721  -0.575   9.599  -5.372
43238SOL    HW231722  10.559  20.746   5.618
43239SOL     OW31723   3.210  10.888   4.182
43239SOL    HW131724  14.226  10.978   4.202
43239SOL    HW231725   3.126 -11.237  -6.868
43240SOL     OW31726   9.122   9.718   2.181
43240SOL    HW131727  -1.976   9.689   2.251
43240SOL    HW231728   9.070  -1.257  24.211
43241SOL     OW31729   7.122   4.902   1.595
43241SOL    HW131730   7.082   4.929   1.512
43241SOL    HW231731  18.113   4.824  12.660
43242SOL     OW31732   8.572   2.889   2.379
43242SOL    HW131733 -13.455  -8.108  -8.593
43242SOL    HW231734   8.613  13.955   2.296
43243SOL     OW31735   6.887   7.521   4.198
43243SOL    HW131736   6.802   7.501   4.238
43243SOL    HW231737   6.885   7.615  15.222
43244SOL     OW31738   7.540  10.067   8.359
43244SOL    HW131739   7.482  -0.940  30.506
43244SOL    HW231740   7.587 -12.085   8.399
43245SOL     OW31741  10.552  10.316  10.078
43245SOL    HW131742  10.477  21.315  10.122
43245SOL    HW231743  10.516  10.350   9.996
43246SOL     OW31744   4.806   6.141  10.138
43246SOL    HW131745  37.932   6.047  21.164
43246SOL    HW231746   4.889   6.166  10.179
43247SOL     OW31747   6.036   8.367   5.200
43247SOL    HW131748   6.109   8.353   5.139
43247SOL    HW231749   6.078 -24.738   5.284
43248SOL     OW31750  -1.308   1.243   3.234
43248SOL    HW131751  31.875   1.181   3.201
43248SOL    HW231752   9.708   1.209   3.321
43249SOL     OW31753  10.285   8.504   2.673
43249SOL    HW131754  10.212 -24.609   2.736
43249SOL    HW231755  10.261   8.431   2.616
43250SOL     OW31756   0.777   5.263   6.154
43250SOL    HW131757 -10.263   5.232   6.064
43250SOL    HW231758  11.812   5.184   6.207
43251SOL     OW31759   0.134  11.376   7.287
43251SOL    HW131760   0.071  11.445  29.385
43251SOL    HW231761  22.295   0.382   7.267
43252SOL     OW31762   8.790   7.249   7.003
43252SOL    HW131763  -2.235  29.399  -4.099
43252SOL    HW231764   8.789   7.170   6.950
43253SOL     OW31765  10.320   6.676   6.572
43253SOL    HW131766  10.242   6.712  17.654
43253SOL    HW231767  10.291   6.654   6.483
43254SOL     OW31768   0.210   7.182   4.398
43254SOL    HW131769   0.147   7.116   4.428
43254SOL    HW231770   0.174   7.215   4.316
43255SOL     OW31771   6.823  10.252   0.168
43255SOL    HW131772  39.875  10.311   0.132
43255SOL    HW231773   6.811  10.257   0.263
43256SOL     OW31774   5.778   9.898   0.874
43256SOL    HW131775   5.781  -1.173   0.784
43256SOL    HW231776  16.797  -1.220   0.926
43257SOL     OW31777   6.450   4.398  -0.186
43257SOL    HW131778   6.525   4.338  21.892
43257SOL    HW231779   6.478   4.470  21.949
43258SOL     OW31780   7.769   9.455   9.312
43258SOL    HW131781   7.704  -1.637   9.266
43258SOL    HW231782   7.719  20.549  31.451
43259SOL     OW31783   3.703   9.844   4.278
43259SOL    HW131784   3.735   9.932   4.260
43259SOL    HW231785   3.629   9.858   4.337
43260SOL     OW31786   2.254   6.945   6.480
43260SOL    HW131787   2.190   6.945   6.551
43260SOL    HW231788  -8.769  39.971  -4.577
43261SOL     OW31789   4.440   1.439   6.824
43261SOL    HW131790   4.472  12.567   6.805
43261SOL    HW231791  15.389   1.451   6.851
43262SOL     OW31792   6.145   6.230   1.178
43262SOL    HW131793   6.233   6.226   1.216
43262SOL    HW231794  -4.884   6.195   1.090
43263SOL     OW31795   6.889   7.401   0.552
43263SOL    HW131796   6.873   7.496   0.553
43263SOL    HW231797   6.803   7.362   0.542
43264SOL     OW31798   2.243   4.535   6.838
43264SOL    HW131799   2.309 -28.571  28.985
43264SOL    HW231800   2.160   4.532  28.965
43265SOL     OW31801  10.496   5.719   5.351
43265SOL    HW131802  10.591  16.752  16.378
43265SOL    HW231803  10.459  16.694   5.291
43266SOL     OW31804   9.023   7.059   2.128
43266SOL    HW131805   9.048  18.150   2.051
43266SOL    HW231806   8.959   6.996   2.095
43267SOL     OW31807   6.243   6.867  10.480
43267SOL    HW131808  -4.882   6.847 -11.636
43267SOL    HW231809  17.267   6.877  -0.466
43268SOL     OW31810   5.461   7.632   1.891
43268SOL    HW131811   5.374   7.640  12.893
43268SOL    HW231812  16.494   7.671   1.978
43269SOL     OW31813   9.252  -1.989  10.245
43269SOL    HW131814  20.298  20.138  10.328
43269SOL    HW231815  20.230  20.020  10.263
43270SOL     OW31816   6.142   1.991   7.091
43270SOL    HW131817   6.047   1.981   7.092
43270SOL    HW231818   6.176  23.983 -14.969
43271SOL     OW31819   9.237   2.876   3.740
43271SOL    HW131820   9.290   2.949   3.709
43271SOL    HW231821   9.264  24.880   3.687
43272SOL     OW31822   9.376   4.380   2.162
43272SOL    HW131823   9.435   4.324   2.213
43272SOL    HW231824   9.417   4.466   2.165
43273SOL     OW31825   9.269   1.889   1.576
43273SOL    HW131826   9.206   1.961   1.562
43273SOL    HW231827   9.302   1.903   1.664
43274SOL     OW31828   6.786   5.715   9.915
43274SOL    HW131829  -4.226  -5.241   9.875
43274SOL    HW231830   6.698   5.700 -12.198
43275SOL     OW31831   6.288   2.718   5.013
43275SOL    HW131832   6.229   2.769   4.958
43275SOL    HW231833   6.252   2.630   5.013
43276SOL     OW31834   0.895   9.851   5.431
43276SOL    HW131835  11.846   9.873   5.459
43276SOL    HW231836  11.987   9.857   5.510
43277SOL     OW31837   9.288   2.093   4.421
43277SOL    HW131838  31.325   2.061   4.502
43277SOL    HW231839   9.332   2.016  15.425
43278SOL     OW31840  10.667  11.841   2.918
43278SOL    HW131841 -11.505 -10.226   2.904
43278SOL    HW231842  10.707 -10.225  13.872
43279SOL     OW31843   0.954   0.744   0.889
43279SOL    HW131844  23.072  22.853  12.010
43279SOL    HW231845  11.937  11.856   0.861
43280SOL     OW31846   6.297  11.460   4.455
43280SOL    HW131847  -4.752  11.547   4.493
43280SOL    HW231848   6.319 -21.644   4.363
43281SOL     OW31849   1.086  10.864   2.088
43281SOL    HW131850   1.015  10.812   2.127
43281SOL    HW231851   1.086  -0.199 -20.084
43282SOL     OW31852  -0.211   6.377   1.296
43282SOL    HW131853  10.837   6.404   1.204
43282SOL    HW231854  10.788   6.291   1.292
43283SOL     OW31855   6.000   7.188   5.279
43283SOL    HW131856   5.909  29.237   5.269
43283SOL    HW231857  -5.046  29.362  16.319
43284SOL     OW31858   8.192   0.148   2.599
43284SOL    HW131859   8.190   0.088   2.674
43284SOL    HW231860  19.279   0.101   2.532
43285SOL     OW31861   5.877   4.238   8.917
43285SOL    HW131862   5.908   4.329  19.961
43285SOL    HW231863  16.821  -6.793   8.912
43286SOL     OW31864   0.108   2.871   2.823
43286SOL    HW131865  11.066  13.906   2.874
43286SOL    HW231866  11.200  13.838   2.856
43287SOL     OW31867   8.375  -1.209   8.640
43287SOL    HW131868   8.459  20.829 -13.458
43287SOL    HW231869   8.313  -1.253   8.582
43288SOL     OW31870   9.308   4.695   6.928
43288SOL    HW131871   9.346   4.622   6.976
43288SOL    HW231872   9.383  37.868 -15.176
43289SOL     OW31873   2.629   7.264   1.713
43289SOL    HW131874   2.690  18.291  12.826
43289SOL    HW231875  -8.362   7.318   1.651
43290SOL     OW31876   8.622  -1.615   1.746
43290SOL    HW131877   8.691  31.482   1.683
43290SOL    HW231878   8.638  -1.523   1.768
43291SOL     OW31879   6.421  10.133   5.494
43291SOL    HW131880  28.460  21.220   5.421
43291SOL    HW231881  -4.573  10.059   5.453
43292SOL     OW31882  -0.907   6.786   4.010
43292SOL    HW131883  -0.871   6.768   3.923
43292SOL    HW231884  21.102   6.848   3.994
43293SOL     OW31885   5.137   8.879   8.350
43293SOL    HW131886   5.119   8.799   8.401
43293SOL    HW231887   5.092  31.028   8.398
43294SOL     OW31888   3.424   0.924   3.063
43294SOL    HW131889 -18.724   0.873   3.105
43294SOL    HW231890   3.505   0.878   3.086
43295SOL     OW31891   6.409   7.956   9.139
43295SOL    HW131892  28.405  18.952   9.119
43295SOL    HW231893   6.449   7.972 -13.026
43296SOL     OW31894   3.554   3.352   2.234
43296SOL    HW131895  -7.485   3.262   2.200
43296SOL    HW231896  14.514   3.356   2.287
43297SOL     OW31897   5.277  11.271   6.914
43297SOL    HW131898  38.448   0.255  -4.049
43297SOL    HW231899  16.260  11.347  -4.141
43298SOL     OW31900   5.372   0.685   7.880
43298SOL    HW131901   5.303  11.744  -3.096
43298SOL    HW231902  16.398  11.788   7.810
43299SOL     OW31903   3.821   1.463   3.049
43299SOL    HW131904   3.750   1.510 -18.987
43299SOL    HW231905   3.887   1.451 -18.961
43300SOL     OW31906   3.157   1.835   0.370
43300SOL    HW131907   3.209   1.853  22.527
43300SOL    HW231908   3.195   1.890   0.302
43301SOL     OW31909   3.188   6.185   5.443
43301SOL    HW131910   3.118   6.151   5.388
43301SOL    HW231911   3.174   6.144  16.568
43302SOL     OW31912   8.067   9.013   3.831
43302SOL    HW131913  19.193  -1.986   3.839
43302SOL    HW231914   8.061   8.990   3.738
43303SOL     OW31915   3.030   7.879   9.804
43303SOL    HW131916  -8.042   7.911   9.719
43303SOL    HW231917   2.972  18.847  31.906
43304SOL     OW31918   5.584   4.491   1.864
43304SOL    HW131919 -16.534   4.457   1.945
43304SOL    HW231920   5.514   4.487  -9.240
43305SOL     OW31921   7.796   8.363   6.183
43305SOL    HW131922  18.798   8.377   6.096
43305SOL    HW231923   7.877  -2.625   6.183
43306SOL     OW31924   5.494   4.744   7.847
43306SOL    HW131925   5.532  15.744   7.926
43306SOL    HW231926   5.513   4.837   7.855
43307SOL     OW31927   9.641  -1.802  10.107
43307SOL    HW131928   9.658  31.265 -11.894
43307SOL    HW231929   9.545  -1.798  -0.939
43308SOL     OW31930   2.524   7.311   7.058
43308SOL    HW131931   2.495  18.413  18.030
43308SOL    HW231932   2.579   7.362   7.117
43309SOL     OW31933   3.324   6.374   2.213
43309SOL    HW131934   3.412   6.392   2.246
43309SOL    HW231935   3.296   6.296  13.300
43310NA      NA31936   6.051   7.023   3.348
43311NA      NA31937   6.826   1.988   7.415
43312NA      NA31938  11.017  10.292  10.426
43313NA      NA31939   1.511   6.917   6.048
43314NA      NA31940   9.892   9.313   2.722
43315NA      NA31941   5.588   6.108   5.902
43316NA      NA31942   2.342   3.414  10.809
43317NA      NA31943   3.344   3.498   8.821
43318NA      NA31944   5.846  10.971   2.312
43319NA      NA31945   2.694   4.372   9.243
43320NA      NA31946   5.307   4.465   7.552
43321NA      NA31947   4.770   1.392   5.822
43322NA      NA31948   6.237   3.665  10.961
43323NA      NA31949   0.741   5.392   9.603
43324NA      NA31950   6.113   5.349   7.057
43325NA      NA31951   3.323   5.630   8.200
43326NA      NA31952   9.009   9.209   6.968
43327NA      NA31953   3.264   7.339   9.886
43328NA      NA31954   8.037   9.998   4.017
43329NA      NA31955   0.413   1.976   5.176
43330NA      NA31956   3.516   5.203   8.482
43331NA      NA31957   8.848   8.930   6.445
43332NA      NA31958   6.678   5.016   5.841
43333NA      NA31959   8.362   3.830   7.345
43334NA      NA31960   3.009   9.223   6.948
43335NA      NA31961   8.852   6.038   8.385
43336NA      NA31962   8.163   6.109   5.796
43337NA      NA31963   9.728   6.158   2.469
43338NA      NA31964   7.432   2.289   4.906
43339NA      NA31965   5.729   5.797   3.087
43340NA      NA31966   6.472   6.593   2.603
43341NA      NA31967   6.249   7.245   7.913
43342NA      NA31968   8.907   0.146   0.560
43343NA      NA31969   7.263   3.908   2.333
43344NA      NA31970   7.767   9.245  10.728
43345NA      NA31971   5.185   5.523   6.921
43346NA      NA31972   6.786   4.321   6.155
43347NA      NA31973   3.525   5.809   6.263
43348NA      NA31974   4.748   5.093   8.944
43349NA      NA31975   6.606   7.495   5.799
43350NA      NA31976   5.451   6.110   6.907
43351NA      NA31977   6.197   7.050   5.238
43352NA      NA31978   3.916   6.707  11.003
43353NA      NA31979   8.504   8.356   0.188
43354NA      NA31980   5.700   5.700   6.382
43355NA      NA31981   0.866   8.879   2.890
43356NA      NA31982   7.396   4.868   3.766
43357NA      NA31983   7.096   5.299   3.767
43358NA      NA31984   8.914   6.450   2.721
43359NA      NA31985   6.376   4.574   5.788
43360NA      NA31986   8.502   9.618   6.323
43361NA      NA31987   7.064   3.566   5.310
43362NA      NA31988  10.890   6.589   3.123
43363NA      NA31989   3.213   1.178   1.528
43364NA      NA31990   9.379   3.280   4.701
43365NA      NA31991   4.239   4.653   7.953
43366NA      NA31992   7.743   8.729   9.343
43367NA      NA31993   9.306   4.570   4.136
43368NA      NA31994   0.178   2.013   1.142
43369NA      NA31995   9.226   2.787   0.655
43370NA      NA31996   8.029   5.607   0.249
43371NA      NA31997   5.038   5.922   4.442
43372NA      NA31998   6.300   9.579   0.872
43373NA      NA31999   9.045   4.099   1.559
43374NA      NA32000   4.119   7.428   5.211
43375NA      NA32001   3.503  10.231  10.335
43376NA      NA32002   0.622   4.158   1.076
43377NA      NA32003   3.027   2.627  10.995
43378NA      NA32004   9.184   5.980   3.975
43379NA      NA32005   0.525  10.658   7.509
43380NA      NA32006   6.489   8.050  10.818
43381NA      NA32007   7.300   6.017   0.892
43382NA      NA32008  10.626   1.605   0.099
43383NA      NA32009   2.307   2.744   6.103
43384NA      NA32010   6.041   8.791   5.117
43385NA      NA32011   6.178   5.702   2.404
43386NA      NA32012   7.009   4.733   6.944
43387NA      NA32013   5.556   6.785   6.797
43388NA      NA32014   7.995  10.349   2.258
43389NA      NA32015  10.099   5.351   1.275
43390NA      NA32016   7.203   5.463   4.827
43391NA      NA32017   4.613   6.702   6.842
43392NA      NA32018   4.829   4.591   5.095
43393NA      NA32019   2.318  10.337   4.527
43394NA      NA32020   8.001   6.319   9.275
43395NA      NA32021   5.426   6.176   5.372
43396NA      NA32022   6.954   5.225   6.427
43397NA      NA32023   5.106   6.771   9.208
43398NA      NA32024  10.622  10.003   6.349
43399NA      NA32025   0.137   9.255   6.783
43400NA      NA32026   3.898   2.746  10.034
43401NA      NA32027  10.207   4.451   4.517
43402NA      NA32028   2.821   7.980   8.161
43403NA      NA32029   5.710   7.024  10.026
43404NA      NA32030   3.601   4.480   9.828
43405NA      NA32031   5.007   4.291   9.708
43406NA      NA32032   4.960   5.282   7.885
43407NA      NA32033   2.792   7.186   7.827
43408NA      NA32034   2.753   7.325   6.164
43409NA      NA32035   9.283   8.571   6.016
43410NA      NA32036   9.353   3.326   5.970
43411NA      NA32037   8.926  10.393  10.633
43412NA      NA32038   2.461   7.768   9.686
43413NA      NA32039   9.891   0.963   6.239
43414NA      NA32040   4.728   5.852   6.764
43415NA      NA32041   6.481   6.357   6.578
43416NA      NA32042   7.122   8.994   7.600
43417NA      NA32043   4.665   9.357   3.895
43418NA      NA32044   5.215   6.704   3.342
43419NA      NA32045   6.362   4.282   7.961
43420NA      NA32046   6.419   5.377   5.020
43421NA      NA32047   3.397   2.173   3.559
43422NA      NA32048   3.567   9.703   9.454
43423NA      NA32049   0.958   6.332   5.416
43424NA      NA32050   1.672   3.939   2.830
43425NA      NA32051   0.210   2.663   6.266
43426NA      NA32052   7.501   3.711   4.180
43427NA      NA32053   7.102   4.978   8.547
43428NA      NA32054   7.615   3.922   4.819
43429NA      NA32055   9.804   3.864   6.498
43430NA      NA32056   6.396   6.159   5.085
43431NA      NA32057   3.801   5.400   5.979
43432NA      NA32058   8.735   0.824   4.267
43433NA      NA32059   6.709   5.668   3.537
43434NA      NA32060   4.854   5.294   8.412
43435NA      NA32061   6.256   1.552   1.730
43436NA      NA32062   5.697  10.228  10.876
43437NA      NA32063   5.973   7.310   4.155
43438NA      NA32064   5.968   1.980   3.554
43439NA      NA32065   1.217   1.370   2.423
43440NA      NA32066   3.992   7.931   2.600
43441NA      NA32067   1.800   8.217   0.345
43442NA      NA32068   5.995   4.087   3.811
43443NA      NA32069   7.201   0.740   2.000
43444NA      NA32070   8.125   8.646   8.483
43445NA      NA32071   3.733   6.600   3.061
43446NA      NA32072   3.229   4.327   6.885
43447NA      NA32073   4.223   8.338   0.035
43448NA      NA32074   4.417   4.467   3.918
43449NA      NA32075   8.841   3.395   1.216
43450NA      NA32076   7.101   5.282   1.835
43451NA      NA32077   4.114   2.025   4.167
43452NA      NA32078   0.881   9.710   7.062
43453NA      NA32079   4.602   0.481   7.386
43454NA      NA32080   0.666   0.529   4.075
43455NA      NA32081   5.346   4.400   7.211
43456NA      NA32082   6.477   6.209  10.401
43457NA      NA32083   5.801   4.814   5.144
43458NA      NA32084  10.830   8.044   3.078
43459NA      NA32085  10.268   4.791  10.006
43460NA      NA32086   5.154   3.260   8.822
43461NA      NA32087   0.212   0.323   5.630
43462NA      NA32088   3.478   4.053   2.482
43463NA      NA32089   3.408   3.961   8.177
43464NA      NA32090   2.195   6.143   5.340
43465NA      NA32091   7.559   4.803   0.542
43466NA      NA32092   5.582   4.897   4.850
43467NA      NA32093   1.968   1.123   7.940
43468NA      NA32094  10.530   3.734   4.346
43469NA      NA32095   3.092   6.897   2.052
43470NA      NA32096   7.624   7.492   9.633
43471NA      NA32097   7.349   8.485   1.854
43472NA      NA32098   4.947   2.743   4.929
43473NA      NA32099   5.730   8.053   8.487
43474NA      NA32100   1.276   9.671   8.710
43475NA      NA32101   5.299   6.079   6.183
43476NA      NA32102   3.844   2.105   5.086
43477NA      NA32103   4.691   8.245   2.675
43478NA      NA32104   5.370   6.510   2.607
43479NA      NA32105   5.273  10.629  10.909
43480NA      NA32106   1.340  10.859   2.124
43481NA      NA32107  10.714  10.560   1.262
43482NA      NA32108   8.921   8.717  10.209
43483NA      NA32109   8.933   6.591  10.671
43484NA      NA32110  10.486   8.924   8.007
43485NA      NA32111   1.553   7.361  10.795
43486NA      NA32112   5.916   2.961   4.898
43487NA      NA32113   6.070   1.597   3.993
43488NA      NA32114   3.969   5.975   6.637
43489NA      NA32115   6.819   5.009   6.714
43490NA      NA32116   0.195   0.516   6.169
43491NA      NA32117   4.638   5.054   6.460
43492NA      NA32118  10.013   3.280   3.977
43493NA      NA32119   6.554   9.258   3.487
43494NA      NA32120   4.982   5.012   7.029
43495NA      NA32121   8.032   5.317   8.875
43496NA      NA32122   6.742   5.013   5.446
43497NA      NA32123   6.634   0.521   7.194
43498NA      NA32124   4.031   7.421   7.366
43499NA      NA32125   5.288   5.643   4.870
43500NA      NA32126   8.782   4.128   8.875
43501NA      NA32127   5.028   6.733   6.398
43502NA      NA32128   5.226   5.535   4.015
43503NA      NA32129   3.502   3.987   5.749
43504CL      CL32130   5.886   1.236   0.754
43505CL      CL32131   4.125   9.329   3.465
43506CL      CL32132   0.301   0.162  10.052
43507CL      CL32133   6.009   9.542   3.480
43508CL      CL32134   7.970   3.545  10.551
43509CL      CL32135  10.144   7.833   7.460
43510CL      CL32136   9.531   7.771   7.158
43511CL      CL32137   7.580  10.199   7.606
43512CL      CL32138   3.306   5.284   6.272
43513CL      CL32139   1.990   4.304   9.571
43514CL      CL32140   7.258   3.419   3.758
43515CL      CL32141   0.026   4.853   0.205
43516CL      CL32142   8.495   5.362   0.663
43517CL      CL32143   1.163   3.175   8.209
43518CL      CL32144   8.543   9.257   6.703
43519CL      CL32145   2.630   5.493  11.037
43520CL      CL32146   7.057   5.470  10.499
43521CL      CL32147   4.426   0.536   7.185
43522CL      CL32148   4.214   9.966   0.146
43523CL      CL32149  11.004   5.757   2.659
43524CL      CL32150  10.975   0.843   6.075
43525CL      CL32151   6.219   9.095   5.433
43526CL      CL32152   5.814   7.004  10.724
43527CL      CL32153   5.130   5.256  10.287
43528CL      CL32154   1.568   6.650   9.104
43529CL      CL32155   2.070   7.934   6.330
43530CL      CL32156   3.159   4.267   7.145
43531CL      CL32157   9.161   6.380   5.293
43532CL      CL32158   4.965  10.684   2.522
43533CL      CL32159   8.310   8.041  10.976
43534CL      CL32160   7.505   8.501   3.314
43535CL      CL32161   3.469   5.942   8.564
43536CL      CL32162   3.706   2.867  10.498
43537CL      CL32163   1.566   8.852   1.880
43538CL      CL32164   0.887   4.063   7.367
43539CL      CL32165   9.149   2.531   0.589
43540CL      CL32166   5.036  10.336   5.745
43541CL      CL32167   4.051   7.396   2.724
43542CL      CL32168   0.794   6.731   2.957
43543CL      CL32169   0.120   5.315   5.008
43544CL      CL32170   0.603   3.715   1.116
43545CL      CL32171   2.496   9.430   7.659
43546CL      CL32172   6.483  10.299   5.926
43547CL      CL32173   1.818   5.270   1.644
43548CL      CL32174   1.475   8.858   0.236
43549CL      CL32175   5.814   5.961   2.076
43550CL      CL32176   6.513   2.083   6.212
43551CL      CL32177  10.263   3.308   9.666
43552CL      CL32178   0.223  10.687  10.117
43553CL      CL32179   0.167  10.346   8.663
43554CL      CL32180   4.681   1.639   9.018
43555CL      CL32181   1.902   6.313  10.000
43556CL      CL32182   2.942   1.015   5.875
43557CL      CL32183  10.951   2.184   8.923
43558CL      CL32184   5.665   8.052   9.642
43559CL      CL32185   2.561   1.470   3.633
43560CL      CL32186   8.835   5.341   8.531
43561CL      CL32187   9.561   4.588   3.268
43562CL      CL32188   6.720   6.725   0.959
43563CL      CL32189   7.165   8.736   8.981
43564CL      CL32190   0.400   5.146   0.683
43565CL      CL32191   1.450   3.362   5.156
43566CL      CL32192   5.085   0.832   0.797
43567CL      CL32193   7.948   9.702   8.351
43568CL      CL32194   3.524   6.717   7.332
43569CL      CL32195   0.375   1.893   6.757
43570CL      CL32196   9.289   0.781   3.054
43571CL      CL32197  10.631   9.007  10.490
43572CL      CL32198   9.676   9.860  10.870
43573CL      CL32199   4.647   8.792   1.172
43574CL      CL32200   0.155   3.240   4.170
43575CL      CL32201   3.134   2.641   2.191
43576CL      CL32202   5.220   9.871   6.716
43577CL      CL32203  10.542   5.220   3.546
43578CL      CL32204   6.198   3.057   9.562
43579CL      CL32205   5.290   3.726   3.837
43580CL      CL32206   2.054   9.525   3.505
43581CL      CL32207   1.073   2.341   5.747
43582CL      CL32208   3.898   7.886  10.729
43583CL      CL32209   0.869   5.433   6.873
43584CL      CL32210   0.903   2.422   4.456
43585CL      CL32211   1.086   9.315   7.084
43586CL      CL32212   9.652   0.610   6.664
43587CL      CL32213   7.215   3.035   0.715
43588CL      CL32214   7.461   4.407   1.810
43589CL      CL32215   4.578   5.147   9.351
43590CL      CL32216   3.245   7.803   6.851
43591CL      CL32217   5.468   0.861   1.641
43592CL      CL32218   2.009   7.392  10.117
43593CL      CL32219   8.317   7.930   9.297
43594CL      CL32220   4.621   3.580   5.655
43595CL      CL32221   3.396   2.072  10.530
43596CL      CL32222  10.834   9.241   8.601
43597CL      CL32223   9.090   7.185   3.455
43598CL      CL32224   4.473   2.199   0.700
43599CL      CL32225   7.962   8.903   0.033
43600CL      CL32226   9.549   2.617   6.575
43601CL      CL32227   5.355   9.072   9.575
43602CL      CL32228   4.824   8.725   5.807
43603CL      CL32229   8.684   3.071   0.825
43604CL      CL32230   7.630   4.153   5.240
43605CL      CL32231   5.151   8.777   5.034
43606CL      CL32232   4.290   8.180   1.817
43607CL      CL32233   4.094   2.408   5.304
43608CL      CL32234   1.666   3.094   2.275
43609CL      CL32235   9.795  10.275   0.912
43610CL      CL32236   2.696   9.580  10.295
43611CL      CL32237  10.803   1.405   1.106
43612CL      CL32238   7.738  10.401   2.638
43613CL      CL32239   3.951  10.428   1.531
43614CL      CL32240   1.208   7.120   7.467
43615CL      CL32241   7.530   4.915   1.351
43616CL      CL32242  10.575   4.564   5.985
43617CL      CL32243   0.832  10.073   7.458
43618CL      CL32244   7.854   2.836   5.169
43619CL      CL32245   1.757   9.668  10.357
43620CL      CL32246   6.271   2.831   5.458
43621CL      CL32247   0.950   7.951   3.928
43622CL      CL32248   6.995   7.246   9.512
43623CL      CL32249   7.996   1.378   3.841
43624CL      CL32250   5.940   2.491   3.454
43625CL      CL32251   5.637   0.170   4.129
43626CL      CL32252   8.490   0.080   2.253
43627CL      CL32253   9.351   4.246   4.835
  11.03956  11.03956  11.03956
