VIBRIO VULNIFICUS A-RIBOSWITCH in water t=   0.00000 step= 0
 2257
   13C      O5'    1   3.414   9.359   6.484
   13C      H5T    2   3.501   9.322   6.503
   13C      C5'    3   3.388   9.352   6.349
   13C     H5'1    4   3.280   9.344   6.333
   13C     H5'2    5   3.429   9.257   6.314
   13C      C4'    6   3.438   9.478   6.266
   13C      H4'    7   3.411   9.461   6.162
   13C      O4'    8   3.381   9.605   6.309
   13C      C1'    9   3.487   9.704   6.316
   13C      H1'   10   3.455   9.794   6.263
   13C       N1   11   3.540   9.747   6.453
   13C       C6   12   3.484   9.701   6.566
   13C       H6   13   3.410   9.622   6.564
   13C       C5   14   3.511   9.757   6.689
   13C       H5   15   3.459   9.724   6.778
   13C       C4   16   3.605   9.856   6.689
   13C       N4   17   3.647   9.910   6.796
   13C      H41   18   3.629   9.861   6.883
   13C      H42   19   3.711   9.987   6.783
   13C       N3   20   3.652   9.915   6.577
   13C       C2   21   3.625   9.858   6.457
   13C       O2   22   3.666   9.915   6.360
   13C      C3'   23   3.587   9.506   6.266
   13C      H3'   24   3.621   9.497   6.369
   13C      C2'   25   3.602   9.652   6.229
   13C     H2'1   26   3.699   9.696   6.250
   13C      O2'   27   3.569   9.678   6.097
   13C     HO'2   28   3.636   9.646   6.036
   13C      O3'   29   3.670   9.419   6.181
   14G        P   30   3.829   9.390   6.218
   14G      O1P   31   3.880   9.281   6.137
   14G      O2P   32   3.829   9.390   6.365
   14G      O5'   33   3.895   9.526   6.159
   14G      C5'   34   3.895   9.568   6.021
   14G     H5'1   35   3.796   9.573   5.976
   14G     H5'2   36   3.957   9.496   5.968
   14G      C4'   37   3.967   9.704   6.009
   14G      H4'   38   3.959   9.747   5.909
   14G      O4'   39   3.914   9.807   6.100
   14G      C1'   40   4.023   9.895   6.153
   14G      H1'   41   4.004  10.002   6.142
   14G       N9   42   4.037   9.860   6.291
   14G       C8   43   3.957   9.782   6.368
   14G       H8   44   3.873   9.725   6.330
   14G       N7   45   3.985   9.780   6.500
   14G       C5   46   4.090   9.871   6.509
   14G       C6   47   4.172   9.919   6.615
   14G       O6   48   4.178   9.887   6.738
   14G       N1   49   4.251  10.024   6.580
   14G       H1   50   4.307  10.062   6.655
   14G       C2   51   4.277  10.071   6.456
   14G       N2   52   4.357  10.172   6.440
   14G      H21   53   4.405  10.196   6.526
   14G      H22   54   4.374  10.211   6.349
   14G       N3   55   4.206  10.026   6.355
   14G       C4   56   4.114   9.930   6.385
   14G      C3'   57   4.117   9.708   6.039
   14G      H3'   58   4.145   9.659   6.132
   14G      C2'   59   4.145   9.855   6.063
   14G     H2'1   60   4.241   9.869   6.112
   14G      O2'   61   4.129   9.934   5.943
   14G     HO'2   62   4.146   9.874   5.870
   14G      O3'   63   4.187   9.658   5.931
   15C        P   64   4.317   9.565   5.955
   15C      O1P   65   4.361   9.503   5.828
   15C      O2P   66   4.277   9.468   6.060
   15C      O5'   67   4.433   9.654   6.014
   15C      C5'   68   4.474   9.768   5.941
   15C     H5'1   69   4.399   9.847   5.941
   15C     H5'2   70   4.484   9.742   5.836
   15C      C4'   71   4.607   9.820   6.003
   15C      H4'   72   4.649   9.901   5.943
   15C      O4'   73   4.587   9.879   6.133
   15C      C1'   74   4.675   9.807   6.223
   15C      H1'   75   4.765   9.865   6.245
   15C       N1   76   4.589   9.785   6.346
   15C       C6   77   4.483   9.697   6.351
   15C       H6   78   4.445   9.652   6.260
   15C       C5   79   4.439   9.656   6.468
   15C       H5   80   4.361   9.583   6.456
   15C       C4   81   4.496   9.716   6.588
   15C       N4   82   4.450   9.683   6.704
   15C      H41   83   4.359   9.640   6.709
   15C      H42   84   4.470   9.734   6.789
   15C       N3   85   4.588   9.809   6.579
   15C       C2   86   4.631   9.851   6.460
   15C       O2   87   4.699   9.953   6.471
   15C      C3'   88   4.716   9.722   6.007
   15C      H3'   89   4.693   9.649   5.929
   15C      C2'   90   4.713   9.676   6.149
   15C     H2'1   91   4.633   9.607   6.178
   15C      O2'   92   4.828   9.616   6.204
   15C     HO'2   93   4.910   9.632   6.157
   15C      O3'   94   4.828   9.799   5.970
   16U        P   95   4.985   9.747   5.962
   16U      O1P   96   5.052   9.816   5.852
   16U      O2P   97   4.977   9.604   5.951
   16U      O5'   98   5.050   9.784   6.103
   16U      C5'   99   5.062   9.920   6.146
   16U     H5'1  100   4.968   9.969   6.119
   16U     H5'2  101   5.143   9.961   6.085
   16U      C4'  102   5.104   9.927   6.290
   16U      H4'  103   5.137  10.030   6.301
   16U      O4'  104   4.998   9.920   6.387
   16U      C1'  105   5.065   9.887   6.507
   16U      H1'  106   5.053   9.965   6.583
   16U       N1  107   5.011   9.758   6.569
   16U       C6  108   4.911   9.686   6.509
   16U       H6  109   4.890   9.715   6.407
   16U       C5  110   4.859   9.569   6.569
   16U       H5  111   4.781   9.518   6.514
   16U       C4  112   4.899   9.526   6.699
   16U       O4  113   4.857   9.416   6.748
   16U       N3  114   4.988   9.610   6.755
   16U       H3  115   5.018   9.597   6.850
   16U       C2  116   5.049   9.717   6.696
   16U       O2  117   5.144   9.761   6.757
   16U      C3'  118   5.216   9.830   6.345
   16U      H3'  119   5.188   9.725   6.338
   16U      C2'  120   5.220   9.875   6.487
   16U     H2'1  121   5.271   9.801   6.548
   16U      O2'  122   5.281  10.002   6.497
   16U     HO'2  123   5.349   9.997   6.429
   16U      O3'  124   5.337   9.848   6.276
   17U        P  125   5.455   9.745   6.276
   17U      O1P  126   5.568   9.803   6.198
   17U      O2P  127   5.395   9.614   6.243
   17U      O5'  128   5.494   9.734   6.435
   17U      C5'  129   5.576   9.834   6.497
   17U     H5'1  130   5.527   9.931   6.485
   17U     H5'2  131   5.671   9.846   6.445
   17U      C4'  132   5.608   9.816   6.646
   17U      H4'  133   5.660   9.901   6.689
   17U      O4'  134   5.479   9.799   6.705
   17U      C1'  135   5.480   9.708   6.814
   17U      H1'  136   5.443   9.756   6.904
   17U       N1  137   5.404   9.581   6.801
   17U       C6  138   5.348   9.542   6.680
   17U       H6  139   5.382   9.595   6.592
   17U       C5  140   5.246   9.446   6.676
   17U       H5  141   5.196   9.419   6.584
   17U       C4  142   5.221   9.365   6.789
   17U       O4  143   5.144   9.269   6.795
   17U       N3  144   5.287   9.399   6.901
   17U       H3  145   5.258   9.345   6.982
   17U       C2  146   5.380   9.502   6.915
   17U       O2  147   5.427   9.535   7.024
   17U      C3'  148   5.685   9.684   6.687
   17U      H3'  149   5.654   9.602   6.622
   17U      C2'  150   5.635   9.660   6.828
   17U     H2'1  151   5.640   9.558   6.867
   17U      O2'  152   5.694   9.752   6.917
   17U     HO'2  153   5.661   9.842   6.906
   17U      O3'  154   5.822   9.691   6.671
   18C        P  155   5.902   9.556   6.654
   18C      O1P  156   6.037   9.612   6.622
   18C      O2P  157   5.826   9.478   6.551
   18C      O5'  158   5.895   9.494   6.798
   18C      C5'  159   5.975   9.540   6.908
   18C     H5'1  160   5.950   9.646   6.913
   18C     H5'2  161   6.082   9.532   6.889
   18C      C4'  162   5.947   9.469   7.044
   18C      H4'  163   6.011   9.528   7.110
   18C      O4'  164   5.801   9.477   7.086
   18C      C1'  165   5.771   9.347   7.143
   18C      H1'  166   5.716   9.364   7.236
   18C       N1  167   5.690   9.258   7.061
   18C       C6  168   5.705   9.248   6.925
   18C       H6  169   5.773   9.313   6.871
   18C       C5  170   5.613   9.185   6.855
   18C       H5  171   5.618   9.193   6.747
   18C       C4  172   5.516   9.111   6.926
   18C       N4  173   5.431   9.041   6.863
   18C      H41  174   5.454   9.018   6.767
   18C      H42  175   5.368   8.993   6.925
   18C       N3  176   5.501   9.114   7.061
   18C       C2  177   5.594   9.183   7.128
   18C       O2  178   5.583   9.184   7.248
   18C      C3'  179   5.992   9.321   7.056
   18C      H3'  180   5.958   9.266   6.968
   18C      C2'  181   5.904   9.277   7.171
   18C     H2'1  182   5.895   9.169   7.157
   18C      O2'  183   5.943   9.316   7.305
   18C     HO'2  184   6.028   9.273   7.313
   18C      O3'  185   6.132   9.305   7.089
   19A        P  186   6.203   9.168   7.050
   19A      O1P  187   6.351   9.173   7.071
   19A      O2P  188   6.143   9.110   6.926
   19A      O5'  189   6.154   9.063   7.169
   19A      C5'  190   6.203   9.076   7.302
   19A     H5'1  191   6.177   9.177   7.334
   19A     H5'2  192   6.311   9.061   7.301
   19A      C4'  193   6.140   8.968   7.400
   19A      H4'  194   6.180   8.968   7.502
   19A      O4'  195   6.002   8.985   7.418
   19A      C1'  196   5.932   8.861   7.414
   19A      H1'  197   5.863   8.839   7.495
   19A       N9  198   5.849   8.844   7.294
   19A       C8  199   5.877   8.889   7.166
   19A       H8  200   5.961   8.955   7.151
   19A       N7  201   5.783   8.870   7.078
   19A       C5  202   5.690   8.798   7.154
   19A       C6  203   5.571   8.726   7.126
   19A       N6  204   5.521   8.723   7.008
   19A      H61  205   5.572   8.759   6.929
   19A      H62  206   5.426   8.688   7.004
   19A       N1  207   5.515   8.649   7.215
   19A       C2  208   5.569   8.643   7.335
   19A       H2  209   5.530   8.567   7.401
   19A       N3  210   5.677   8.710   7.375
   19A       C4  211   5.727   8.790   7.283
   19A      C3'  212   6.156   8.827   7.352
   19A      H3'  213   6.166   8.839   7.244
   19A      C2'  214   6.042   8.754   7.415
   19A     H2'1  215   6.003   8.671   7.357
   19A      O2'  216   6.058   8.724   7.554
   19A     HO'2  217   6.153   8.737   7.562
   19A      O3'  218   6.286   8.785   7.397
   20U        P  219   6.374   8.669   7.326
   20U      O1P  220   6.510   8.676   7.377
   20U      O2P  221   6.368   8.687   7.182
   20U      O5'  222   6.322   8.525   7.364
   20U      C5'  223   6.323   8.474   7.493
   20U     H5'1  224   6.332   8.541   7.578
   20U     H5'2  225   6.416   8.418   7.495
   20U      C4'  226   6.207   8.378   7.494
   20U      H4'  227   6.217   8.319   7.585
   20U      O4'  228   6.067   8.418   7.471
   20U      C1'  229   6.003   8.313   7.400
   20U      H1'  230   5.928   8.257   7.457
   20U       N1  231   5.938   8.355   7.276
   20U       C6  232   6.011   8.429   7.187
   20U       H6  233   6.112   8.456   7.214
   20U       C5  234   5.953   8.492   7.084
   20U       H5  235   6.016   8.553   7.021
   20U       C4  236   5.814   8.476   7.054
   20U       O4  237   5.756   8.536   6.957
   20U       N3  238   5.748   8.392   7.141
   20U       H3  239   5.651   8.373   7.119
   20U       C2  240   5.802   8.326   7.246
   20U       O2  241   5.734   8.249   7.311
   20U      C3'  242   6.237   8.268   7.392
   20U      H3'  243   6.263   8.322   7.301
   20U      C2'  244   6.098   8.202   7.373
   20U     H2'1  245   6.093   8.169   7.269
   20U      O2'  246   6.083   8.098   7.472
   20U     HO'2  247   6.161   8.042   7.465
   20U      O3'  248   6.337   8.176   7.423
   21A        P  249   6.410   8.100   7.305
   21A      O1P  250   6.504   8.010   7.375
   21A      O2P  251   6.468   8.195   7.209
   21A      O5'  252   6.290   8.029   7.231
   21A      C5'  253   6.260   7.888   7.249
   21A     H5'1  254   6.167   7.880   7.305
   21A     H5'2  255   6.340   7.828   7.292
   21A      C4'  256   6.213   7.825   7.119
   21A      H4'  257   6.201   7.722   7.153
   21A      O4'  258   6.099   7.887   7.058
   21A      C1'  259   6.098   7.874   6.913
   21A      H1'  260   6.012   7.816   6.878
   21A       N9  261   6.106   8.008   6.856
   21A       C8  262   6.162   8.122   6.902
   21A       H8  263   6.201   8.133   7.002
   21A       N7  264   6.183   8.216   6.808
   21A       C5  265   6.130   8.160   6.695
   21A       C6  266   6.127   8.196   6.558
   21A       N6  267   6.183   8.298   6.507
   21A      H61  268   6.255   8.352   6.552
   21A      H62  269   6.169   8.297   6.407
   21A       N1  270   6.059   8.120   6.473
   21A       C2  271   6.018   8.005   6.508
   21A       H2  272   5.981   7.949   6.424
   21A       N3  273   6.021   7.954   6.631
   21A       C4  274   6.070   8.040   6.730
   21A      C3'  275   6.312   7.816   7.005
   21A      H3'  276   6.367   7.909   6.989
   21A      C2'  277   6.218   7.790   6.886
   21A     H2'1  278   6.263   7.816   6.790
   21A      O2'  279   6.170   7.659   6.883
   21A     HO'2  280   6.240   7.594   6.891
   21A      O3'  281   6.413   7.711   7.026
   22U        P  282   6.521   7.675   6.913
   22U      O1P  283   6.611   7.580   6.983
   22U      O2P  284   6.571   7.789   6.845
   22U      O5'  285   6.444   7.575   6.806
   22U      C5'  286   6.489   7.568   6.680
   22U     H5'1  287   6.587   7.520   6.687
   22U     H5'2  288   6.489   7.666   6.633
   22U      C4'  289   6.397   7.470   6.590
   22U      H4'  290   6.452   7.464   6.496
   22U      O4'  291   6.400   7.343   6.642
   22U      C1'  292   6.279   7.275   6.626
   22U      H1'  293   6.268   7.246   6.522
   22U       N1  294   6.262   7.168   6.729
   22U       C6  295   6.302   7.177   6.863
   22U       H6  296   6.328   7.272   6.908
   22U       C5  297   6.291   7.072   6.949
   22U       H5  298   6.327   7.082   7.050
   22U       C4  299   6.245   6.938   6.900
   22U       O4  300   6.233   6.834   6.972
   22U       N3  301   6.199   6.938   6.768
   22U       H3  302   6.167   6.851   6.728
   22U       C2  303   6.207   7.051   6.679
   22U       O2  304   6.157   7.032   6.569
   22U      C3'  305   6.250   7.505   6.575
   22U      H3'  306   6.234   7.601   6.624
   22U      C2'  307   6.183   7.389   6.658
   22U     H2'1  308   6.194   7.426   6.760
   22U      O2'  309   6.044   7.374   6.630
   22U     HO'2  310   5.997   7.457   6.640
   22U      O3'  311   6.201   7.488   6.452
   23A        P  312   6.194   7.601   6.336
   23A      O1P  313   6.174   7.727   6.411
   23A      O2P  314   6.090   7.558   6.248
   23A      O5'  315   6.343   7.582   6.279
   23A      C5'  316   6.370   7.461   6.204
   23A     H5'1  317   6.312   7.448   6.113
   23A     H5'2  318   6.350   7.381   6.275
   23A      C4'  319   6.521   7.448   6.164
   23A      H4'  320   6.537   7.531   6.096
   23A      O4'  321   6.594   7.474   6.281
   23A      C1'  322   6.692   7.376   6.295
   23A      H1'  323   6.795   7.411   6.292
   23A       N9  324   6.682   7.311   6.435
   23A       C8  325   6.761   7.332   6.551
   23A       H8  326   6.838   7.406   6.570
   23A       N7  327   6.744   7.238   6.645
   23A       C5  328   6.646   7.157   6.592
   23A       C6  329   6.583   7.042   6.635
   23A       N6  330   6.604   6.981   6.748
   23A      H61  331   6.685   7.005   6.804
   23A      H62  332   6.548   6.900   6.771
   23A       N1  333   6.486   6.981   6.565
   23A       C2  334   6.458   7.033   6.448
   23A       H2  335   6.380   6.989   6.387
   23A       N3  336   6.504   7.145   6.392
   23A       C4  337   6.603   7.203   6.468
   23A      C3'  338   6.549   7.309   6.115
   23A      H3'  339   6.478   7.236   6.153
   23A      C2'  340   6.683   7.276   6.179
   23A     H2'1  341   6.693   7.176   6.221
   23A      O2'  342   6.790   7.293   6.090
   23A     HO'2  343   6.766   7.251   6.007
   23A      O3'  344   6.557   7.312   5.972
   24A        P  345   6.451   7.242   5.873
   24A      O1P  346   6.497   7.264   5.734
   24A      O2P  347   6.319   7.293   5.910
   24A      O5'  348   6.461   7.093   5.913
   24A      C5'  349   6.405   7.027   6.026
   24A     H5'1  350   6.312   7.065   6.067
   24A     H5'2  351   6.475   7.031   6.109
   24A      C4'  352   6.367   6.884   5.978
   24A      H4'  353   6.362   6.825   6.070
   24A      O4'  354   6.239   6.884   5.925
   24A      C1'  355   6.223   6.793   5.819
   24A      H1'  356   6.144   6.720   5.832
   24A       N9  357   6.214   6.863   5.685
   24A       C8  358   6.238   6.996   5.663
   24A       H8  359   6.278   7.071   5.730
   24A       N7  360   6.196   7.039   5.541
   24A       C5  361   6.151   6.921   5.482
   24A       C6  362   6.083   6.889   5.365
   24A       N6  363   6.041   6.974   5.278
   24A      H61  364   6.031   7.071   5.306
   24A      H62  365   6.002   6.938   5.192
   24A       N1  366   6.050   6.764   5.333
   24A       C2  367   6.069   6.666   5.419
   24A       H2  368   6.046   6.562   5.398
   24A       N3  369   6.128   6.685   5.535
   24A       C4  370   6.171   6.807   5.563
   24A      C3'  371   6.459   6.804   5.880
   24A      H3'  372   6.502   6.877   5.811
   24A      C2'  373   6.349   6.710   5.820
   24A     H2'1  374   6.386   6.673   5.724
   24A      O2'  375   6.314   6.592   5.894
   24A     HO'2  376   6.395   6.552   5.925
   24A      O3'  377   6.548   6.724   5.945
   25U        P  378   6.698   6.701   5.892
   25U      O1P  379   6.707   6.762   5.759
   25U      O2P  380   6.721   6.556   5.902
   25U      O5'  381   6.787   6.773   5.997
   25U      C5'  382   6.776   6.909   6.014
   25U     H5'1  383   6.672   6.939   6.001
   25U     H5'2  384   6.831   6.957   5.933
   25U      C4'  385   6.827   6.949   6.150
   25U      H4'  386   6.848   7.056   6.152
   25U      O4'  387   6.731   6.931   6.252
   25U      C1'  388   6.806   6.907   6.374
   25U      H1'  389   6.778   6.985   6.444
   25U       N1  390   6.766   6.774   6.428
   25U       C6  391   6.711   6.679   6.347
   25U       H6  392   6.692   6.693   6.242
   25U       C5  393   6.669   6.562   6.393
   25U       H5  394   6.633   6.483   6.328
   25U       C4  395   6.681   6.527   6.534
   25U       O4  396   6.646   6.418   6.593
   25U       N3  397   6.743   6.623   6.609
   25U       H3  398   6.730   6.613   6.709
   25U       C2  399   6.781   6.745   6.563
   25U       O2  400   6.834   6.825   6.641
   25U      C3'  401   6.958   6.884   6.194
   25U      H3'  402   6.960   6.775   6.191
   25U      C2'  403   6.962   6.932   6.341
   25U     H2'1  404   7.017   6.861   6.402
   25U      O2'  405   6.989   7.068   6.360
   25U     HO'2  406   7.070   7.081   6.411
   25U      O3'  407   7.073   6.932   6.127
   26C        P  408   7.198   6.849   6.116
   26C      O1P  409   7.306   6.931   6.060
   26C      O2P  410   7.160   6.726   6.040
   26C      O5'  411   7.247   6.792   6.261
   26C      C5'  412   7.315   6.881   6.351
   26C     H5'1  413   7.259   6.973   6.364
   26C     H5'2  414   7.411   6.905   6.305
   26C      C4'  415   7.338   6.813   6.494
   26C      H4'  416   7.398   6.886   6.548
   26C      O4'  417   7.209   6.792   6.543
   26C      C1'  418   7.217   6.683   6.642
   26C      H1'  419   7.178   6.717   6.738
   26C       N1  420   7.139   6.564   6.594
   26C       C6  421   7.090   6.550   6.463
   26C       H6  422   7.127   6.609   6.381
   26C       C5  423   7.014   6.443   6.435
   26C       H5  424   7.002   6.434   6.328
   26C       C4  425   6.974   6.354   6.543
   26C       N4  426   6.895   6.256   6.520
   26C      H41  427   6.841   6.247   6.435
   26C      H42  428   6.868   6.198   6.598
   26C       N3  429   7.037   6.352   6.657
   26C       C2  430   7.117   6.461   6.687
   26C       O2  431   7.169   6.465   6.796
   26C      C3'  432   7.409   6.681   6.504
   26C      H3'  433   7.363   6.605   6.441
   26C      C2'  434   7.361   6.646   6.641
   26C     H2'1  435   7.362   6.539   6.662
   26C      O2'  436   7.425   6.708   6.744
   26C     HO'2  437   7.491   6.767   6.707
   26C      O3'  438   7.551   6.709   6.497
   27C        P  439   7.645   6.573   6.466
   27C      O1P  440   7.784   6.628   6.446
   27C      O2P  441   7.577   6.504   6.353
   27C      O5'  442   7.643   6.472   6.591
   27C      C5'  443   7.714   6.496   6.714
   27C     H5'1  444   7.704   6.597   6.754
   27C     H5'2  445   7.820   6.477   6.698
   27C      C4'  446   7.669   6.386   6.812
   27C      H4'  447   7.711   6.399   6.912
   27C      O4'  448   7.529   6.385   6.820
   27C      C1'  449   7.487   6.253   6.852
   27C      H1'  450   7.430   6.257   6.945
   27C       N1  451   7.395   6.203   6.752
   27C       C6  452   7.370   6.253   6.630
   27C       H6  453   7.423   6.344   6.606
   27C       C5  454   7.293   6.195   6.535
   27C       H5  455   7.279   6.235   6.436
   27C       C4  456   7.223   6.080   6.576
   27C       N4  457   7.144   6.031   6.497
   27C      H41  458   7.110   6.080   6.415
   27C      H42  459   7.102   5.940   6.509
   27C       N3  460   7.237   6.020   6.693
   27C       C2  461   7.325   6.082   6.780
   27C       O2  462   7.348   6.021   6.886
   27C      C3'  463   7.703   6.248   6.761
   27C      H3'  464   7.658   6.231   6.663
   27C      C2'  465   7.621   6.175   6.861
   27C     H2'1  466   7.618   6.072   6.826
   27C      O2'  467   7.675   6.175   6.987
   27C     HO'2  468   7.628   6.109   7.038
   27C      O3'  469   7.833   6.198   6.787
   28U        P  470   7.903   6.090   6.697
   28U      O1P  471   8.031   6.061   6.761
   28U      O2P  472   7.913   6.146   6.562
   28U      O5'  473   7.796   5.961   6.693
   28U      C5'  474   7.800   5.869   6.802
   28U     H5'1  475   7.780   5.926   6.893
   28U     H5'2  476   7.897   5.820   6.812
   28U      C4'  477   7.699   5.757   6.793
   28U      H4'  478   7.690   5.700   6.886
   28U      O4'  479   7.565   5.800   6.761
   28U      C1'  480   7.503   5.693   6.695
   28U      H1'  481   7.433   5.653   6.768
   28U       N1  482   7.416   5.733   6.579
   28U       C6  483   7.453   5.829   6.484
   28U       H6  484   7.546   5.883   6.491
   28U       C5  485   7.370   5.845   6.381
   28U       H5  486   7.408   5.917   6.310
   28U       C4  487   7.247   5.767   6.360
   28U       O4  488   7.159   5.791   6.279
   28U       N3  489   7.231   5.659   6.445
   28U       H3  490   7.140   5.616   6.453
   28U       C2  491   7.300   5.656   6.563
   28U       O2  492   7.252   5.583   6.650
   28U      C3'  493   7.737   5.668   6.671
   28U      H3'  494   7.759   5.731   6.585
   28U      C2'  495   7.603   5.590   6.659
   28U     H2'1  496   7.595   5.552   6.557
   28U      O2'  497   7.592   5.492   6.762
   28U     HO'2  498   7.647   5.417   6.741
   28U      O3'  499   7.844   5.591   6.704
   29A        P  500   7.891   5.466   6.615
   29A      O1P  501   8.031   5.439   6.658
   29A      O2P  502   7.863   5.472   6.472
   29A      O5'  503   7.807   5.339   6.676
   29A      C5'  504   7.830   5.286   6.801
   29A     H5'1  505   7.810   5.369   6.868
   29A     H5'2  506   7.934   5.257   6.813
   29A      C4'  507   7.736   5.168   6.821
   29A      H4'  508   7.748   5.114   6.915
   29A      O4'  509   7.604   5.223   6.810
   29A      C1'  510   7.512   5.128   6.758
   29A      H1'  511   7.429   5.107   6.826
   29A       N9  512   7.457   5.172   6.629
   29A       C8  513   7.513   5.267   6.546
   29A       H8  514   7.608   5.316   6.562
   29A       N7  515   7.445   5.298   6.440
   29A       C5  516   7.339   5.211   6.447
   29A       C6  517   7.218   5.192   6.369
   29A       N6  518   7.180   5.248   6.261
   29A      H61  519   7.227   5.323   6.212
   29A      H62  520   7.090   5.221   6.223
   29A       N1  521   7.120   5.105   6.402
   29A       C2  522   7.132   5.037   6.520
   29A       H2  523   7.046   4.979   6.548
   29A       N3  524   7.238   5.046   6.604
   29A       C4  525   7.338   5.134   6.559
   29A      C3'  526   7.735   5.057   6.724
   29A      H3'  527   7.745   5.103   6.626
   29A      C2'  528   7.592   5.002   6.744
   29A     H2'1  529   7.561   4.954   6.651
   29A      O2'  530   7.563   4.911   6.852
   29A     HO'2  531   7.648   4.902   6.896
   29A      O3'  532   7.826   4.953   6.738
   30A        P  533   7.886   4.879   6.614
   30A      O1P  534   7.989   4.783   6.663
   30A      O2P  535   7.924   4.987   6.520
   30A      O5'  536   7.778   4.787   6.548
   30A      C5'  537   7.723   4.681   6.621
   30A     H5'1  538   7.688   4.726   6.714
   30A     H5'2  539   7.800   4.604   6.633
   30A      C4'  540   7.592   4.624   6.567
   30A      H4'  541   7.558   4.547   6.637
   30A      O4'  542   7.497   4.732   6.584
   30A      C1'  543   7.400   4.725   6.481
   30A      H1'  544   7.301   4.727   6.526
   30A       N9  545   7.421   4.825   6.377
   30A       C8  546   7.517   4.924   6.369
   30A       H8  547   7.596   4.940   6.441
   30A       N7  548   7.503   5.002   6.264
   30A       C5  549   7.386   4.957   6.206
   30A       C6  550   7.292   5.004   6.106
   30A       N6  551   7.300   5.109   6.022
   30A      H61  552   7.381   5.169   6.014
   30A      H62  553   7.220   5.121   5.962
   30A       N1  554   7.170   4.946   6.093
   30A       C2  555   7.144   4.840   6.172
   30A       H2  556   7.046   4.797   6.157
   30A       N3  557   7.215   4.785   6.268
   30A       C4  558   7.334   4.853   6.278
   30A      C3'  559   7.577   4.570   6.422
   30A      H3'  560   7.629   4.633   6.349
   30A      C2'  561   7.424   4.583   6.417
   30A     H2'1  562   7.388   4.580   6.314
   30A      O2'  563   7.354   4.484   6.499
   30A     HO'2  564   7.389   4.397   6.479
   30A      O3'  565   7.611   4.439   6.412
   31U        P  566   7.662   4.376   6.283
   31U      O1P  567   7.685   4.232   6.303
   31U      O2P  568   7.772   4.462   6.238
   31U      O5'  569   7.546   4.382   6.174
   31U      C5'  570   7.421   4.309   6.178
   31U     H5'1  571   7.388   4.312   6.282
   31U     H5'2  572   7.445   4.203   6.171
   31U      C4'  573   7.316   4.335   6.075
   31U      H4'  574   7.240   4.257   6.079
   31U      O4'  575   7.251   4.464   6.084
   31U      C1'  576   7.233   4.518   5.959
   31U      H1'  577   7.132   4.556   5.943
   31U       N1  578   7.333   4.627   5.928
   31U       C6  579   7.443   4.644   6.000
   31U       H6  580   7.449   4.593   6.095
   31U       C5  581   7.522   4.754   5.977
   31U       H5  582   7.593   4.788   6.052
   31U       C4  583   7.485   4.852   5.883
   31U       O4  584   7.551   4.955   5.860
   31U       N3  585   7.373   4.830   5.814
   31U       H3  586   7.354   4.901   5.744
   31U       C2  587   7.289   4.719   5.830
   31U       O2  588   7.185   4.705   5.765
   31U      C3'  589   7.376   4.326   5.937
   31U      H3'  590   7.462   4.393   5.933
   31U      C2'  591   7.269   4.396   5.861
   31U     H2'1  592   7.320   4.432   5.772
   31U      O2'  593   7.154   4.323   5.826
   31U     HO'2  594   7.128   4.350   5.738
   31U      O3'  595   7.412   4.195   5.899
   32G        P  596   7.512   4.173   5.778
   32G      O1P  597   7.517   4.023   5.743
   32G      O2P  598   7.640   4.237   5.796
   32G      O5'  599   7.452   4.235   5.650
   32G      C5'  600   7.335   4.182   5.585
   32G     H5'1  601   7.247   4.179   5.649
   32G     H5'2  602   7.343   4.077   5.558
   32G      C4'  603   7.295   4.274   5.478
   32G      H4'  604   7.211   4.231   5.423
   32G      O4'  605   7.258   4.406   5.521
   32G      C1'  606   7.319   4.499   5.425
   32G      H1'  607   7.241   4.565   5.385
   32G       N9  608   7.429   4.573   5.490
   32G       C8  609   7.507   4.540   5.596
   32G       H8  610   7.518   4.440   5.636
   32G       N7  611   7.576   4.640   5.637
   32G       C5  612   7.554   4.742   5.546
   32G       C6  613   7.596   4.880   5.536
   32G       O6  614   7.693   4.943   5.591
   32G       N1  615   7.521   4.947   5.435
   32G       H1  616   7.550   5.043   5.425
   32G       C2  617   7.435   4.892   5.344
   32G       N2  618   7.396   4.960   5.239
   32G      H21  619   7.437   5.052   5.227
   32G      H22  620   7.340   4.915   5.168
   32G       N3  621   7.399   4.766   5.355
   32G       C4  622   7.459   4.698   5.454
   32G      C3'  623   7.407   4.285   5.378
   32G      H3'  624   7.502   4.304   5.428
   32G      C2'  625   7.379   4.418   5.309
   32G     H2'1  626   7.472   4.463   5.273
   32G      O2'  627   7.277   4.414   5.209
   32G     HO'2  628   7.318   4.407   5.123
   32G      O3'  629   7.405   4.179   5.279
   33A        P  630   7.530   4.147   5.193
   33A      O1P  631   7.529   4.003   5.176
   33A      O2P  632   7.647   4.208   5.263
   33A      O5'  633   7.510   4.241   5.065
   33A      C5'  634   7.421   4.205   4.956
   33A     H5'1  635   7.319   4.187   4.990
   33A     H5'2  636   7.455   4.120   4.897
   33A      C4'  637   7.409   4.328   4.866
   33A      H4'  638   7.330   4.310   4.793
   33A      O4'  639   7.362   4.441   4.944
   33A      C1'  640   7.422   4.556   4.884
   33A      H1'  641   7.348   4.626   4.844
   33A       N9  642   7.521   4.618   4.973
   33A       C8  643   7.588   4.556   5.071
   33A       H8  644   7.567   4.455   5.103
   33A       N7  645   7.670   4.634   5.136
   33A       C5  646   7.654   4.763   5.076
   33A       C6  647   7.711   4.890   5.099
   33A       N6  648   7.783   4.929   5.200
   33A      H61  649   7.804   4.856   5.267
   33A      H62  650   7.844   5.007   5.182
   33A       N1  651   7.683   4.988   5.009
   33A       C2  652   7.616   4.958   4.904
   33A       H2  653   7.596   5.044   4.842
   33A       N3  654   7.562   4.840   4.870
   33A       C4  655   7.578   4.743   4.964
   33A      C3'  656   7.523   4.368   4.779
   33A      H3'  657   7.612   4.364   4.841
   33A      C2'  658   7.495   4.516   4.754
   33A     H2'1  659   7.586   4.576   4.746
   33A      O2'  660   7.412   4.546   4.646
   33A     HO'2  661   7.406   4.641   4.637
   33A      O3'  662   7.534   4.294   4.661
   34U        P  663   7.672   4.284   4.579
   34U      O1P  664   7.630   4.199   4.469
   34U      O2P  665   7.771   4.228   4.667
   34U      O5'  666   7.715   4.424   4.524
   34U      C5'  667   7.644   4.489   4.425
   34U     H5'1  668   7.537   4.486   4.447
   34U     H5'2  669   7.660   4.437   4.330
   34U      C4'  670   7.687   4.642   4.402
   34U      H4'  671   7.621   4.689   4.329
   34U      O4'  672   7.685   4.712   4.526
   34U      C1'  673   7.812   4.763   4.553
   34U      H1'  674   7.811   4.870   4.531
   34U       N1  675   7.854   4.744   4.689
   34U       C6  676   7.863   4.620   4.738
   34U       H6  677   7.838   4.542   4.668
   34U       C5  678   7.908   4.588   4.862
   34U       H5  679   7.919   4.487   4.898
   34U       C4  680   7.956   4.698   4.948
   34U       O4  681   7.997   4.685   5.067
   34U       N3  682   7.945   4.828   4.894
   34U       H3  683   7.996   4.901   4.942
   34U       C2  684   7.904   4.853   4.765
   34U       O2  685   7.920   4.967   4.729
   34U      C3'  686   7.824   4.649   4.342
   34U      H3'  687   7.868   4.557   4.304
   34U      C2'  688   7.913   4.699   4.455
   34U     H2'1  689   7.958   4.614   4.507
   34U      O2'  690   8.014   4.790   4.411
   34U     HO'2  691   8.020   4.781   4.316
   34U      O3'  692   7.821   4.740   4.234
   35A        P  693   7.766   4.706   4.090
   35A      O1P  694   7.652   4.617   4.093
   35A      O2P  695   7.885   4.662   4.013
   35A      O5'  696   7.722   4.850   4.038
   35A      C5'  697   7.592   4.899   4.048
   35A     H5'1  698   7.564   4.904   4.153
   35A     H5'2  699   7.523   4.838   3.990
   35A      C4'  700   7.600   5.039   3.990
   35A      H4'  701   7.502   5.084   3.973
   35A      O4'  702   7.672   5.110   4.088
   35A      C1'  703   7.765   5.214   4.037
   35A      H1'  704   7.750   5.315   4.075
   35A       N9  705   7.907   5.164   4.073
   35A       C8  706   7.932   5.093   4.188
   35A       H8  707   7.862   5.025   4.235
   35A       N7  708   8.063   5.092   4.216
   35A       C5  709   8.119   5.170   4.121
   35A       C6  710   8.255   5.214   4.095
   35A       N6  711   8.363   5.175   4.150
   35A      H61  712   8.359   5.090   4.205
   35A      H62  713   8.445   5.192   4.094
   35A       N1  714   8.273   5.290   3.990
   35A       C2  715   8.174   5.324   3.907
   35A       H2  716   8.202   5.383   3.821
   35A       N3  717   8.048   5.288   3.917
   35A       C4  718   8.025   5.210   4.027
   35A      C3'  719   7.676   5.066   3.858
   35A      H3'  720   7.753   4.991   3.844
   35A      C2'  721   7.738   5.208   3.889
   35A     H2'1  722   7.831   5.231   3.837
   35A      O2'  723   7.643   5.314   3.873
   35A     HO'2  724   7.574   5.303   3.938
   35A      O3'  725   7.591   5.062   3.750
   36U        P  726   7.545   4.921   3.677
   36U      O1P  727   7.649   4.817   3.688
   36U      O2P  728   7.506   4.963   3.547
   36U      O5'  729   7.416   4.883   3.761
   36U      C5'  730   7.311   4.977   3.786
   36U     H5'1  731   7.280   5.037   3.700
   36U     H5'2  732   7.338   5.041   3.870
   36U      C4'  733   7.188   4.891   3.818
   36U      H4'  734   7.104   4.958   3.836
   36U      O4'  735   7.147   4.818   3.701
   36U      C1'  736   7.140   4.676   3.738
   36U      H1'  737   7.041   4.642   3.769
   36U       N1  738   7.189   4.595   3.620
   36U       C6  739   7.293   4.639   3.545
   36U       H6  740   7.354   4.720   3.582
   36U       C5  741   7.324   4.573   3.434
   36U       H5  742   7.406   4.610   3.373
   36U       C4  743   7.266   4.452   3.392
   36U       O4  744   7.295   4.390   3.289
   36U       N3  745   7.171   4.405   3.473
   36U       H3  746   7.100   4.354   3.422
   36U       C2  747   7.126   4.473   3.587
   36U       O2  748   7.027   4.435   3.649
   36U      C3'  749   7.205   4.799   3.941
   36U      H3'  750   7.288   4.831   4.004
   36U      C2'  751   7.232   4.672   3.863
   36U     H2'1  752   7.338   4.681   3.840
   36U      O2'  753   7.213   4.548   3.933
   36U     HO'2  754   7.121   4.549   3.962
   36U      O3'  755   7.082   4.784   4.015
   37G        P  756   7.024   4.894   4.109
   37G      O1P  757   6.893   4.843   4.159
   37G      O2P  758   7.025   5.029   4.056
   37G      O5'  759   7.137   4.879   4.224
   37G      C5'  760   7.157   4.765   4.305
   37G     H5'1  761   7.164   4.674   4.245
   37G     H5'2  762   7.057   4.748   4.346
   37G      C4'  763   7.248   4.782   4.421
   37G      H4'  764   7.254   4.688   4.476
   37G      O4'  765   7.379   4.815   4.377
   37G      C1'  766   7.430   4.913   4.465
   37G      H1'  767   7.534   4.885   4.483
   37G       N9  768   7.445   5.041   4.391
   37G       C8  769   7.352   5.123   4.330
   37G       H8  770   7.252   5.084   4.315
   37G       N7  771   7.396   5.242   4.288
   37G       C5  772   7.531   5.241   4.337
   37G       C6  773   7.633   5.337   4.324
   37G       O6  774   7.634   5.444   4.264
   37G       N1  775   7.737   5.310   4.406
   37G       H1  776   7.815   5.374   4.395
   37G       C2  777   7.752   5.194   4.474
   37G       N2  778   7.863   5.169   4.541
   37G      H21  779   7.924   5.248   4.558
   37G      H22  780   7.861   5.088   4.601
   37G       N3  781   7.665   5.097   4.477
   37G       C4  782   7.555   5.125   4.400
   37G      C3'  783   7.205   4.889   4.518
   37G      H3'  784   7.178   4.983   4.470
   37G      C2'  785   7.331   4.912   4.589
   37G     H2'1  786   7.326   5.014   4.627
   37G      O2'  787   7.373   4.811   4.676
   37G     HO'2  788   7.445   4.837   4.734
   37G      O3'  789   7.091   4.847   4.598
   38G        P  790   6.988   4.949   4.648
   38G      O1P  791   6.909   4.874   4.750
   38G      O2P  792   6.923   5.022   4.532
   38G      O5'  793   7.081   5.045   4.735
   38G      C5'  794   7.133   5.002   4.855
   38G     H5'1  795   7.179   4.903   4.848
   38G     H5'2  796   7.043   4.992   4.915
   38G      C4'  797   7.227   5.097   4.934
   38G      H4'  798   7.254   5.053   5.030
   38G      O4'  799   7.339   5.122   4.852
   38G      C1'  800   7.367   5.256   4.859
   38G      H1'  801   7.474   5.260   4.879
   38G       N9  802   7.354   5.322   4.724
   38G       C8  803   7.257   5.321   4.632
   38G       H8  804   7.177   5.251   4.651
   38G       N7  805   7.265   5.413   4.539
   38G       C5  806   7.393   5.474   4.562
   38G       C6  807   7.460   5.573   4.486
   38G       O6  808   7.436   5.633   4.378
   38G       N1  809   7.586   5.597   4.535
   38G       H1  810   7.648   5.667   4.497
   38G       C2  811   7.642   5.536   4.644
   38G       N2  812   7.767   5.565   4.673
   38G      H21  813   7.819   5.636   4.625
   38G      H22  814   7.807   5.520   4.754
   38G       N3  815   7.582   5.433   4.708
   38G       C4  816   7.453   5.410   4.669
   38G      C3'  817   7.166   5.235   4.954
   38G      H3'  818   7.102   5.260   4.870
   38G      C2'  819   7.287   5.327   4.964
   38G     H2'1  820   7.271   5.429   4.930
   38G      O2'  821   7.337   5.321   5.093
   38G     HO'2  822   7.256   5.317   5.145
   38G      O3'  823   7.084   5.250   5.071
   39U        P  824   6.930   5.288   5.056
   39U      O1P  825   6.890   5.309   4.914
   39U      O2P  826   6.922   5.395   5.156
   39U      O5'  827   6.843   5.165   5.107
   39U      C5'  828   6.801   5.070   5.020
   39U     H5'1  829   6.882   5.063   4.947
   39U     H5'2  830   6.706   5.108   4.983
   39U      C4'  831   6.779   4.942   5.096
   39U      H4'  832   6.732   4.868   5.031
   39U      O4'  833   6.909   4.890   5.125
   39U      C1'  834   6.910   4.827   5.247
   39U      H1'  835   6.949   4.725   5.244
   39U       N1  836   6.987   4.895   5.361
   39U       C6  837   7.047   5.019   5.346
   39U       H6  838   7.024   5.078   5.258
   39U       C5  839   7.148   5.063   5.428
   39U       H5  840   7.207   5.151   5.407
   39U       C4  841   7.197   4.977   5.536
   39U       O4  842   7.268   5.019   5.621
   39U       N3  843   7.129   4.860   5.542
   39U       H3  844   7.140   4.806   5.627
   39U       C2  845   7.026   4.811   5.460
   39U       O2  846   6.995   4.699   5.484
   39U      C3'  847   6.696   4.949   5.221
   39U      H3'  848   6.731   5.034   5.279
   39U      C2'  849   6.758   4.822   5.289
   39U     H2'1  850   6.757   4.814   5.398
   39U      O2'  851   6.693   4.705   5.238
   39U     HO'2  852   6.599   4.724   5.235
   39U      O3'  853   6.552   4.964   5.210
   40U        P  854   6.475   4.994   5.343
   40U      O1P  855   6.331   4.976   5.319
   40U      O2P  856   6.527   5.120   5.394
   40U      O5'  857   6.527   4.886   5.451
   40U      C5'  858   6.457   4.757   5.475
   40U     H5'1  859   6.452   4.694   5.386
   40U     H5'2  860   6.356   4.787   5.501
   40U      C4'  861   6.511   4.682   5.602
   40U      H4'  862   6.478   4.579   5.611
   40U      O4'  863   6.657   4.692   5.594
   40U      C1'  864   6.717   4.714   5.726
   40U      H1'  865   6.775   4.626   5.756
   40U       N1  866   6.811   4.833   5.745
   40U       C6  867   6.798   4.947   5.666
   40U       H6  868   6.730   4.939   5.582
   40U       C5  869   6.873   5.055   5.686
   40U       H5  870   6.866   5.140   5.619
   40U       C4  871   6.970   5.064   5.791
   40U       O4  872   7.051   5.150   5.828
   40U       N3  873   6.979   4.944   5.863
   40U       H3  874   7.042   4.952   5.941
   40U       C2  875   6.903   4.830   5.853
   40U       O2  876   6.902   4.739   5.938
   40U      C3'  877   6.475   4.762   5.729
   40U      H3'  878   6.487   4.870   5.718
   40U      C2'  879   6.596   4.728   5.822
   40U     H2'1  880   6.629   4.801   5.896
   40U      O2'  881   6.592   4.589   5.881
   40U     HO'2  882   6.585   4.613   5.974
   40U      O3'  883   6.353   4.718   5.790
   41U        P  884   6.252   4.802   5.866
   41U      O1P  885   6.126   4.728   5.869
   41U      O2P  886   6.249   4.940   5.812
   41U      O5'  887   6.319   4.801   6.008
   41U      C5'  888   6.327   4.681   6.084
   41U     H5'1  889   6.338   4.590   6.025
   41U     H5'2  890   6.233   4.669   6.137
   41U      C4'  891   6.439   4.675   6.191
   41U      H4'  892   6.438   4.575   6.235
   41U      O4'  893   6.567   4.701   6.147
   41U      C1'  894   6.646   4.756   6.253
   41U      H1'  895   6.726   4.693   6.292
   41U       N1  896   6.706   4.893   6.224
   41U       C6  897   6.665   4.968   6.116
   41U       H6  898   6.573   4.943   6.065
   41U       C5  899   6.726   5.094   6.094
   41U       H5  900   6.685   5.160   6.019
   41U       C4  901   6.849   5.132   6.157
   41U       O4  902   6.917   5.229   6.130
   41U       N3  903   6.876   5.051   6.260
   41U       H3  904   6.957   5.077   6.314
   41U       C2  905   6.815   4.941   6.298
   41U       O2  906   6.846   4.890   6.405
   41U      C3'  907   6.413   4.781   6.302
   41U      H3'  908   6.391   4.875   6.252
   41U      C2'  909   6.546   4.770   6.368
   41U     H2'1  910   6.568   4.859   6.427
   41U      O2'  911   6.561   4.650   6.450
   41U     HO'2  912   6.637   4.655   6.509
   41U      O3'  913   6.308   4.749   6.388
   42G        P  914   6.258   4.863   6.485
   42G      O1P  915   6.151   4.798   6.572
   42G      O2P  916   6.219   4.977   6.401
   42G      O5'  917   6.384   4.900   6.572
   42G      C5'  918   6.423   4.820   6.684
   42G     H5'1  919   6.430   4.714   6.659
   42G     H5'2  920   6.345   4.822   6.760
   42G      C4'  921   6.555   4.874   6.746
   42G      H4'  922   6.594   4.808   6.824
   42G      O4'  923   6.648   4.908   6.645
   42G      C1'  924   6.731   5.013   6.687
   42G      H1'  925   6.832   4.985   6.718
   42G       N9  926   6.750   5.129   6.595
   42G       C8  927   6.681   5.176   6.486
   42G       H8  928   6.588   5.127   6.461
   42G       N7  929   6.720   5.285   6.428
   42G       C5  930   6.837   5.313   6.506
   42G       C6  931   6.945   5.417   6.503
   42G       O6  932   6.964   5.505   6.419
   42G       N1  933   7.028   5.414   6.617
   42G       H1  934   7.097   5.487   6.626
   42G       C2  935   7.028   5.321   6.711
   42G       N2  936   7.129   5.321   6.801
   42G      H21  937   7.201   5.392   6.797
   42G      H22  938   7.129   5.245   6.867
   42G       N3  939   6.945   5.215   6.712
   42G       C4  940   6.852   5.224   6.609
   42G      C3'  941   6.524   5.015   6.803
   42G      H3'  942   6.466   5.080   6.737
   42G      C2'  943   6.668   5.062   6.819
   42G     H2'1  944   6.669   5.171   6.823
   42G      O2'  945   6.746   5.011   6.924
   42G     HO'2  946   6.681   4.998   6.994
   42G      O3'  947   6.455   4.991   6.923
   43G        P  948   6.376   5.116   6.991
   43G      O1P  949   6.315   5.070   7.117
   43G      O2P  950   6.288   5.162   6.893
   43G      O5'  951   6.481   5.240   7.027
   43G      C5'  952   6.582   5.231   7.132
   43G     H5'1  953   6.652   5.153   7.103
   43G     H5'2  954   6.540   5.198   7.227
   43G      C4'  955   6.659   5.359   7.155
   43G      H4'  956   6.719   5.355   7.246
   43G      O4'  957   6.742   5.389   7.044
   43G      C1'  958   6.730   5.523   7.019
   43G      H1'  959   6.794   5.580   7.087
   43G       N9  960   6.774   5.561   6.879
   43G       C8  961   6.695   5.557   6.769
   43G       H8  962   6.606   5.497   6.759
   43G       N7  963   6.745   5.624   6.667
   43G       C5  964   6.866   5.672   6.721
   43G       C6  965   6.959   5.761   6.666
   43G       O6  966   6.972   5.805   6.555
   43G       N1  967   7.062   5.800   6.751
   43G       H1  968   7.119   5.881   6.729
   43G       C2  969   7.077   5.750   6.873
   43G       N2  970   7.176   5.796   6.943
   43G      H21  971   7.226   5.878   6.912
   43G      H22  972   7.205   5.738   7.020
   43G       N3  973   6.991   5.673   6.940
   43G       C4  974   6.890   5.635   6.851
   43G      C3'  975   6.566   5.474   7.182
   43G      H3'  976   6.464   5.437   7.189
   43G      C2'  977   6.580   5.544   7.044
   43G     H2'1  978   6.517   5.481   6.981
   43G      O2'  979   6.523   5.675   7.039
   43G     HO'2  980   6.499   5.689   7.131
   43G      O3'  981   6.616   5.547   7.290
   44G        P  982   6.524   5.647   7.367
   44G      O1P  983   6.474   5.584   7.490
   44G      O2P  984   6.436   5.706   7.268
   44G      O5'  985   6.634   5.750   7.401
   44G      C5'  986   6.728   5.726   7.500
   44G     H5'1  987   6.771   5.626   7.490
   44G     H5'2  988   6.689   5.741   7.601
   44G      C4'  989   6.850   5.810   7.482
   44G      H4'  990   6.916   5.788   7.566
   44G      O4'  991   6.929   5.780   7.370
   44G      C1'  992   6.983   5.892   7.310
   44G      H1'  993   7.090   5.879   7.295
   44G       N9  994   6.914   5.927   7.179
   44G       C8  995   6.803   5.867   7.126
   44G       H8  996   6.750   5.793   7.184
   44G       N7  997   6.771   5.901   7.002
   44G       C5  998   6.867   6.000   6.979
   44G       C6  999   6.884   6.088   6.870
   44G       O6 1000   6.813   6.089   6.767
   44G       N1 1001   6.981   6.181   6.881
   44G       H1 1002   7.002   6.244   6.805
   44G       C2 1003   7.061   6.181   6.983
   44G       N2 1004   7.145   6.279   6.993
   44G      H21 1005   7.153   6.343   6.915
   44G      H22 1006   7.216   6.279   7.065
   44G       N3 1007   7.043   6.118   7.103
   44G       C4 1008   6.950   6.018   7.086
   44G      C3' 1009   6.821   5.965   7.476
   44G      H3' 1010   6.735   5.971   7.409
   44G      C2' 1011   6.950   6.010   7.402
   44G     H2'1 1012   6.921   6.093   7.337
   44G      O2' 1013   7.064   6.050   7.483
   44G     HO'2 1014   7.035   6.135   7.517
   44G      O3' 1015   6.811   6.026   7.605
   45A        P 1016   6.699   6.130   7.647
   45A      O1P 1017   6.678   6.103   7.792
   45A      O2P 1018   6.582   6.109   7.563
   45A      O5' 1019   6.749   6.279   7.614
   45A      C5' 1020   6.871   6.327   7.668
   45A     H5'1 1021   6.931   6.238   7.687
   45A     H5'2 1022   6.855   6.378   7.763
   45A      C4' 1023   6.950   6.421   7.579
   45A      H4' 1024   7.042   6.449   7.629
   45A      O4' 1025   7.001   6.353   7.467
   45A      C1' 1026   7.000   6.434   7.354
   45A      H1' 1027   7.096   6.422   7.303
   45A       N9 1028   6.887   6.394   7.266
   45A       C8 1029   6.786   6.303   7.290
   45A       H8 1030   6.782   6.248   7.383
   45A       N7 1031   6.711   6.268   7.186
   45A       C5 1032   6.761   6.358   7.090
   45A       C6 1033   6.736   6.377   6.950
   45A       N6 1034   6.646   6.326   6.876
   45A      H61 1035   6.585   6.251   6.906
   45A      H62 1036   6.646   6.360   6.781
   45A       N1 1037   6.798   6.472   6.880
   45A       C2 1038   6.894   6.540   6.939
   45A       H2 1039   6.947   6.621   6.890
   45A       N3 1040   6.938   6.524   7.061
   45A       C4 1041   6.870   6.431   7.133
   45A      C3' 1042   6.873   6.547   7.525
   45A      H3' 1043   6.774   6.523   7.487
   45A      C2' 1044   6.972   6.574   7.409
   45A     H2'1 1045   6.925   6.642   7.339
   45A      O2' 1046   7.098   6.616   7.446
   45A     HO'2 1047   7.101   6.640   7.539
   45A      O3' 1048   6.880   6.662   7.613
   46G        P 1049   6.769   6.765   7.643
   46G      O1P 1050   6.831   6.884   7.703
   46G      O2P 1051   6.645   6.695   7.705
   46G      O5' 1052   6.733   6.798   7.496
   46G      C5' 1053   6.812   6.898   7.430
   46G     H5'1 1054   6.914   6.861   7.420
   46G     H5'2 1055   6.814   6.992   7.485
   46G      C4' 1056   6.764   6.931   7.290
   46G      H4' 1057   6.825   7.016   7.260
   46G      O4' 1058   6.776   6.831   7.191
   46G      C1' 1059   6.673   6.859   7.092
   46G      H1' 1060   6.718   6.883   6.995
   46G       N9 1061   6.589   6.731   7.087
   46G       C8 1062   6.557   6.640   7.185
   46G       H8 1063   6.588   6.652   7.288
   46G       N7 1064   6.480   6.543   7.159
   46G       C5 1065   6.455   6.567   7.021
   46G       C6 1066   6.370   6.496   6.930
   46G       O6 1067   6.295   6.406   6.958
   46G       N1 1068   6.379   6.537   6.802
   46G       H1 1069   6.321   6.492   6.733
   46G       C2 1070   6.453   6.638   6.762
   46G       N2 1071   6.433   6.678   6.641
   46G      H21 1072   6.365   6.634   6.580
   46G      H22 1073   6.464   6.772   6.620
   46G       N3 1074   6.514   6.730   6.848
   46G       C4 1075   6.516   6.683   6.976
   46G      C3' 1076   6.622   6.982   7.293
   46G      H3' 1077   6.558   6.908   7.342
   46G      C2' 1078   6.581   6.974   7.147
   46G     H2'1 1079   6.475   6.953   7.136
   46G      O2' 1080   6.604   7.094   7.086
   46G     HO'2 1081   6.570   7.167   7.138
   46G      O3' 1082   6.605   7.103   7.356
   47U        P 1083   6.468   7.157   7.416
   47U      O1P 1084   6.497   7.256   7.510
   47U      O2P 1085   6.390   7.038   7.461
   47U      O5' 1086   6.396   7.210   7.282
   47U      C5' 1087   6.432   7.339   7.230
   47U     H5'1 1088   6.487   7.316   7.139
   47U     H5'2 1089   6.497   7.401   7.292
   47U      C4' 1090   6.310   7.418   7.200
   47U      H4' 1091   6.350   7.509   7.155
   47U      O4' 1092   6.239   7.356   7.097
   47U      C1' 1093   6.100   7.349   7.113
   47U      H1' 1094   6.040   7.412   7.048
   47U       N1 1095   6.048   7.209   7.110
   47U       C6 1096   6.073   7.116   7.206
   47U       H6 1097   6.127   7.150   7.293
   47U       C5 1098   6.017   6.992   7.194
   47U       H5 1099   6.017   6.924   7.278
   47U       C4 1100   5.933   6.956   7.079
   47U       O4 1101   5.873   6.847   7.056
   47U       N3 1102   5.921   7.056   6.983
   47U       H3 1103   5.862   7.023   6.908
   47U       C2 1104   5.974   7.180   6.997
   47U       O2 1105   5.948   7.257   6.904
   47U      C3' 1106   6.214   7.434   7.317
   47U      H3' 1107   6.236   7.365   7.399
   47U      C2' 1108   6.082   7.420   7.244
   47U     H2'1 1109   6.020   7.353   7.303
   47U      O2' 1110   6.021   7.542   7.206
   47U     HO'2 1111   6.038   7.606   7.276
   47U      O3' 1112   6.243   7.567   7.357
   48U        P 1113   6.206   7.604   7.499
   48U      O1P 1114   6.287   7.722   7.530
   48U      O2P 1115   6.213   7.486   7.590
   48U      O5' 1116   6.064   7.649   7.470
   48U      C5' 1117   5.993   7.761   7.536
   48U     H5'1 1118   6.025   7.856   7.493
   48U     H5'2 1119   6.031   7.764   7.638
   48U      C4' 1120   5.844   7.747   7.563
   48U      H4' 1121   5.836   7.662   7.631
   48U      O4' 1122   5.793   7.860   7.635
   48U      C1' 1123   5.692   7.919   7.554
   48U      H1' 1124   5.598   7.868   7.574
   48U       N1 1125   5.673   8.061   7.581
   48U       C6 1126   5.754   8.134   7.668
   48U       H6 1127   5.839   8.096   7.722
   48U       C5 1128   5.738   8.267   7.680
   48U       H5 1129   5.808   8.328   7.736
   48U       C4 1130   5.629   8.333   7.619
   48U       O4 1131   5.596   8.451   7.632
   48U       N3 1132   5.543   8.254   7.548
   48U       H3 1133   5.474   8.295   7.487
   48U       C2 1134   5.560   8.118   7.520
   48U       O2 1135   5.477   8.068   7.442
   48U      C3' 1136   5.760   7.729   7.435
   48U      H3' 1137   5.803   7.688   7.344
   48U      C2' 1138   5.714   7.871   7.411
   48U     H2'1 1139   5.790   7.936   7.368
   48U      O2' 1140   5.598   7.872   7.329
   48U     HO'2 1141   5.549   7.954   7.336
   48U      O3' 1142   5.646   7.648   7.467
   49U        P 1143   5.668   7.492   7.440
   49U      O1P 1144   5.550   7.423   7.495
   49U      O2P 1145   5.802   7.444   7.483
   49U      O5' 1146   5.666   7.483   7.280
   49U      C5' 1147   5.543   7.461   7.213
   49U     H5'1 1148   5.475   7.535   7.254
   49U     H5'2 1149   5.521   7.356   7.235
   49U      C4' 1150   5.559   7.489   7.067
   49U      H4' 1151   5.470   7.454   7.014
   49U      O4' 1152   5.574   7.630   7.042
   49U      C1' 1153   5.667   7.639   6.931
   49U      H1' 1154   5.614   7.606   6.842
   49U       N1 1155   5.710   7.788   6.924
   49U       C6 1156   5.731   7.855   7.044
   49U       H6 1157   5.717   7.795   7.133
   49U       C5 1158   5.776   7.986   7.049
   49U       H5 1159   5.785   8.040   7.142
   49U       C4 1160   5.795   8.057   6.926
   49U       O4 1161   5.844   8.168   6.924
   49U       N3 1162   5.748   7.990   6.817
   49U       H3 1163   5.753   8.038   6.728
   49U       C2 1164   5.709   7.858   6.808
   49U       O2 1165   5.694   7.804   6.697
   49U      C3' 1166   5.676   7.417   7.004
   49U      H3' 1167   5.719   7.346   7.075
   49U      C2' 1168   5.772   7.532   6.971
   49U     H2'1 1169   5.815   7.563   7.066
   49U      O2' 1170   5.868   7.525   6.873
   49U     HO'2 1171   5.873   7.431   6.855
   49U      O3' 1172   5.645   7.352   6.879
   50C        P 1173   5.558   7.216   6.878
   50C      O1P 1174   5.492   7.200   7.010
   50C      O2P 1175   5.648   7.112   6.826
   50C      O5' 1176   5.448   7.231   6.759
   50C      C5' 1177   5.325   7.290   6.782
   50C     H5'1 1178   5.336   7.395   6.808
   50C     H5'2 1179   5.279   7.231   6.861
   50C      C4' 1180   5.242   7.273   6.661
   50C      H4' 1181   5.141   7.286   6.700
   50C      O4' 1182   5.258   7.372   6.563
   50C      C1' 1183   5.236   7.320   6.429
   50C      H1' 1184   5.171   7.390   6.377
   50C       N1 1185   5.363   7.303   6.347
   50C       C6 1186   5.476   7.359   6.395
   50C       H6 1187   5.473   7.427   6.478
   50C       C5 1188   5.596   7.327   6.335
   50C       H5 1189   5.689   7.361   6.379
   50C       C4 1190   5.595   7.252   6.214
   50C       N4 1191   5.705   7.237   6.147
   50C      H41 1192   5.792   7.272   6.184
   50C      H42 1193   5.702   7.188   6.059
   50C       N3 1194   5.482   7.210   6.163
   50C       C2 1195   5.364   7.236   6.222
   50C       O2 1196   5.258   7.190   6.173
   50C      C3' 1197   5.227   7.141   6.590
   50C      H3' 1198   5.330   7.106   6.581
   50C      C2' 1199   5.171   7.184   6.457
   50C     H2'1 1200   5.197   7.113   6.379
   50C      O2' 1201   5.025   7.196   6.439
   50C     HO'2 1202   4.977   7.113   6.450
   50C      O3' 1203   5.137   7.061   6.658
   51U        P 1204   5.182   6.910   6.687
   51U      O1P 1205   5.061   6.845   6.728
   51U      O2P 1206   5.299   6.925   6.773
   51U      O5' 1207   5.234   6.847   6.553
   51U      C5' 1208   5.149   6.805   6.445
   51U     H5'1 1209   5.069   6.878   6.435
   51U     H5'2 1210   5.083   6.720   6.462
   51U      C4' 1211   5.233   6.805   6.317
   51U      H4' 1212   5.158   6.786   6.240
   51U      O4' 1213   5.317   6.917   6.287
   51U      C1' 1214   5.426   6.878   6.210
   51U      H1' 1215   5.411   6.917   6.109
   51U       N1 1216   5.558   6.901   6.270
   51U       C6 1217   5.573   6.916   6.409
   51U       H6 1218   5.495   6.918   6.483
   51U       C5 1219   5.694   6.928   6.463
   51U       H5 1220   5.704   6.932   6.570
   51U       C4 1221   5.813   6.935   6.387
   51U       O4 1222   5.926   6.964   6.432
   51U       N3 1223   5.796   6.936   6.252
   51U       H3 1224   5.880   6.945   6.197
   51U       C2 1225   5.673   6.930   6.187
   51U       O2 1226   5.668   6.954   6.063
   51U      C3' 1227   5.325   6.682   6.310
   51U      H3' 1228   5.391   6.672   6.397
   51U      C2' 1229   5.407   6.726   6.190
   51U     H2'1 1230   5.504   6.677   6.186
   51U      O2' 1231   5.335   6.699   6.068
   51U     HO'2 1232   5.259   6.641   6.081
   51U      O3' 1233   5.254   6.560   6.292
   52A        P 1234   5.320   6.417   6.329
   52A      O1P 1235   5.252   6.311   6.244
   52A      O2P 1236   5.323   6.399   6.486
   52A      O5' 1237   5.462   6.413   6.273
   52A      C5' 1238   5.494   6.413   6.133
   52A     H5'1 1239   5.438   6.489   6.080
   52A     H5'2 1240   5.449   6.320   6.097
   52A      C4' 1241   5.654   6.427   6.102
   52A      H4' 1242   5.663   6.433   5.994
   52A      O4' 1243   5.688   6.557   6.152
   52A      C1' 1244   5.818   6.551   6.218
   52A      H1' 1245   5.888   6.628   6.186
   52A       N9 1246   5.815   6.555   6.366
   52A       C8 1247   5.714   6.540   6.448
   52A       H8 1248   5.620   6.502   6.410
   52A       N7 1249   5.734   6.564   6.575
   52A       C5 1250   5.865   6.611   6.566
   52A       C6 1251   5.965   6.656   6.657
   52A       N6 1252   5.937   6.667   6.784
   52A      H61 1253   5.853   6.629   6.825
   52A      H62 1254   6.003   6.702   6.852
   52A       N1 1255   6.091   6.690   6.623
   52A       C2 1256   6.120   6.683   6.496
   52A       H2 1257   6.218   6.713   6.463
   52A       N3 1258   6.038   6.654   6.398
   52A       C4 1259   5.917   6.611   6.437
   52A      C3' 1260   5.753   6.324   6.156
   52A      H3' 1261   5.728   6.294   6.258
   52A      C2' 1262   5.875   6.417   6.162
   52A     H2'1 1263   5.940   6.384   6.243
   52A      O2' 1264   5.951   6.440   6.038
   52A     HO'2 1265   6.031   6.491   6.050
   52A      O3' 1266   5.772   6.208   6.068
   53C        P 1267   5.865   6.081   6.105
   53C      O1P 1268   5.859   5.982   6.000
   53C      O2P 1269   5.835   6.031   6.240
   53C      O5' 1270   6.025   6.116   6.105
   53C      C5' 1271   6.104   6.154   5.988
   53C     H5'1 1272   6.048   6.229   5.933
   53C     H5'2 1273   6.137   6.070   5.927
   53C      C4' 1274   6.234   6.225   6.021
   53C      H4' 1275   6.263   6.282   5.932
   53C      O4' 1276   6.213   6.322   6.126
   53C      C1' 1277   6.287   6.279   6.247
   53C      H1' 1278   6.375   6.344   6.248
   53C       N1 1279   6.212   6.294   6.377
   53C       C6 1280   6.101   6.222   6.400
   53C       H6 1281   6.070   6.148   6.328
   53C       C5 1282   6.038   6.240   6.514
   53C       H5 1283   5.949   6.182   6.533
   53C       C4 1284   6.093   6.332   6.614
   53C       N4 1285   6.039   6.358   6.728
   53C      H41 1286   5.951   6.324   6.763
   53C      H42 1287   6.088   6.422   6.789
   53C       N3 1288   6.207   6.397   6.595
   53C       C2 1289   6.261   6.386   6.472
   53C       O2 1290   6.358   6.463   6.449
   53C      C3' 1291   6.348   6.136   6.066
   53C      H3' 1292   6.327   6.031   6.045
   53C      C2' 1293   6.346   6.138   6.222
   53C     H2'1 1294   6.282   6.057   6.257
   53C      O2' 1295   6.476   6.129   6.279
   53C     HO'2 1296   6.542   6.122   6.210
   53C      O3' 1297   6.481   6.179   6.020
   54C        P 1298   6.558   6.081   5.924
   54C      O1P 1299   6.534   5.944   5.978
   54C      O2P 1300   6.692   6.132   5.931
   54C      O5' 1301   6.493   6.096   5.775
   54C      C5' 1302   6.380   6.016   5.740
   54C     H5'1 1303   6.300   6.019   5.815
   54C     H5'2 1304   6.406   5.912   5.722
   54C      C4' 1305   6.316   6.073   5.613
   54C      H4' 1306   6.226   6.017   5.588
   54C      O4' 1307   6.277   6.214   5.623
   54C      C1' 1308   6.294   6.275   5.497
   54C      H1' 1309   6.195   6.300   5.459
   54C       N1 1310   6.385   6.386   5.483
   54C       C6 1311   6.476   6.407   5.583
   54C       H6 1312   6.487   6.334   5.661
   54C       C5 1313   6.548   6.523   5.579
   54C       H5 1314   6.614   6.547   5.661
   54C       C4 1315   6.526   6.616   5.473
   54C       N4 1316   6.552   6.742   5.488
   54C      H41 1317   6.601   6.766   5.573
   54C      H42 1318   6.515   6.805   5.418
   54C       N3 1319   6.445   6.588   5.375
   54C       C2 1320   6.377   6.471   5.371
   54C       O2 1321   6.300   6.446   5.274
   54C      C3' 1322   6.402   6.071   5.481
   54C      H3' 1323   6.504   6.108   5.493
   54C      C2' 1324   6.348   6.175   5.392
   54C     H2'1 1325   6.419   6.218   5.322
   54C      O2' 1326   6.239   6.121   5.315
   54C     HO'2 1327   6.265   6.060   5.245
   54C      O3' 1328   6.400   5.948   5.413
   55A        P 1329   6.504   5.878   5.320
   55A      O1P 1330   6.504   5.733   5.353
   55A      O2P 1331   6.626   5.959   5.314
   55A      O5' 1332   6.448   5.899   5.171
   55A      C5' 1333   6.325   5.854   5.133
   55A     H5'1 1334   6.245   5.852   5.207
   55A     H5'2 1335   6.338   5.752   5.097
   55A      C4' 1336   6.270   5.956   5.025
   55A      H4' 1337   6.166   5.929   5.010
   55A      O4' 1338   6.272   6.091   5.065
   55A      C1' 1339   6.327   6.178   4.961
   55A      H1' 1340   6.258   6.261   4.945
   55A       N9 1341   6.450   6.244   5.006
   55A       C8 1342   6.551   6.206   5.094
   55A       H8 1343   6.551   6.109   5.141
   55A       N7 1344   6.642   6.302   5.117
   55A       C5 1345   6.583   6.414   5.052
   55A       C6 1346   6.614   6.555   5.034
   55A       N6 1347   6.706   6.619   5.107
   55A      H61 1348   6.772   6.564   5.160
   55A      H62 1349   6.729   6.714   5.080
   55A       N1 1350   6.538   6.636   4.962
   55A       C2 1351   6.438   6.579   4.898
   55A       H2 1352   6.383   6.652   4.841
   55A       N3 1353   6.406   6.453   4.890
   55A       C4 1354   6.480   6.372   4.968
   55A      C3' 1355   6.347   5.949   4.897
   55A      H3' 1356   6.450   5.930   4.929
   55A      C2' 1357   6.334   6.089   4.833
   55A     H2'1 1358   6.424   6.107   4.774
   55A      O2' 1359   6.215   6.101   4.743
   55A     HO'2 1360   6.237   6.045   4.669
   55A      O3' 1361   6.304   5.845   4.813
   56A        P 1362   6.387   5.794   4.695
   56A      O1P 1363   6.334   5.675   4.631
   56A      O2P 1364   6.527   5.779   4.738
   56A      O5' 1365   6.386   5.915   4.587
   56A      C5' 1366   6.332   5.898   4.452
   56A     H5'1 1367   6.226   5.875   4.458
   56A     H5'2 1368   6.383   5.823   4.391
   56A      C4' 1369   6.341   6.029   4.370
   56A      H4' 1370   6.265   6.022   4.293
   56A      O4' 1371   6.308   6.140   4.448
   56A      C1' 1372   6.397   6.252   4.415
   56A      H1' 1373   6.350   6.349   4.396
   56A       N9 1374   6.506   6.273   4.512
   56A       C8 1375   6.575   6.171   4.577
   56A       H8 1376   6.547   6.067   4.574
   56A       N7 1377   6.647   6.222   4.677
   56A       C5 1378   6.649   6.364   4.649
   56A       C6 1379   6.722   6.466   4.711
   56A       N6 1380   6.805   6.455   4.809
   56A      H61 1381   6.834   6.369   4.854
   56A      H62 1382   6.868   6.532   4.824
   56A       N1 1383   6.708   6.587   4.660
   56A       C2 1384   6.619   6.601   4.561
   56A       H2 1385   6.617   6.703   4.524
   56A       N3 1386   6.537   6.520   4.499
   56A       C4 1387   6.562   6.394   4.547
   56A      C3' 1388   6.468   6.056   4.299
   56A      H3' 1389   6.557   6.021   4.351
   56A      C2' 1390   6.470   6.207   4.283
   56A     H2'1 1391   6.565   6.259   4.268
   56A      O2' 1392   6.393   6.238   4.168
   56A     HO'2 1393   6.345   6.160   4.138
   56A      O3' 1394   6.466   5.998   4.161
   57G        P 1395   6.591   5.944   4.085
   57G      O1P 1396   6.542   5.875   3.964
   57G      O2P 1397   6.674   5.869   4.175
   57G      O5' 1398   6.679   6.070   4.050
   57G      C5' 1399   6.661   6.145   3.932
   57G     H5'1 1400   6.563   6.192   3.938
   57G     H5'2 1401   6.689   6.085   3.846
   57G      C4' 1402   6.759   6.257   3.937
   57G      H4' 1403   6.734   6.303   3.842
   57G      O4' 1404   6.724   6.360   4.036
   57G      C1' 1405   6.846   6.410   4.086
   57G      H1' 1406   6.852   6.519   4.083
   57G       N9 1407   6.878   6.364   4.232
   57G       C8 1408   6.849   6.247   4.300
   57G       H8 1409   6.804   6.160   4.255
   57G       N7 1410   6.900   6.229   4.417
   57G       C5 1411   6.967   6.345   4.433
   57G       C6 1412   7.042   6.394   4.544
   57G       O6 1413   7.071   6.340   4.644
   57G       N1 1414   7.103   6.517   4.514
   57G       H1 1415   7.177   6.536   4.580
   57G       C2 1416   7.093   6.588   4.403
   57G       N2 1417   7.161   6.695   4.396
   57G      H21 1418   7.215   6.724   4.477
   57G      H22 1419   7.154   6.755   4.315
   57G       N3 1420   7.013   6.551   4.302
   57G       C4 1421   6.949   6.431   4.328
   57G      C3' 1422   6.912   6.242   3.934
   57G      H3' 1423   6.937   6.163   4.004
   57G      C2' 1424   6.962   6.380   3.989
   57G     H2'1 1425   7.057   6.380   4.043
   57G      O2' 1426   6.966   6.480   3.886
   57G     HO'2 1427   6.974   6.430   3.804
   57G      O3' 1428   6.966   6.228   3.803
   58A        P 1429   7.121   6.178   3.793
   58A      O1P 1430   7.151   6.194   3.644
   58A      O2P 1431   7.142   6.056   3.867
   58A      O5' 1432   7.211   6.295   3.872
   58A      C5' 1433   7.254   6.408   3.798
   58A     H5'1 1434   7.173   6.467   3.756
   58A     H5'2 1435   7.321   6.380   3.716
   58A      C4' 1436   7.324   6.498   3.900
   58A      H4' 1437   7.345   6.592   3.848
   58A      O4' 1438   7.255   6.529   4.018
   58A      C1' 1439   7.354   6.519   4.125
   58A      H1' 1440   7.343   6.609   4.186
   58A       N9 1441   7.322   6.402   4.220
   58A       C8 1442   7.265   6.271   4.195
   58A       H8 1443   7.240   6.243   4.094
   58A       N7 1444   7.270   6.196   4.303
   58A       C5 1445   7.328   6.279   4.402
   58A       C6 1446   7.358   6.255   4.540
   58A       N6 1447   7.350   6.137   4.603
   58A      H61 1448   7.312   6.054   4.559
   58A      H62 1449   7.414   6.129   4.681
   58A       N1 1450   7.427   6.347   4.610
   58A       C2 1451   7.455   6.464   4.554
   58A       H2 1452   7.525   6.531   4.603
   58A       N3 1453   7.425   6.503   4.429
   58A       C4 1454   7.362   6.404   4.357
   58A      C3' 1455   7.460   6.442   3.932
   58A      H3' 1456   7.448   6.335   3.949
   58A      C2' 1457   7.491   6.506   4.063
   58A     H2'1 1458   7.559   6.436   4.111
   58A      O2' 1459   7.567   6.628   4.060
   58A     HO'2 1460   7.520   6.703   4.023
   58A      O3' 1461   7.557   6.470   3.827
   59G        P 1462   7.683   6.371   3.803
   59G      O1P 1463   7.774   6.425   3.698
   59G      O2P 1464   7.626   6.235   3.773
   59G      O5' 1465   7.759   6.371   3.958
   59G      C5' 1466   7.834   6.485   3.991
   59G     H5'1 1467   7.773   6.572   3.966
   59G     H5'2 1468   7.919   6.489   3.923
   59G      C4' 1469   7.883   6.478   4.139
   59G      H4' 1470   7.924   6.572   4.175
   59G      O4' 1471   7.781   6.451   4.233
   59G      C1' 1472   7.842   6.398   4.349
   59G      H1' 1473   7.834   6.466   4.434
   59G       N9 1474   7.764   6.278   4.383
   59G       C8 1475   7.674   6.218   4.304
   59G       H8 1476   7.650   6.249   4.203
   59G       N7 1477   7.610   6.122   4.363
   59G       C5 1478   7.665   6.120   4.494
   59G       C6 1479   7.658   6.029   4.611
   59G       O6 1480   7.589   5.928   4.617
   59G       N1 1481   7.731   6.067   4.719
   59G       H1 1482   7.718   6.016   4.805
   59G       C2 1483   7.813   6.170   4.709
   59G       N2 1484   7.881   6.200   4.820
   59G      H21 1485   7.861   6.136   4.896
   59G      H22 1486   7.941   6.281   4.824
   59G       N3 1487   7.836   6.249   4.608
   59G       C4 1488   7.761   6.217   4.503
   59G      C3' 1489   7.987   6.362   4.156
   59G      H3' 1490   7.951   6.265   4.120
   59G      C2' 1491   7.992   6.357   4.311
   59G     H2'1 1492   8.016   6.259   4.352
   59G      O2' 1493   8.079   6.463   4.365
   59G     HO'2 1494   8.151   6.464   4.301
   59G      O3' 1495   8.112   6.389   4.104
   60C        P 1496   8.191   6.269   4.019
   60C      O1P 1497   8.326   6.324   3.975
   60C      O2P 1498   8.099   6.227   3.912
   60C      O5' 1499   8.199   6.157   4.127
   60C      C5' 1500   8.290   6.187   4.235
   60C     H5'1 1501   8.268   6.281   4.285
   60C     H5'2 1502   8.390   6.193   4.192
   60C      C4' 1503   8.296   6.080   4.342
   60C      H4' 1504   8.385   6.105   4.400
   60C      O4' 1505   8.182   6.078   4.431
   60C      C1' 1506   8.156   5.939   4.460
   60C      H1' 1507   8.154   5.917   4.567
   60C       N1 1508   8.020   5.898   4.404
   60C       C6 1509   7.977   5.952   4.287
   60C       H6 1510   8.029   6.034   4.239
   60C       C5 1511   7.854   5.917   4.241
   60C       H5 1512   7.807   5.956   4.152
   60C       C4 1513   7.791   5.813   4.319
   60C       N4 1514   7.678   5.761   4.273
   60C      H41 1515   7.646   5.800   4.186
   60C      H42 1516   7.642   5.677   4.316
   60C       N3 1517   7.834   5.756   4.430
   60C       C2 1518   7.951   5.797   4.474
   60C       O2 1519   7.995   5.746   4.581
   60C      C3' 1520   8.317   5.940   4.287
   60C      H3' 1521   8.251   5.928   4.201
   60C      C2' 1522   8.266   5.854   4.400
   60C     H2'1 1523   8.230   5.758   4.364
   60C      O2' 1524   8.359   5.840   4.509
   60C     HO'2 1525   8.368   5.745   4.504
   60C      O3' 1526   8.461   5.921   4.254
   61C        P 1527   8.515   5.807   4.167
   61C      O1P 1528   8.660   5.835   4.150
   61C      O2P 1529   8.419   5.795   4.056
   61C      O5' 1530   8.499   5.682   4.257
   61C      C5' 1531   8.588   5.662   4.364
   61C     H5'1 1532   8.600   5.749   4.428
   61C     H5'2 1533   8.685   5.639   4.319
   61C      C4' 1534   8.528   5.548   4.462
   61C      H4' 1535   8.596   5.532   4.546
   61C      O4' 1536   8.392   5.574   4.494
   61C      C1' 1537   8.321   5.450   4.482
   61C      H1' 1538   8.295   5.428   4.586
   61C       N1 1539   8.208   5.478   4.383
   61C       C6 1540   8.231   5.516   4.258
   61C       H6 1541   8.333   5.538   4.230
   61C       C5 1542   8.135   5.529   4.164
   61C       H5 1543   8.162   5.543   4.060
   61C       C4 1544   8.005   5.509   4.213
   61C       N4 1545   7.903   5.558   4.139
   61C      H41 1546   7.918   5.584   4.042
   61C      H42 1547   7.816   5.553   4.190
   61C       N3 1548   7.979   5.455   4.335
   61C       C2 1549   8.083   5.433   4.423
   61C       O2 1550   8.062   5.399   4.539
   61C      C3' 1551   8.528   5.411   4.390
   61C      H3' 1552   8.515   5.424   4.283
   61C      C2' 1553   8.409   5.333   4.444
   61C     H2'1 1554   8.360   5.268   4.371
   61C      O2' 1555   8.425   5.268   4.572
   61C     HO'2 1556   8.406   5.174   4.566
   61C      O3' 1557   8.653   5.351   4.399
   62U        P 1558   8.712   5.269   4.278
   62U      O1P 1559   8.856   5.243   4.309
   62U      O2P 1560   8.675   5.335   4.153
   62U      O5' 1561   8.645   5.125   4.273
   62U      C5' 1562   8.629   5.041   4.387
   62U     H5'1 1563   8.555   5.079   4.458
   62U     H5'2 1564   8.728   5.020   4.429
   62U      C4' 1565   8.575   4.910   4.337
   62U      H4' 1566   8.557   4.849   4.426
   62U      O4' 1567   8.440   4.930   4.282
   62U      C1' 1568   8.422   4.824   4.181
   62U      H1' 1569   8.400   4.733   4.237
   62U       N1 1570   8.316   4.860   4.078
   62U       C6 1571   8.344   4.937   3.967
   62U       H6 1572   8.438   4.985   3.944
   62U       C5 1573   8.245   4.970   3.873
   62U       H5 1574   8.256   5.023   3.779
   62U       C4 1575   8.110   4.928   3.885
   62U       O4 1576   8.021   4.954   3.809
   62U       N3 1577   8.097   4.837   3.982
   62U       H3 1578   8.007   4.794   3.997
   62U       C2 1579   8.191   4.805   4.080
   62U       O2 1580   8.153   4.730   4.164
   62U      C3' 1581   8.651   4.824   4.228
   62U      H3' 1582   8.740   4.875   4.193
   62U      C2' 1583   8.559   4.805   4.111
   62U     H2'1 1584   8.581   4.876   4.032
   62U      O2' 1585   8.582   4.678   4.059
   62U     HO'2 1586   8.622   4.627   4.129
   62U      O3' 1587   8.689   4.704   4.284
   63U        P 1588   8.838   4.696   4.348
   63U      O1P 1589   8.881   4.824   4.403
   63U      O2P 1590   8.928   4.635   4.247
   63U      O5' 1591   8.816   4.581   4.457
   63U      C5' 1592   8.807   4.626   4.594
   63U     H5'1 1593   8.785   4.733   4.594
   63U     H5'2 1594   8.902   4.608   4.645
   63U      C4' 1595   8.686   4.560   4.666
   63U      H4' 1596   8.682   4.600   4.767
   63U      O4' 1597   8.565   4.597   4.602
   63U      C1' 1598   8.471   4.500   4.605
   63U      H1' 1599   8.391   4.528   4.673
   63U       N1 1600   8.410   4.480   4.478
   63U       C6 1601   8.494   4.459   4.366
   63U       H6 1602   8.602   4.456   4.370
   63U       C5 1603   8.429   4.442   4.245
   63U       H5 1604   8.495   4.429   4.160
   63U       C4 1605   8.285   4.440   4.235
   63U       O4 1606   8.224   4.428   4.131
   63U       N3 1607   8.220   4.461   4.352
   63U       H3 1608   8.125   4.427   4.355
   63U       C2 1609   8.269   4.479   4.475
   63U       O2 1610   8.197   4.486   4.571
   63U      C3' 1611   8.691   4.408   4.669
   63U      H3' 1612   8.733   4.360   4.580
   63U      C2' 1613   8.539   4.376   4.658
   63U     H2'1 1614   8.518   4.288   4.598
   63U      O2' 1615   8.477   4.344   4.787
   63U     HO'2 1616   8.546   4.346   4.854
   63U      O3' 1617   8.738   4.354   4.794
   64A        P 1618   8.883   4.366   4.839
   64A      O1P 1619   8.961   4.360   4.712
   64A      O2P 1620   8.916   4.270   4.943
   64A      O5' 1621   8.897   4.515   4.885
   64A      C5' 1622   8.822   4.557   4.995
   64A     H5'1 1623   8.855   4.507   5.086
   64A     H5'2 1624   8.716   4.541   4.977
   64A      C4' 1625   8.842   4.712   4.996
   64A      H4' 1626   8.942   4.738   5.029
   64A      O4' 1627   8.805   4.769   4.872
   64A      C1' 1628   8.738   4.892   4.896
   64A      H1' 1629   8.795   4.977   4.858
   64A       N9 1630   8.606   4.903   4.823
   64A       C8 1631   8.584   4.985   4.717
   64A       H8 1632   8.657   5.052   4.676
   64A       N7 1633   8.465   4.984   4.672
   64A       C5 1634   8.405   4.878   4.752
   64A       C6 1635   8.285   4.804   4.748
   64A       N6 1636   8.195   4.815   4.657
   64A      H61 1637   8.216   4.880   4.582
   64A      H62 1638   8.137   4.734   4.645
   64A       N1 1639   8.261   4.701   4.831
   64A       C2 1640   8.356   4.673   4.918
   64A       H2 1641   8.339   4.591   4.987
   64A       N3 1642   8.471   4.732   4.936
   64A       C4 1643   8.493   4.833   4.848
   64A      C3' 1644   8.749   4.778   5.100
   64A      H3' 1645   8.656   4.725   5.120
   64A      C2' 1646   8.723   4.920   5.043
   64A     H2'1 1647   8.625   4.966   5.053
   64A      O2' 1648   8.821   5.019   5.077
   64A     HO'2 1649   8.840   5.002   5.170
   64A      O3' 1650   8.821   4.798   5.217
   65A        P 1651   8.763   4.750   5.352
   65A      O1P 1652   8.870   4.768   5.450
   65A      O2P 1653   8.690   4.624   5.343
   65A      O5' 1654   8.653   4.865   5.371
   65A      C5' 1655   8.694   4.992   5.418
   65A     H5'1 1656   8.778   5.026   5.357
   65A     H5'2 1657   8.725   4.991   5.523
   65A      C4' 1658   8.571   5.084   5.407
   65A      H4' 1659   8.599   5.182   5.445
   65A      O4' 1660   8.533   5.104   5.276
   65A      C1' 1661   8.393   5.092   5.274
   65A      H1' 1662   8.351   5.186   5.310
   65A       N9 1663   8.338   5.073   5.134
   65A       C8 1664   8.267   4.974   5.072
   65A       H8 1665   8.250   4.876   5.115
   65A       N7 1666   8.206   5.004   4.959
   65A       C5 1667   8.244   5.138   4.940
   65A       C6 1668   8.201   5.239   4.848
   65A       N6 1669   8.119   5.219   4.750
   65A      H61 1670   8.062   5.135   4.749
   65A      H62 1671   8.096   5.299   4.693
   65A       N1 1672   8.243   5.364   4.860
   65A       C2 1673   8.321   5.395   4.964
   65A       H2 1674   8.357   5.497   4.969
   65A       N3 1675   8.367   5.310   5.059
   65A       C4 1676   8.323   5.180   5.046
   65A      C3' 1677   8.458   5.025   5.487
   65A      H3' 1678   8.496   4.937   5.540
   65A      C2' 1679   8.368   4.980   5.372
   65A     H2'1 1680   8.407   4.882   5.343
   65A      O2' 1681   8.232   4.967   5.404
   65A     HO'2 1682   8.244   4.984   5.498
   65A      O3' 1683   8.397   5.120   5.569
   66A        P 1684   8.337   5.063   5.701
   66A      O1P 1685   8.450   5.026   5.782
   66A      O2P 1686   8.235   4.955   5.664
   66A      O5' 1687   8.256   5.188   5.760
   66A      C5' 1688   8.140   5.249   5.700
   66A     H5'1 1689   8.104   5.318   5.776
   66A     H5'2 1690   8.066   5.181   5.658
   66A      C4' 1691   8.191   5.343   5.585
   66A      H4' 1692   8.288   5.390   5.604
   66A      O4' 1693   8.191   5.280   5.461
   66A      C1' 1694   8.179   5.385   5.360
   66A      H1' 1695   8.275   5.393   5.309
   66A       N9 1696   8.077   5.334   5.264
   66A       C8 1697   8.016   5.206   5.264
   66A       H8 1698   8.045   5.131   5.336
   66A       N7 1699   7.920   5.198   5.176
   66A       C5 1700   7.926   5.315   5.099
   66A       C6 1701   7.859   5.370   4.984
   66A       N6 1702   7.768   5.299   4.915
   66A      H61 1703   7.743   5.204   4.938
   66A      H62 1704   7.728   5.344   4.834
   66A       N1 1705   7.907   5.478   4.928
   66A       C2 1706   7.987   5.555   4.999
   66A       H2 1707   8.014   5.647   4.949
   66A       N3 1708   8.053   5.520   5.111
   66A       C4 1709   8.021   5.397   5.159
   66A      C3' 1710   8.091   5.453   5.568
   66A      H3' 1711   7.995   5.407   5.544
   66A      C2' 1712   8.142   5.509   5.438
   66A     H2'1 1713   8.060   5.564   5.392
   66A      O2' 1714   8.266   5.582   5.446
   66A     HO'2 1715   8.280   5.631   5.365
   66A      O3' 1716   8.072   5.551   5.669
   67C        P 1717   7.938   5.635   5.680
   67C      O1P 1718   7.940   5.710   5.810
   67C      O2P 1719   7.818   5.557   5.645
   67C      O5' 1720   7.940   5.735   5.546
   67C      C5' 1721   8.026   5.847   5.539
   67C     H5'1 1722   8.126   5.803   5.542
   67C     H5'2 1723   8.019   5.909   5.628
   67C      C4' 1724   8.014   5.932   5.412
   67C      H4' 1725   8.091   6.006   5.388
   67C      O4' 1726   8.007   5.849   5.299
   67C      C1' 1727   7.924   5.912   5.205
   67C      H1' 1728   7.980   5.942   5.117
   67C       N1 1729   7.815   5.820   5.159
   67C       C6 1730   7.789   5.698   5.225
   67C       H6 1731   7.857   5.678   5.306
   67C       C5 1732   7.680   5.619   5.198
   67C       H5 1733   7.654   5.528   5.250
   67C       C4 1734   7.601   5.668   5.088
   67C       N4 1735   7.495   5.615   5.051
   67C      H41 1736   7.472   5.529   5.099
   67C      H42 1737   7.473   5.625   4.953
   67C       N3 1738   7.636   5.769   5.013
   67C       C2 1739   7.740   5.850   5.044
   67C       O2 1740   7.773   5.938   4.970
   67C      C3' 1741   7.876   6.011   5.421
   67C      H3' 1742   7.796   5.951   5.465
   67C      C2' 1743   7.855   6.034   5.274
   67C     H2'1 1744   7.749   6.038   5.247
   67C      O2' 1745   7.918   6.150   5.221
   67C     HO'2 1746   7.904   6.233   5.268
   67C      O3' 1747   7.874   6.127   5.502
   68U        P 1748   7.758   6.225   5.520
   68U      O1P 1749   7.757   6.282   5.655
   68U      O2P 1750   7.635   6.161   5.471
   68U      O5' 1751   7.795   6.333   5.406
   68U      C5' 1752   7.911   6.405   5.420
   68U     H5'1 1753   7.998   6.342   5.404
   68U     H5'2 1754   7.919   6.461   5.513
   68U      C4' 1755   7.915   6.508   5.301
   68U      H4' 1756   8.014   6.546   5.278
   68U      O4' 1757   7.869   6.443   5.178
   68U      C1' 1758   7.747   6.496   5.131
   68U      H1' 1759   7.766   6.585   5.070
   68U       N1 1760   7.659   6.395   5.069
   68U       C6 1761   7.619   6.281   5.135
   68U       H6 1762   7.635   6.258   5.239
   68U       C5 1763   7.548   6.184   5.071
   68U       H5 1764   7.520   6.090   5.116
   68U       C4 1765   7.516   6.203   4.932
   68U       O4 1766   7.457   6.113   4.867
   68U       N3 1767   7.560   6.324   4.870
   68U       H3 1768   7.536   6.341   4.773
   68U       C2 1769   7.634   6.415   4.940
   68U       O2 1770   7.678   6.516   4.878
   68U      C3' 1771   7.807   6.623   5.322
   68U      H3' 1772   7.772   6.644   5.423
   68U      C2' 1773   7.683   6.559   5.249
   68U     H2'1 1774   7.638   6.483   5.314
   68U      O2' 1775   7.580   6.650   5.225
   68U     HO'2 1776   7.592   6.734   5.269
   68U      O3' 1777   7.860   6.740   5.262
   69C        P 1778   7.783   6.879   5.253
   69C      O1P 1779   7.887   6.991   5.278
   69C      O2P 1780   7.660   6.866   5.339
   69C      O5' 1781   7.725   6.895   5.108
   69C      C5' 1782   7.812   6.942   5.007
   69C     H5'1 1783   7.873   6.854   4.989
   69C     H5'2 1784   7.866   7.031   5.040
   69C      C4' 1785   7.744   6.957   4.871
   69C      H4' 1786   7.815   7.003   4.802
   69C      O4' 1787   7.708   6.832   4.818
   69C      C1' 1788   7.582   6.828   4.745
   69C      H1' 1789   7.607   6.802   4.642
   69C       N1 1790   7.466   6.757   4.795
   69C       C6 1791   7.464   6.718   4.924
   69C       H6 1792   7.538   6.761   4.991
   69C       C5 1793   7.379   6.621   4.951
   69C       H5 1794   7.387   6.575   5.049
   69C       C4 1795   7.281   6.572   4.855
   69C       N4 1796   7.209   6.469   4.882
   69C      H41 1797   7.227   6.418   4.967
   69C      H42 1798   7.164   6.415   4.810
   69C       N3 1799   7.277   6.627   4.740
   69C       C2 1800   7.373   6.715   4.707
   69C       O2 1801   7.369   6.750   4.590
   69C      C3' 1802   7.608   7.028   4.863
   69C      H3' 1803   7.546   6.997   4.948
   69C      C2' 1804   7.540   6.975   4.744
   69C     H2'1 1805   7.432   6.976   4.755
   69C      O2' 1806   7.582   7.046   4.621
   69C     HO'2 1807   7.593   7.140   4.639
   69C      O3' 1808   7.605   7.170   4.868
   70U        P 1809   7.483   7.241   4.929
   70U      O1P 1810   7.512   7.386   4.935
   70U      O2P 1811   7.433   7.185   5.058
   70U      O5' 1812   7.367   7.214   4.827
   70U      C5' 1813   7.357   7.298   4.715
   70U     H5'1 1814   7.454   7.333   4.678
   70U     H5'2 1815   7.309   7.387   4.756
   70U      C4' 1816   7.260   7.242   4.606
   70U      H4' 1817   7.290   7.281   4.509
   70U      O4' 1818   7.265   7.101   4.593
   70U      C1' 1819   7.132   7.052   4.565
   70U      H1' 1820   7.137   7.002   4.468
   70U       N1 1821   7.075   6.966   4.673
   70U       C6 1822   7.127   6.964   4.793
   70U       H6 1823   7.201   7.039   4.817
   70U       C5 1824   7.098   6.858   4.874
   70U       H5 1825   7.154   6.851   4.966
   70U       C4 1826   6.994   6.764   4.845
   70U       O4 1827   6.951   6.669   4.917
   70U       N3 1828   6.938   6.782   4.725
   70U       H3 1829   6.876   6.710   4.690
   70U       C2 1830   6.969   6.883   4.635
   70U       O2 1831   6.908   6.888   4.525
   70U      C3' 1832   7.121   7.279   4.642
   70U      H3' 1833   7.107   7.265   4.749
   70U      C2' 1834   7.046   7.176   4.559
   70U     H2'1 1835   6.947   7.157   4.600
   70U      O2' 1836   7.043   7.217   4.418
   70U     HO'2 1837   7.011   7.307   4.413
   70U      O3' 1838   7.096   7.415   4.598
   71U        P 1839   6.973   7.505   4.644
   71U      O1P 1840   6.959   7.616   4.548
   71U      O2P 1841   6.999   7.530   4.788
   71U      O5' 1842   6.845   7.405   4.630
   71U      C5' 1843   6.755   7.417   4.522
   71U     H5'1 1844   6.812   7.410   4.429
   71U     H5'2 1845   6.713   7.517   4.535
   71U      C4' 1846   6.651   7.309   4.506
   71U      H4' 1847   6.602   7.309   4.408
   71U      O4' 1848   6.704   7.179   4.534
   71U      C1' 1849   6.607   7.113   4.609
   71U      H1' 1850   6.566   7.031   4.550
   71U       N1 1851   6.657   7.064   4.739
   71U       C6 1852   6.734   7.140   4.820
   71U       H6 1853   6.768   7.236   4.784
   71U       C5 1854   6.768   7.090   4.941
   71U       H5 1855   6.839   7.142   5.003
   71U       C4 1856   6.712   6.957   4.979
   71U       O4 1857   6.759   6.899   5.075
   71U       N3 1858   6.634   6.894   4.891
   71U       H3 1859   6.613   6.798   4.916
   71U       C2 1860   6.593   6.942   4.777
   71U       O2 1861   6.522   6.863   4.711
   71U      C3' 1862   6.547   7.334   4.616
   71U      H3' 1863   6.612   7.363   4.698
   71U      C2' 1864   6.485   7.202   4.636
   71U     H2'1 1865   6.458   7.199   4.742
   71U      O2' 1866   6.369   7.180   4.558
   71U     HO'2 1867   6.298   7.219   4.610
   71U      O3' 1868   6.452   7.432   4.581
   72G        P 1869   6.380   7.505   4.698
   72G      O1P 1870   6.321   7.637   4.649
   72G      O2P 1871   6.467   7.516   4.812
   72G      O5' 1872   6.260   7.407   4.739
   72G      C5' 1873   6.144   7.388   4.655
   72G     H5'1 1874   6.182   7.374   4.554
   72G     H5'2 1875   6.089   7.482   4.654
   72G      C4' 1876   6.058   7.274   4.704
   72G      H4' 1877   5.978   7.261   4.631
   72G      O4' 1878   6.136   7.155   4.713
   72G      C1' 1879   6.092   7.084   4.828
   72G      H1' 1880   6.062   6.986   4.791
   72G       N9 1881   6.201   7.074   4.930
   72G       C8 1882   6.296   7.169   4.966
   72G       H8 1883   6.287   7.267   4.922
   72G       N7 1884   6.372   7.142   5.060
   72G       C5 1885   6.344   7.005   5.086
   72G       C6 1886   6.402   6.912   5.182
   72G       O6 1887   6.491   6.921   5.269
   72G       N1 1888   6.340   6.787   5.166
   72G       H1 1889   6.377   6.712   5.223
   72G       C2 1890   6.250   6.755   5.077
   72G       N2 1891   6.211   6.631   5.078
   72G      H21 1892   6.261   6.564   5.135
   72G      H22 1893   6.141   6.595   5.014
   72G       N3 1894   6.191   6.838   5.001
   72G       C4 1895   6.240   6.963   5.008
   72G      C3' 1896   5.995   7.305   4.838
   72G      H3' 1897   6.071   7.344   4.906
   72G      C2' 1898   5.967   7.158   4.874
   72G     H2'1 1899   5.959   7.155   4.983
   72G      O2' 1900   5.854   7.092   4.818
   72G     HO'2 1901   5.793   7.082   4.891
   72G      O3' 1902   5.891   7.390   4.818
   73A        P 1903   5.804   7.461   4.940
   73A      O1P 1904   5.717   7.565   4.879
   73A      O2P 1905   5.888   7.511   5.051
   73A      O5' 1906   5.717   7.346   5.008
   73A      C5' 1907   5.612   7.291   4.938
   73A     H5'1 1908   5.659   7.239   4.855
   73A     H5'2 1909   5.546   7.370   4.903
   73A      C4' 1910   5.538   7.185   5.022
   73A      H4' 1911   5.457   7.149   4.959
   73A      O4' 1912   5.622   7.080   5.049
   73A      C1' 1913   5.585   7.032   5.173
   73A      H1' 1914   5.574   6.924   5.174
   73A       N9 1915   5.688   7.065   5.271
   73A       C8 1916   5.755   7.186   5.286
   73A       H8 1917   5.760   7.268   5.215
   73A       N7 1918   5.821   7.200   5.397
   73A       C5 1919   5.790   7.078   5.466
   73A       C6 1920   5.821   7.016   5.589
   73A       N6 1921   5.897   7.063   5.681
   73A      H61 1922   5.970   7.131   5.663
   73A      H62 1923   5.890   7.006   5.764
   73A       N1 1924   5.777   6.899   5.629
   73A       C2 1925   5.697   6.839   5.544
   73A       H2 1926   5.663   6.744   5.581
   73A       N3 1927   5.658   6.879   5.423
   73A       C4 1928   5.709   6.999   5.385
   73A      C3' 1929   5.473   7.235   5.156
   73A      H3' 1930   5.537   7.310   5.204
   73A      C2' 1931   5.458   7.096   5.217
   73A     H2'1 1932   5.449   7.101   5.325
   73A      O2' 1933   5.347   7.029   5.162
   73A     HO'2 1934   5.282   7.090   5.125
   73A      O3' 1935   5.345   7.292   5.126
   74U        P 1936   5.296   7.429   5.197
   74U      O1P 1937   5.150   7.450   5.160
   74U      O2P 1938   5.400   7.532   5.174
   74U      O5' 1939   5.297   7.416   5.358
   74U      C5' 1940   5.204   7.332   5.429
   74U     H5'1 1941   5.201   7.239   5.372
   74U     H5'2 1942   5.105   7.376   5.438
   74U      C4' 1943   5.251   7.283   5.569
   74U      H4' 1944   5.180   7.213   5.614
   74U      O4' 1945   5.384   7.231   5.565
   74U      C1' 1946   5.465   7.255   5.680
   74U      H1' 1947   5.472   7.169   5.746
   74U       N1 1948   5.584   7.335   5.641
   74U       C6 1949   5.588   7.418   5.536
   74U       H6 1950   5.506   7.417   5.465
   74U       C5 1951   5.712   7.482   5.504
   74U       H5 1952   5.716   7.521   5.403
   74U       C4 1953   5.830   7.458   5.589
   74U       O4 1954   5.944   7.500   5.570
   74U       N3 1955   5.805   7.383   5.694
   74U       H3 1956   5.884   7.366   5.755
   74U       C2 1957   5.693   7.314   5.725
   74U       O2 1958   5.691   7.240   5.821
   74U      C3' 1959   5.272   7.404   5.661
   74U      H3' 1960   5.311   7.484   5.599
   74U      C2' 1961   5.372   7.346   5.761
   74U     H2'1 1962   5.427   7.428   5.807
   74U      O2' 1963   5.312   7.273   5.867
   74U     HO'2 1964   5.368   7.231   5.933
   74U      O3' 1965   5.159   7.458   5.718
   75U        P 1966   5.147   7.592   5.794
   75U      O1P 1967   5.010   7.599   5.842
   75U      O2P 1968   5.190   7.695   5.693
   75U      O5' 1969   5.252   7.610   5.923
   75U      C5' 1970   5.232   7.536   6.045
   75U     H5'1 1971   5.265   7.433   6.029
   75U     H5'2 1972   5.125   7.531   6.067
   75U      C4' 1973   5.306   7.586   6.170
   75U      H4' 1974   5.264   7.531   6.254
   75U      O4' 1975   5.442   7.555   6.157
   75U      C1' 1976   5.516   7.679   6.158
   75U      H1' 1977   5.547   7.703   6.260
   75U       N1 1978   5.639   7.670   6.083
   75U       C6 1979   5.636   7.668   5.943
   75U       H6 1980   5.542   7.687   5.892
   75U       C5 1981   5.747   7.643   5.868
   75U       H5 1982   5.747   7.649   5.760
   75U       C4 1983   5.873   7.617   5.932
   75U       O4 1984   5.981   7.599   5.877
   75U       N3 1985   5.869   7.626   6.065
   75U       H3 1986   5.959   7.605   6.106
   75U       C2 1987   5.757   7.625   6.144
   75U       O2 1988   5.768   7.587   6.259
   75U      C3' 1989   5.292   7.731   6.198
   75U      H3' 1990   5.204   7.767   6.145
   75U      C2' 1991   5.411   7.788   6.121
   75U     H2'1 1992   5.392   7.780   6.014
   75U      O2' 1993   5.441   7.925   6.155
   75U     HO'2 1994   5.457   7.939   6.249
   75U      O3' 1995   5.300   7.781   6.333
   76A        P 1996   5.176   7.842   6.414
   76A      O1P 1997   5.050   7.793   6.352
   76A      O2P 1998   5.208   7.991   6.418
   76A      O5' 1999   5.166   7.800   6.567
   76A      C5' 2000   5.134   7.675   6.627
   76A     H5'1 2001   5.191   7.597   6.576
   76A     H5'2 2002   5.028   7.651   6.621
   76A      C4' 2003   5.163   7.680   6.781
   76A      H4' 2004   5.137   7.585   6.829
   76A      O4' 2005   5.304   7.706   6.788
   76A      C1' 2006   5.318   7.788   6.903
   76A      H1' 2007   5.380   7.757   6.988
   76A       N9 2008   5.367   7.917   6.858
   76A       C8 2009   5.410   7.954   6.735
   76A       H8 2010   5.403   7.883   6.654
   76A       N7 2011   5.442   8.081   6.720
   76A       C5 2012   5.441   8.123   6.855
   76A       C6 2013   5.484   8.240   6.919
   76A       N6 2014   5.531   8.347   6.852
   76A      H61 2015   5.533   8.350   6.751
   76A      H62 2016   5.566   8.422   6.911
   76A       N1 2017   5.502   8.248   7.050
   76A       C2 2018   5.471   8.133   7.120
   76A       H2 2019   5.481   8.138   7.227
   76A       N3 2020   5.414   8.019   7.078
   76A       C4 2021   5.402   8.023   6.941
   76A      C3' 2022   5.088   7.788   6.853
   76A      H3' 2023   5.100   7.871   6.784
   76A      C2' 2024   5.174   7.795   6.970
   76A     H2'1 2025   5.158   7.887   7.026
   76A      O2' 2026   5.162   7.678   7.056
   76A     HO'2 2027   5.183   7.703   7.146
   76A      O3' 2028   4.945   7.772   6.882
   77U        P 2029   4.863   7.907   6.900
   77U      O1P 2030   4.733   7.870   6.955
   77U      O2P 2031   4.876   7.996   6.783
   77U      O5' 2032   4.942   7.980   7.022
   77U      C5' 2033   4.919   7.929   7.155
   77U     H5'1 2034   4.946   7.824   7.167
   77U     H5'2 2035   4.813   7.934   7.179
   77U      C4' 2036   4.991   8.018   7.263
   77U      H4' 2037   4.986   7.964   7.358
   77U      O4' 2038   5.130   8.038   7.240
   77U      C1' 2039   5.166   8.162   7.293
   77U      H1' 2040   5.255   8.138   7.352
   77U       N1 2041   5.201   8.259   7.186
   77U       C6 2042   5.153   8.250   7.058
   77U       H6 2043   5.104   8.158   7.028
   77U       C5 2044   5.176   8.348   6.965
   77U       H5 2045   5.137   8.340   6.865
   77U       C4 2046   5.244   8.470   7.005
   77U       O4 2047   5.278   8.561   6.933
   77U       N3 2048   5.297   8.466   7.135
   77U       H3 2049   5.360   8.540   7.164
   77U       C2 2050   5.264   8.375   7.233
   77U       O2 2051   5.307   8.389   7.345
   77U      C3' 2052   4.934   8.164   7.285
   77U      H3' 2053   4.926   8.227   7.196
   77U      C2' 2054   5.052   8.208   7.373
   77U     H2'1 2055   5.053   8.315   7.392
   77U      O2' 2056   5.053   8.146   7.500
   77U     HO'2 2057   5.001   8.199   7.562
   77U      O3' 2058   4.821   8.161   7.365
   78G        P 2059   4.732   8.291   7.394
   78G      O1P 2060   4.626   8.247   7.491
   78G      O2P 2061   4.692   8.347   7.263
   78G      O5' 2062   4.832   8.387   7.475
   78G      C5' 2063   4.829   8.412   7.616
   78G     H5'1 2064   4.834   8.313   7.662
   78G     H5'2 2065   4.737   8.459   7.650
   78G      C4' 2066   4.948   8.483   7.665
   78G      H4' 2067   4.981   8.453   7.765
   78G      O4' 2068   5.067   8.460   7.580
   78G      C1' 2069   5.127   8.594   7.555
   78G      H1' 2070   5.234   8.582   7.571
   78G       N9 2071   5.113   8.652   7.420
   78G       C8 2072   5.044   8.602   7.318
   78G       H8 2073   4.971   8.523   7.330
   78G       N7 2074   5.067   8.659   7.202
   78G       C5 2075   5.152   8.764   7.232
   78G       C6 2076   5.226   8.855   7.146
   78G       O6 2077   5.233   8.869   7.024
   78G       N1 2078   5.313   8.931   7.218
   78G       H1 2079   5.367   9.005   7.175
   78G       C2 2080   5.341   8.911   7.354
   78G       N2 2081   5.442   8.974   7.399
   78G      H21 2082   5.489   9.051   7.354
   78G      H22 2083   5.462   8.952   7.496
   78G       N3 2084   5.283   8.825   7.431
   78G       C4 2085   5.188   8.755   7.367
   78G      C3' 2086   4.935   8.641   7.670
   78G      H3' 2087   4.889   8.660   7.573
   78G      C2' 2088   5.084   8.683   7.663
   78G     H2'1 2089   5.096   8.783   7.621
   78G      O2' 2090   5.168   8.667   7.775
   78G     HO'2 2091   5.193   8.575   7.785
   78G      O3' 2092   4.864   8.676   7.781
   79A        P 2093   4.796   8.813   7.802
   79A      O1P 2094   4.758   8.824   7.944
   79A      O2P 2095   4.693   8.827   7.690
   79A      O5' 2096   4.899   8.934   7.774
   79A      C5' 2097   4.993   8.970   7.872
   79A     H5'1 2098   5.054   8.882   7.895
   79A     H5'2 2099   4.946   9.007   7.963
   79A      C4' 2100   5.097   9.070   7.825
   79A      H4' 2101   5.163   9.083   7.911
   79A      O4' 2102   5.175   9.025   7.719
   79A      C1' 2103   5.201   9.143   7.644
   79A      H1' 2104   5.307   9.157   7.621
   79A       N9 2105   5.129   9.131   7.510
   79A       C8 2106   5.026   9.046   7.477
   79A       H8 2107   4.986   8.969   7.542
   79A       N7 2108   4.978   9.068   7.357
   79A       C5 2109   5.076   9.159   7.301
   79A       C6 2110   5.098   9.221   7.176
   79A       N6 2111   5.038   9.196   7.060
   79A      H61 2112   4.966   9.125   7.054
   79A      H62 2113   5.065   9.238   6.972
   79A       N1 2114   5.194   9.308   7.157
   79A       C2 2115   5.276   9.341   7.261
   79A       H2 2116   5.355   9.412   7.242
   79A       N3 2117   5.262   9.299   7.380
   79A       C4 2118   5.160   9.205   7.396
   79A      C3' 2119   5.030   9.196   7.789
   79A      H3' 2120   4.950   9.177   7.717
   79A      C2' 2121   5.145   9.264   7.712
   79A     H2'1 2122   5.106   9.348   7.654
   79A      O2' 2123   5.237   9.321   7.802
   79A     HO'2 2124   5.185   9.336   7.881
   79A      O3' 2125   4.984   9.264   7.906
   80A        P 2126   4.870   9.372   7.915
   80A      O1P 2127   4.860   9.415   8.056
   80A      O2P 2128   4.752   9.311   7.856
   80A      O5' 2129   4.918   9.497   7.820
   80A      C5' 2130   5.015   9.581   7.864
   80A     H5'1 2131   5.094   9.520   7.906
   80A     H5'2 2132   4.979   9.647   7.943
   80A      C4' 2133   5.084   9.664   7.754
   80A      H4' 2134   5.166   9.717   7.803
   80A      O4' 2135   5.134   9.566   7.663
   80A      C1' 2136   5.139   9.627   7.541
   80A      H1' 2137   5.239   9.614   7.500
   80A       N9 2138   5.045   9.569   7.442
   80A       C8 2139   4.943   9.485   7.467
   80A       H8 2140   4.917   9.444   7.563
   80A       N7 2141   4.874   9.450   7.359
   80A       C5 2142   4.944   9.513   7.256
   80A       C6 2143   4.941   9.516   7.112
   80A       N6 2144   4.855   9.450   7.032
   80A      H61 2145   4.781   9.395   7.075
   80A      H62 2146   4.882   9.442   6.935
   80A       N1 2147   5.037   9.582   7.046
   80A       C2 2148   5.135   9.645   7.108
   80A       H2 2149   5.217   9.682   7.049
   80A       N3 2150   5.147   9.652   7.243
   80A       C4 2151   5.049   9.590   7.305
   80A      C3' 2152   4.996   9.751   7.666
   80A      H3' 2153   4.910   9.704   7.618
   80A      C2' 2154   5.099   9.778   7.555
   80A     H2'1 2155   5.055   9.803   7.458
   80A      O2' 2156   5.221   9.841   7.584
   80A     HO'2 2157   5.252   9.873   7.499
   80A      O3' 2158   4.955   9.862   7.734
   81G        P 2159   4.833   9.948   7.687
   81G      O1P 2160   4.811  10.042   7.796
   81G      O2P 2161   4.722   9.863   7.635
   81G      O5' 2162   4.892  10.025   7.560
   81G      C5' 2163   5.009  10.109   7.559
   81G     H5'1 2164   5.094  10.055   7.600
   81G     H5'2 2165   4.989  10.205   7.607
   81G      C4' 2166   5.061  10.138   7.417
   81G      H4' 2167   5.150  10.201   7.427
   81G      O4' 2168   5.085  10.017   7.338
   81G      C1' 2169   5.029  10.027   7.206
   81G      H1' 2170   5.104  10.014   7.127
   81G       N9 2171   4.910   9.940   7.177
   81G       C8 2172   4.854   9.845   7.259
   81G       H8 2173   4.888   9.843   7.361
   81G       N7 2174   4.765   9.766   7.204
   81G       C5 2175   4.759   9.822   7.076
   81G       C6 2176   4.678   9.793   6.958
   81G       O6 2177   4.576   9.724   6.951
   81G       N1 2178   4.719   9.864   6.849
   81G       H1 2179   4.673   9.839   6.763
   81G       C2 2180   4.828   9.939   6.837
   81G       N2 2181   4.850  10.006   6.729
   81G      H21 2182   4.801   9.990   6.642
   81G      H22 2183   4.921  10.078   6.731
   81G       N3 2184   4.889   9.980   6.943
   81G       C4 2185   4.845   9.924   7.065
   81G      C3' 2186   4.958  10.216   7.331
   81G      H3' 2187   4.865  10.164   7.353
   81G      C2' 2188   4.993  10.171   7.187
   81G     H2'1 2189   4.904  10.176   7.125
   81G      O2' 2190   5.109  10.226   7.131
   81G     HO'2 2191   5.128  10.314   7.164
   81G      O3' 2192   4.952  10.356   7.365
   82U        P 2193   4.813  10.427   7.346
   82U      O1P 2194   4.838  10.567   7.371
   82U      O2P 2195   4.703  10.353   7.420
   82U      O5' 2196   4.787  10.400   7.189
   82U      C5' 2197   4.847  10.478   7.088
   82U     H5'1 2198   4.951  10.451   7.108
   82U     H5'2 2199   4.828  10.585   7.092
   82U      C4' 2200   4.787  10.436   6.952
   82U      H4' 2201   4.841  10.493   6.876
   82U      O4' 2202   4.782  10.297   6.919
   82U      C1' 2203   4.660  10.268   6.848
   82U      H1' 2204   4.679  10.238   6.745
   82U       N1 2205   4.569  10.170   6.912
   82U       C6 2206   4.580  10.128   7.044
   82U       H6 2207   4.667  10.164   7.096
   82U       C5 2208   4.489  10.047   7.110
   82U       H5 2209   4.489  10.031   7.217
   82U       C4 2210   4.384   9.990   7.022
   82U       O4 2211   4.305   9.907   7.067
   82U       N3 2212   4.381  10.024   6.894
   82U       H3 2213   4.308   9.984   6.837
   82U       C2 2214   4.464  10.112   6.836
   82U       O2 2215   4.436  10.151   6.721
   82U      C3' 2216   4.635  10.481   6.954
   82U      H3' 2217   4.584  10.449   7.045
   82U      C2' 2218   4.583  10.396   6.830
   82U     H2'1 2219   4.474  10.390   6.821
   82U      O2' 2220   4.641  10.458   6.713
   82U     HO'2 2221   4.596  10.543   6.705
   82U      O3' 2222   4.626  10.620   6.939
   83G        P 2223   4.474  10.694   6.939
   83G      O1P 2224   4.493  10.835   6.927
   83G      O2P 2225   4.399  10.631   7.049
   83G      O5' 2226   4.402  10.654   6.805
   83G      C5' 2227   4.428  10.718   6.684
   83G     H5'1 2228   4.532  10.709   6.654
   83G     H5'2 2229   4.416  10.826   6.697
   83G      C4' 2230   4.329  10.666   6.579
   83G      H4' 2231   4.357  10.708   6.482
   83G      O4' 2232   4.340  10.528   6.557
   83G      C1' 2233   4.214  10.473   6.517
   83G      H1' 2234   4.223  10.425   6.419
   83G       N9 2235   4.163  10.375   6.616
   83G       C8 2236   4.188  10.375   6.750
   83G       H8 2237   4.243  10.451   6.803
   83G       N7 2238   4.098  10.300   6.814
   83G       C5 2239   4.030  10.233   6.707
   83G       C6 2240   3.921  10.139   6.714
   83G       O6 2241   3.864  10.086   6.812
   83G       N1 2242   3.863  10.112   6.592
   83G       H1 2243   3.791  10.041   6.588
   83G       C2 2244   3.906  10.175   6.478
   83G       N2 2245   3.865  10.137   6.365
   83G      H21 2246   3.808  10.054   6.364
   83G      H22 2247   3.879  10.196   6.285
   83G       N3 2248   4.004  10.272   6.465
   83G       C4 2249   4.062  10.286   6.584
   83G      C3' 2250   4.177  10.697   6.606
   83G      H3' 2251   4.157  10.673   6.710
   83G      C2' 2252   4.116  10.591   6.516
   83G     H2'1 2253   4.027  10.552   6.564
   83G      O2' 2254   4.078  10.641   6.384
   83G     HO'2 2255   3.992  10.682   6.397
   83G      O3' 2256   4.140  10.827   6.568
   83G      H3T 2257   4.056  10.823   6.522
  11.10136  11.10136  11.10136
