VIBRIO VULNIFICUS A-RIBOSWITCH in water t=   0.00000 step= 0
 2257
   13C      O5'    1   2.269   5.987   5.334
   13C      H5T    2   2.240   5.914   5.389
   13C      C5'    3   2.284   5.937   5.199
   13C     H5'1    4   2.188   5.887   5.185
   13C     H5'2    5   2.358   5.857   5.186
   13C      C4'    6   2.291   6.045   5.090
   13C      H4'    7   2.293   5.989   4.997
   13C      O4'    8   2.186   6.141   5.075
   13C      C1'    9   2.249   6.270   5.049
   13C      H1'   10   2.199   6.325   4.970
   13C       N1   11   2.241   6.363   5.168
   13C       C6   12   2.201   6.331   5.295
   13C       H6   13   2.170   6.231   5.319
   13C       C5   14   2.202   6.422   5.397
   13C       H5   15   2.175   6.397   5.499
   13C       C4   16   2.251   6.550   5.365
   13C       N4   17   2.246   6.646   5.455
   13C      H41   18   2.218   6.633   5.551
   13C      H42   19   2.294   6.732   5.433
   13C       N3   20   2.270   6.588   5.239
   13C       C2   21   2.262   6.496   5.138
   13C       O2   22   2.282   6.536   5.019
   13C      C3'   23   2.427   6.132   5.088
   13C      H3'   24   2.451   6.166   5.189
   13C      C2'   25   2.391   6.251   5.007
   13C     H2'1   26   2.461   6.331   5.033
   13C      O2'   27   2.381   6.225   4.861
   13C     HO'2   28   2.426   6.294   4.813
   13C      O3'   29   2.522   6.044   5.039
   14G        P   30   2.676   6.080   5.039
   14G      O1P   31   2.736   5.963   4.973
   14G      O2P   32   2.724   6.121   5.174
   14G      O5'   33   2.697   6.198   4.936
   14G      C5'   34   2.689   6.186   4.790
   14G     H5'1   35   2.596   6.133   4.769
   14G     H5'2   36   2.768   6.123   4.748
   14G      C4'   37   2.681   6.325   4.716
   14G      H4'   38   2.647   6.307   4.614
   14G      O4'   39   2.569   6.405   4.762
   14G      C1'   40   2.608   6.537   4.780
   14G      H1'   41   2.546   6.610   4.727
   14G       N9   42   2.624   6.579   4.925
   14G       C8   43   2.661   6.506   5.039
   14G       H8   44   2.685   6.401   5.044
   14G       N7   45   2.671   6.571   5.151
   14G       C5   46   2.648   6.703   5.102
   14G       C6   47   2.634   6.833   5.172
   14G       O6   48   2.643   6.859   5.290
   14G       N1   49   2.622   6.946   5.086
   14G       H1   50   2.625   7.038   5.129
   14G       C2   51   2.615   6.929   4.952
   14G       N2   52   2.603   7.037   4.887
   14G      H21   53   2.628   7.130   4.920
   14G      H22   54   2.561   7.031   4.796
   14G       N3   55   2.599   6.814   4.885
   14G       C4   56   2.622   6.706   4.968
   14G      C3'   57   2.808   6.409   4.737
   14G      H3'   58   2.837   6.406   4.842
   14G      C2'   59   2.752   6.546   4.717
   14G     H2'1   60   2.808   6.615   4.780
   14G      O2'   61   2.743   6.577   4.581
   14G     HO'2   62   2.799   6.511   4.539
   14G      O3'   63   2.915   6.384   4.644
   15C        P   64   3.065   6.410   4.688
   15C      O1P   65   3.155   6.367   4.580
   15C      O2P   66   3.085   6.359   4.823
   15C      O5'   67   3.081   6.565   4.690
   15C      C5'   68   3.080   6.635   4.572
   15C     H5'1   69   2.983   6.621   4.524
   15C     H5'2   70   3.159   6.604   4.504
   15C      C4'   71   3.087   6.788   4.606
   15C      H4'   72   3.090   6.853   4.518
   15C      O4'   73   2.987   6.825   4.703
   15C      C1'   74   3.043   6.928   4.786
   15C      H1'   75   3.002   7.027   4.768
   15C       N1   76   3.012   6.878   4.926
   15C       C6   77   3.036   6.751   4.968
   15C       H6   78   3.076   6.675   4.902
   15C       C5   79   3.020   6.719   5.098
   15C       H5   80   3.050   6.620   5.128
   15C       C4   81   2.986   6.821   5.192
   15C       N4   82   2.969   6.788   5.320
   15C      H41   83   2.965   6.693   5.352
   15C      H42   84   2.932   6.855   5.387
   15C       N3   85   2.961   6.943   5.155
   15C       C2   86   2.981   6.981   5.023
   15C       O2   87   2.965   7.101   4.998
   15C      C3'   88   3.221   6.814   4.681
   15C      H3'   89   3.243   6.737   4.754
   15C      C2'   90   3.189   6.941   4.761
   15C     H2'1   91   3.249   6.954   4.851
   15C      O2'   92   3.204   7.072   4.684
   15C     HO'2   93   3.255   7.060   4.604
   15C      O3'   94   3.330   6.814   4.587
   16U        P   95   3.474   6.794   4.643
   16U      O1P   96   3.574   6.836   4.541
   16U      O2P   97   3.481   6.663   4.710
   16U      O5'   98   3.485   6.904   4.761
   16U      C5'   99   3.508   7.043   4.745
   16U     H5'1  100   3.433   7.086   4.678
   16U     H5'2  101   3.601   7.067   4.693
   16U      C4'  102   3.503   7.132   4.871
   16U      H4'  103   3.517   7.238   4.853
   16U      O4'  104   3.386   7.122   4.951
   16U      C1'  105   3.433   7.149   5.092
   16U      H1'  106   3.392   7.242   5.130
   16U       N1  107   3.384   7.037   5.172
   16U       C6  108   3.366   6.909   5.126
   16U       H6  109   3.382   6.888   5.022
   16U       C5  110   3.323   6.812   5.207
   16U       H5  111   3.310   6.718   5.157
   16U       C4  112   3.280   6.838   5.342
   16U       O4  113   3.229   6.761   5.421
   16U       N3  114   3.282   6.973   5.379
   16U       H3  115   3.268   6.994   5.477
   16U       C2  116   3.353   7.069   5.306
   16U       O2  117   3.386   7.172   5.366
   16U      C3'  118   3.612   7.091   4.969
   16U      H3'  119   3.615   6.984   4.989
   16U      C2'  120   3.581   7.158   5.105
   16U     H2'1  121   3.627   7.102   5.186
   16U      O2'  122   3.620   7.292   5.098
   16U     HO'2  123   3.601   7.328   5.186
   16U      O3'  124   3.741   7.124   4.921
   17U        P  125   3.868   7.051   4.965
   17U      O1P  126   3.980   7.084   4.877
   17U      O2P  127   3.837   6.902   4.964
   17U      O5'  128   3.901   7.087   5.116
   17U      C5'  129   3.942   7.218   5.158
   17U     H5'1  130   3.885   7.295   5.106
   17U     H5'2  131   4.050   7.232   5.148
   17U      C4'  132   3.929   7.245   5.307
   17U      H4'  133   3.945   7.353   5.318
   17U      O4'  134   3.794   7.234   5.335
   17U      C1'  135   3.780   7.203   5.477
   17U      H1'  136   3.729   7.285   5.528
   17U       N1  137   3.696   7.089   5.489
   17U       C6  138   3.704   6.977   5.403
   17U       H6  139   3.772   6.986   5.320
   17U       C5  140   3.647   6.861   5.428
   17U       H5  141   3.675   6.772   5.374
   17U       C4  142   3.565   6.842   5.550
   17U       O4  143   3.510   6.739   5.585
   17U       N3  144   3.567   6.951   5.631
   17U       H3  145   3.514   6.943   5.717
   17U       C2  146   3.625   7.072   5.609
   17U       O2  147   3.622   7.157   5.699
   17U      C3'  148   4.005   7.173   5.417
   17U      H3'  149   3.998   7.068   5.386
   17U      C2'  150   3.917   7.190   5.540
   17U     H2'1  151   3.921   7.106   5.609
   17U      O2'  152   3.962   7.311   5.599
   17U     HO'2  153   4.058   7.308   5.596
   17U      O3'  154   4.141   7.201   5.428
   18C        P  155   4.230   7.099   5.519
   18C      O1P  156   4.360   7.166   5.538
   18C      O2P  157   4.231   6.962   5.466
   18C      O5'  158   4.164   7.096   5.661
   18C      C5'  159   4.207   7.194   5.758
   18C     H5'1  160   4.184   7.294   5.719
   18C     H5'2  161   4.316   7.192   5.764
   18C      C4'  162   4.143   7.177   5.899
   18C      H4'  163   4.173   7.263   5.960
   18C      O4'  164   4.000   7.166   5.902
   18C      C1'  165   3.951   7.070   5.995
   18C      H1'  166   3.880   7.117   6.063
   18C       N1  167   3.874   6.958   5.935
   18C       C6  168   3.906   6.916   5.813
   18C       H6  169   3.961   6.987   5.753
   18C       C5  170   3.857   6.806   5.756
   18C       H5  171   3.874   6.775   5.654
   18C       C4  172   3.778   6.721   5.843
   18C       N4  173   3.726   6.608   5.793
   18C      H41  174   3.734   6.595   5.694
   18C      H42  175   3.665   6.545   5.843
   18C       N3  176   3.750   6.754   5.967
   18C       C2  177   3.796   6.875   6.015
   18C       O2  178   3.779   6.901   6.137
   18C      C3'  179   4.191   7.052   5.976
   18C      H3'  180   4.194   6.968   5.907
   18C      C2'  181   4.072   7.018   6.071
   18C     H2'1  182   4.059   6.910   6.080
   18C      O2'  183   4.075   7.072   6.202
   18C     HO'2  184   4.130   7.023   6.263
   18C      O3'  185   4.320   7.077   6.040
   19A        P  186   4.394   6.961   6.108
   19A      O1P  187   4.525   7.008   6.165
   19A      O2P  188   4.393   6.858   6.001
   19A      O5'  189   4.307   6.900   6.223
   19A      C5'  190   4.325   6.928   6.367
   19A     H5'1  191   4.324   7.037   6.379
   19A     H5'2  192   4.418   6.879   6.395
   19A      C4'  193   4.212   6.854   6.442
   19A      H4'  194   4.204   6.904   6.539
   19A      O4'  195   4.087   6.853   6.381
   19A      C1'  196   4.026   6.732   6.400
   19A      H1'  197   3.922   6.744   6.430
   19A       N9  198   4.030   6.650   6.280
   19A       C8  199   4.102   6.656   6.160
   19A       H8  200   4.161   6.740   6.127
   19A       N7  201   4.077   6.552   6.080
   19A       C5  202   3.982   6.479   6.142
   19A       C6  203   3.915   6.357   6.115
   19A       N6  204   3.909   6.301   5.999
   19A      H61  205   3.961   6.356   5.932
   19A      H62  206   3.856   6.219   5.975
   19A       N1  207   3.837   6.298   6.212
   19A       C2  208   3.831   6.360   6.325
   19A       H2  209   3.761   6.316   6.395
   19A       N3  210   3.884   6.474   6.364
   19A       C4  211   3.958   6.531   6.267
   19A      C3'  212   4.240   6.711   6.492
   19A      H3'  213   4.280   6.656   6.407
   19A      C2'  214   4.098   6.668   6.520
   19A     H2'1  215   4.093   6.560   6.510
   19A      O2'  216   4.024   6.717   6.634
   19A     HO'2  217   4.085   6.769   6.687
   19A      O3'  218   4.315   6.709   6.611
   20U        P  219   4.401   6.574   6.636
   20U      O1P  220   4.480   6.586   6.761
   20U      O2P  221   4.476   6.550   6.514
   20U      O5'  222   4.296   6.457   6.653
   20U      C5'  223   4.252   6.421   6.778
   20U     H5'1  224   4.190   6.504   6.812
   20U     H5'2  225   4.338   6.409   6.844
   20U      C4'  226   4.162   6.300   6.769
   20U      H4'  227   4.109   6.280   6.862
   20U      O4'  228   4.060   6.310   6.665
   20U      C1'  229   4.031   6.179   6.608
   20U      H1'  230   3.924   6.160   6.616
   20U       N1  231   4.073   6.176   6.458
   20U       C6  232   4.156   6.269   6.396
   20U       H6  233   4.193   6.359   6.443
   20U       C5  234   4.201   6.244   6.271
   20U       H5  235   4.263   6.321   6.226
   20U       C4  236   4.143   6.139   6.191
   20U       O4  237   4.166   6.124   6.069
   20U       N3  238   4.053   6.061   6.256
   20U       H3  239   4.021   5.974   6.215
   20U       C2  240   4.017   6.069   6.388
   20U       O2  241   3.936   5.983   6.427
   20U      C3'  242   4.236   6.178   6.738
   20U      H3'  243   4.308   6.195   6.658
   20U      C2'  244   4.117   6.088   6.690
   20U     H2'1  245   4.152   5.999   6.637
   20U      O2'  246   4.027   6.054   6.797
   20U     HO'2  247   4.073   6.005   6.866
   20U      O3'  248   4.289   6.125   6.849
   21A        P  249   4.404   6.020   6.848
   21A      O1P  250   4.457   6.003   6.988
   21A      O2P  251   4.497   6.079   6.748
   21A      O5'  252   4.353   5.888   6.780
   21A      C5'  253   4.294   5.789   6.858
   21A     H5'1  254   4.220   5.831   6.927
   21A     H5'2  255   4.368   5.747   6.926
   21A      C4'  256   4.241   5.670   6.777
   21A      H4'  257   4.202   5.591   6.841
   21A      O4'  258   4.143   5.706   6.676
   21A      C1'  259   4.160   5.625   6.561
   21A      H1'  260   4.072   5.570   6.530
   21A       N9  261   4.191   5.719   6.450
   21A       C8  262   4.271   5.838   6.451
   21A       H8  263   4.302   5.883   6.545
   21A       N7  264   4.297   5.880   6.329
   21A       C5  265   4.250   5.777   6.247
   21A       C6  266   4.263   5.745   6.110
   21A       N6  267   4.326   5.815   6.020
   21A      H61  268   4.372   5.901   6.048
   21A      H62  269   4.346   5.781   5.928
   21A       N1  270   4.227   5.630   6.063
   21A       C2  271   4.175   5.538   6.144
   21A       H2  272   4.145   5.442   6.107
   21A       N3  273   4.148   5.554   6.275
   21A       C4  274   4.188   5.680   6.320
   21A      C3'  275   4.352   5.606   6.700
   21A      H3'  276   4.419   5.675   6.649
   21A      C2'  277   4.274   5.527   6.596
   21A     H2'1  278   4.335   5.507   6.508
   21A      O2'  279   4.215   5.401   6.625
   21A     HO'2  280   4.250   5.339   6.562
   21A      O3'  281   4.438   5.523   6.773
   22U        P  282   4.574   5.565   6.840
   22U      O1P  283   4.574   5.496   6.970
   22U      O2P  284   4.594   5.715   6.827
   22U      O5'  285   4.670   5.473   6.746
   22U      C5'  286   4.771   5.528   6.660
   22U     H5'1  287   4.870   5.493   6.689
   22U     H5'2  288   4.770   5.637   6.659
   22U      C4'  289   4.759   5.481   6.513
   22U      H4'  290   4.844   5.529   6.464
   22U      O4'  291   4.778   5.342   6.502
   22U      C1'  292   4.682   5.291   6.404
   22U      H1'  293   4.727   5.312   6.307
   22U       N1  294   4.652   5.146   6.405
   22U       C6  295   4.651   5.091   6.530
   22U       H6  296   4.674   5.158   6.612
   22U       C5  297   4.617   4.959   6.545
   22U       H5  298   4.608   4.922   6.646
   22U       C4  299   4.583   4.872   6.433
   22U       O4  300   4.555   4.753   6.437
   22U       N3  301   4.598   4.933   6.309
   22U       H3  302   4.577   4.883   6.224
   22U       C2  303   4.628   5.064   6.288
   22U       O2  304   4.619   5.107   6.173
   22U      C3'  305   4.623   5.512   6.450
   22U      H3'  306   4.569   5.561   6.531
   22U      C2'  307   4.559   5.380   6.410
   22U     H2'1  308   4.495   5.354   6.494
   22U      O2'  309   4.504   5.383   6.276
   22U     HO'2  310   4.556   5.453   6.235
   22U      O3'  311   4.611   5.598   6.339
   23A        P  312   4.651   5.755   6.355
   23A      O1P  313   4.605   5.812   6.486
   23A      O2P  314   4.606   5.823   6.228
   23A      O5'  315   4.813   5.759   6.360
   23A      C5'  316   4.888   5.723   6.243
   23A     H5'1  317   4.877   5.784   6.154
   23A     H5'2  318   4.874   5.617   6.218
   23A      C4'  319   5.038   5.718   6.274
   23A      H4'  320   5.077   5.818   6.259
   23A      O4'  321   5.069   5.679   6.408
   23A      C1'  322   5.180   5.592   6.411
   23A      H1'  323   5.258   5.637   6.473
   23A       N9  324   5.136   5.476   6.490
   23A       C8  325   5.140   5.448   6.621
   23A       H8  326   5.195   5.519   6.681
   23A       N7  327   5.092   5.336   6.665
   23A       C5  328   5.058   5.275   6.545
   23A       C6  329   5.024   5.144   6.510
   23A       N6  330   4.996   5.042   6.589
   23A      H61  331   5.015   5.042   6.689
   23A      H62  332   4.971   4.953   6.549
   23A       N1  333   4.996   5.118   6.380
   23A       C2  334   5.020   5.206   6.284
   23A       H2  335   5.007   5.180   6.180
   23A       N3  336   5.072   5.328   6.307
   23A       C4  337   5.077   5.362   6.442
   23A      C3'  338   5.125   5.627   6.182
   23A      H3'  339   5.072   5.532   6.175
   23A      C2'  340   5.239   5.591   6.267
   23A     H2'1  341   5.266   5.490   6.239
   23A      O2'  342   5.353   5.673   6.244
   23A     HO'2  343   5.353   5.691   6.150
   23A      O3'  344   5.170   5.690   6.055
   24A        P  345   5.121   5.637   5.916
   24A      O1P  346   5.164   5.744   5.821
   24A      O2P  347   4.976   5.614   5.930
   24A      O5'  348   5.202   5.507   5.895
   24A      C5'  349   5.178   5.385   5.973
   24A     H5'1  350   5.073   5.368   5.996
   24A     H5'2  351   5.224   5.412   6.069
   24A      C4'  352   5.237   5.255   5.914
   24A      H4'  353   5.219   5.188   5.998
   24A      O4'  354   5.177   5.196   5.798
   24A      C1'  355   5.265   5.217   5.691
   24A      H1'  356   5.271   5.121   5.640
   24A       N9  357   5.226   5.313   5.586
   24A       C8  358   5.240   5.454   5.581
   24A       H8  359   5.298   5.509   5.654
   24A       N7  360   5.199   5.503   5.466
   24A       C5  361   5.146   5.394   5.400
   24A       C6  362   5.081   5.382   5.271
   24A       N6  363   5.067   5.482   5.188
   24A      H61  364   5.086   5.573   5.229
   24A      H62  365   5.029   5.460   5.097
   24A       N1  366   5.041   5.267   5.226
   24A       C2  367   5.053   5.166   5.309
   24A       H2  368   5.017   5.073   5.269
   24A       N3  369   5.113   5.156   5.428
   24A       C4  370   5.160   5.277   5.474
   24A      C3'  371   5.388   5.249   5.895
   24A      H3'  372   5.452   5.329   5.934
   24A      C2'  373   5.406   5.247   5.745
   24A     H2'1  374   5.452   5.340   5.711
   24A      O2'  375   5.490   5.133   5.723
   24A     HO'2  376   5.502   5.100   5.813
   24A      O3'  377   5.432   5.129   5.960
   25U        P  378   5.581   5.116   6.037
   25U      O1P  379   5.660   5.225   5.976
   25U      O2P  380   5.629   4.977   6.030
   25U      O5'  381   5.554   5.148   6.189
   25U      C5'  382   5.555   5.283   6.228
   25U     H5'1  383   5.488   5.353   6.177
   25U     H5'2  384   5.649   5.332   6.202
   25U      C4'  385   5.531   5.312   6.377
   25U      H4'  386   5.542   5.417   6.407
   25U      O4'  387   5.399   5.281   6.421
   25U      C1'  388   5.403   5.233   6.559
   25U      H1'  389   5.343   5.293   6.628
   25U       N1  390   5.356   5.097   6.573
   25U       C6  391   5.310   5.024   6.467
   25U       H6  392   5.307   5.072   6.370
   25U       C5  393   5.284   4.890   6.485
   25U       H5  394   5.266   4.828   6.399
   25U       C4  395   5.280   4.828   6.614
   25U       O4  396   5.264   4.713   6.643
   25U       N3  397   5.306   4.917   6.716
   25U       H3  398   5.290   4.873   6.806
   25U       C2  399   5.351   5.052   6.703
   25U       O2  400   5.376   5.117   6.806
   25U      C3'  401   5.628   5.234   6.467
   25U      H3'  402   5.629   5.127   6.444
   25U      C2'  403   5.554   5.247   6.594
   25U     H2'1  404   5.590   5.180   6.672
   25U      O2'  405   5.575   5.371   6.659
   25U     HO'2  406   5.646   5.364   6.723
   25U      O3'  407   5.759   5.276   6.488
   26C        P  408   5.879   5.176   6.471
   26C      O1P  409   5.993   5.244   6.535
   26C      O2P  410   5.884   5.126   6.328
   26C      O5'  411   5.847   5.044   6.547
   26C      C5'  412   5.859   5.037   6.689
   26C     H5'1  413   5.828   5.132   6.733
   26C     H5'2  414   5.966   5.022   6.702
   26C      C4'  415   5.770   4.935   6.767
   26C      H4'  416   5.746   4.962   6.870
   26C      O4'  417   5.647   4.897   6.701
   26C      C1'  418   5.616   4.756   6.726
   26C      H1'  419   5.528   4.739   6.788
   26C       N1  420   5.596   4.680   6.596
   26C       C6  421   5.594   4.743   6.474
   26C       H6  422   5.615   4.849   6.470
   26C       C5  423   5.549   4.676   6.365
   26C       H5  424   5.543   4.729   6.271
   26C       C4  425   5.511   4.539   6.372
   26C       N4  426   5.478   4.480   6.267
   26C      H41  427   5.473   4.531   6.180
   26C      H42  428   5.453   4.383   6.268
   26C       N3  429   5.518   4.475   6.490
   26C       C2  430   5.558   4.541   6.602
   26C       O2  431   5.557   4.479   6.709
   26C      C3'  432   5.845   4.803   6.770
   26C      H3'  433   5.891   4.787   6.673
   26C      C2'  434   5.728   4.702   6.808
   26C     H2'1  435   5.752   4.600   6.778
   26C      O2'  436   5.702   4.708   6.950
   26C     HO'2  437   5.695   4.620   6.987
   26C      O3'  438   5.944   4.810   6.868
   27C        P  439   6.067   4.715   6.850
   27C      O1P  440   6.166   4.751   6.953
   27C      O2P  441   6.112   4.726   6.706
   27C      O5'  442   6.025   4.564   6.880
   27C      C5'  443   5.995   4.502   7.003
   27C     H5'1  444   5.901   4.532   7.049
   27C     H5'2  445   6.061   4.536   7.083
   27C      C4'  446   5.999   4.349   6.992
   27C      H4'  447   5.977   4.311   7.092
   27C      O4'  448   5.911   4.302   6.888
   27C      C1'  449   5.987   4.229   6.797
   27C      H1'  450   5.993   4.123   6.824
   27C       N1  451   5.933   4.247   6.663
   27C       C6  452   5.937   4.373   6.602
   27C       H6  453   5.973   4.464   6.648
   27C       C5  454   5.889   4.382   6.474
   27C       H5  455   5.880   4.474   6.419
   27C       C4  456   5.828   4.265   6.414
   27C       N4  457   5.781   4.286   6.293
   27C      H41  458   5.776   4.378   6.253
   27C      H42  459   5.733   4.209   6.250
   27C       N3  460   5.824   4.143   6.472
   27C       C2  461   5.878   4.133   6.596
   27C       O2  462   5.861   4.023   6.651
   27C      C3'  463   6.142   4.296   6.958
   27C      H3'  464   6.219   4.369   6.985
   27C      C2'  465   6.129   4.277   6.809
   27C     H2'1  466   6.145   4.376   6.768
   27C      O2'  467   6.224   4.197   6.738
   27C     HO'2  468   6.218   4.117   6.790
   27C      O3'  469   6.162   4.184   7.047
   28U        P  470   6.299   4.102   7.029
   28U      O1P  471   6.313   4.028   7.160
   28U      O2P  472   6.403   4.201   6.988
   28U      O5'  473   6.270   3.998   6.907
   28U      C5'  474   6.183   3.885   6.930
   28U     H5'1  475   6.095   3.930   6.976
   28U     H5'2  476   6.231   3.811   6.994
   28U      C4'  477   6.158   3.824   6.797
   28U      H4'  478   6.087   3.743   6.807
   28U      O4'  479   6.142   3.906   6.692
   28U      C1'  480   6.154   3.832   6.571
   28U      H1'  481   6.057   3.783   6.564
   28U       N1  482   6.176   3.913   6.449
   28U       C6  483   6.264   4.017   6.455
   28U       H6  484   6.316   4.049   6.545
   28U       C5  485   6.267   4.105   6.356
   28U       H5  486   6.323   4.197   6.365
   28U       C4  487   6.198   4.085   6.233
   28U       O4  488   6.201   4.158   6.133
   28U       N3  489   6.123   3.968   6.226
   28U       H3  490   6.058   3.965   6.149
   28U       C2  491   6.113   3.875   6.329
   28U       O2  492   6.038   3.780   6.320
   28U      C3'  493   6.291   3.758   6.748
   28U      H3'  494   6.376   3.826   6.745
   28U      C2'  495   6.259   3.727   6.604
   28U     H2'1  496   6.339   3.733   6.530
   28U      O2'  497   6.183   3.604   6.596
   28U     HO'2  498   6.243   3.530   6.586
   28U      O3'  499   6.336   3.637   6.818
   29A        P  500   6.473   3.551   6.773
   29A      O1P  501   6.508   3.464   6.884
   29A      O2P  502   6.565   3.661   6.740
   29A      O5'  503   6.441   3.468   6.638
   29A      C5'  504   6.454   3.336   6.623
   29A     H5'1  505   6.368   3.288   6.669
   29A     H5'2  506   6.547   3.299   6.667
   29A      C4'  507   6.452   3.285   6.478
   29A      H4'  508   6.444   3.176   6.486
   29A      O4'  509   6.350   3.352   6.397
   29A      C1'  510   6.395   3.358   6.261
   29A      H1'  511   6.321   3.309   6.198
   29A       N9  512   6.396   3.495   6.217
   29A       C8  513   6.426   3.606   6.295
   29A       H8  514   6.453   3.597   6.399
   29A       N7  515   6.400   3.724   6.233
   29A       C5  516   6.369   3.681   6.103
   29A       C6  517   6.335   3.742   5.980
   29A       N6  518   6.330   3.871   5.950
   29A      H61  519   6.337   3.935   6.029
   29A      H62  520   6.322   3.902   5.854
   29A       N1  521   6.304   3.672   5.869
   29A       C2  522   6.301   3.541   5.876
   29A       H2  523   6.276   3.477   5.793
   29A       N3  524   6.321   3.472   5.984
   29A       C4  525   6.367   3.545   6.091
   29A      C3'  526   6.581   3.309   6.409
   29A      H3'  527   6.616   3.410   6.434
   29A      C2'  528   6.539   3.315   6.263
   29A     H2'1  529   6.611   3.370   6.202
   29A      O2'  530   6.537   3.171   6.227
   29A     HO'2  531   6.630   3.147   6.218
   29A      O3'  532   6.682   3.212   6.451
   30A        P  533   6.833   3.203   6.388
   30A      O1P  534   6.913   3.097   6.447
   30A      O2P  535   6.866   3.345   6.400
   30A      O5'  536   6.794   3.170   6.239
   30A      C5'  537   6.880   3.216   6.134
   30A     H5'1  538   6.971   3.156   6.133
   30A     H5'2  539   6.893   3.324   6.146
   30A      C4'  540   6.800   3.196   6.006
   30A      H4'  541   6.785   3.090   5.984
   30A      O4'  542   6.683   3.275   5.993
   30A      C1'  543   6.663   3.334   5.865
   30A      H1'  544   6.571   3.300   5.819
   30A       N9  545   6.677   3.482   5.869
   30A       C8  546   6.719   3.556   5.975
   30A       H8  547   6.769   3.504   6.055
   30A       N7  548   6.693   3.686   5.956
   30A       C5  549   6.638   3.692   5.825
   30A       C6  550   6.580   3.788   5.735
   30A       N6  551   6.573   3.913   5.761
   30A      H61  552   6.592   3.953   5.852
   30A      H62  553   6.536   3.971   5.687
   30A       N1  554   6.526   3.756   5.619
   30A       C2  555   6.529   3.629   5.585
   30A       H2  556   6.494   3.605   5.486
   30A       N3  557   6.584   3.530   5.654
   30A       C4  558   6.637   3.570   5.770
   30A      C3'  559   6.874   3.250   5.888
   30A      H3'  560   6.907   3.352   5.909
   30A      C2'  561   6.764   3.267   5.780
   30A     H2'1  562   6.795   3.329   5.697
   30A      O2'  563   6.720   3.139   5.730
   30A     HO'2  564   6.727   3.144   5.635
   30A      O3'  565   6.974   3.162   5.843
   31U        P  566   7.115   3.212   5.806
   31U      O1P  567   7.213   3.106   5.789
   31U      O2P  568   7.144   3.326   5.888
   31U      O5'  569   7.101   3.275   5.662
   31U      C5'  570   7.067   3.203   5.543
   31U     H5'1  571   7.003   3.120   5.572
   31U     H5'2  572   7.144   3.139   5.501
   31U      C4'  573   6.999   3.280   5.420
   31U      H4'  574   6.968   3.208   5.344
   31U      O4'  575   6.886   3.346   5.468
   31U      C1'  576   6.874   3.471   5.405
   31U      H1'  577   6.778   3.471   5.353
   31U       N1  578   6.886   3.593   5.502
   31U       C6  579   6.932   3.587   5.632
   31U       H6  580   6.963   3.494   5.678
   31U       C5  581   6.946   3.693   5.714
   31U       H5  582   6.992   3.694   5.812
   31U       C4  583   6.915   3.827   5.669
   31U       O4  584   6.926   3.932   5.740
   31U       N3  585   6.864   3.829   5.535
   31U       H3  586   6.836   3.920   5.503
   31U       C2  587   6.849   3.716   5.452
   31U       O2  588   6.813   3.729   5.337
   31U      C3'  589   7.089   3.384   5.360
   31U      H3'  590   7.139   3.438   5.441
   31U      C2'  591   6.987   3.480   5.298
   31U     H2'1  592   7.030   3.580   5.289
   31U      O2'  593   6.936   3.433   5.175
   31U     HO'2  594   7.008   3.400   5.121
   31U      O3'  595   7.179   3.346   5.266
   32G        P  596   7.326   3.414   5.244
   32G      O1P  597   7.400   3.312   5.161
   32G      O2P  598   7.374   3.447   5.376
   32G      O5'  599   7.312   3.551   5.170
   32G      C5'  600   7.256   3.564   5.047
   32G     H5'1  601   7.152   3.532   5.044
   32G     H5'2  602   7.320   3.505   4.982
   32G      C4'  603   7.262   3.710   5.005
   32G      H4'  604   7.232   3.712   4.901
   32G      O4'  605   7.153   3.779   5.061
   32G      C1'  606   7.206   3.904   5.103
   32G      H1'  607   7.149   3.992   5.072
   32G       N9  608   7.209   3.923   5.248
   32G       C8  609   7.233   3.837   5.345
   32G       H8  610   7.268   3.736   5.328
   32G       N7  611   7.222   3.873   5.471
   32G       C5  612   7.177   4.005   5.448
   32G       C6  613   7.144   4.111   5.538
   32G       O6  614   7.148   4.107   5.660
   32G       N1  615   7.104   4.229   5.480
   32G       H1  616   7.092   4.306   5.544
   32G       C2  617   7.116   4.253   5.349
   32G       N2  618   7.080   4.373   5.308
   32G      H21  619   7.054   4.449   5.370
   32G      H22  620   7.050   4.386   5.213
   32G       N3  621   7.142   4.157   5.262
   32G       C4  622   7.175   4.035   5.316
   32G      C3'  623   7.394   3.784   5.023
   32G      H3'  624   7.426   3.763   5.125
   32G      C2'  625   7.341   3.927   5.027
   32G     H2'1  626   7.414   3.994   5.072
   32G      O2'  627   7.300   3.975   4.899
   32G     HO'2  628   7.382   3.996   4.853
   32G      O3'  629   7.499   3.744   4.930
   33A        P  630   7.648   3.749   4.975
   33A      O1P  631   7.730   3.687   4.867
   33A      O2P  632   7.657   3.708   5.111
   33A      O5'  633   7.678   3.908   4.970
   33A      C5'  634   7.688   3.963   4.834
   33A     H5'1  635   7.606   3.921   4.776
   33A     H5'2  636   7.782   3.954   4.780
   33A      C4'  637   7.665   4.116   4.841
   33A      H4'  638   7.663   4.152   4.738
   33A      O4'  639   7.545   4.149   4.906
   33A      C1'  640   7.563   4.279   4.977
   33A      H1'  641   7.494   4.356   4.942
   33A       N9  642   7.542   4.257   5.121
   33A       C8  643   7.570   4.144   5.182
   33A       H8  644   7.628   4.069   5.131
   33A       N7  645   7.556   4.139   5.311
   33A       C5  646   7.488   4.261   5.329
   33A       C6  647   7.440   4.334   5.447
   33A       N6  648   7.437   4.279   5.567
   33A      H61  649   7.443   4.180   5.582
   33A      H62  650   7.386   4.330   5.638
   33A       N1  651   7.409   4.465   5.443
   33A       C2  652   7.425   4.523   5.323
   33A       H2  653   7.398   4.627   5.319
   33A       N3  654   7.471   4.470   5.205
   33A       C4  655   7.496   4.342   5.221
   33A      C3'  656   7.777   4.203   4.907
   33A      H3'  657   7.799   4.140   4.993
   33A      C2'  658   7.699   4.333   4.939
   33A     H2'1  659   7.743   4.397   5.016
   33A      O2'  660   7.673   4.403   4.821
   33A     HO'2  661   7.637   4.490   4.843
   33A      O3'  662   7.903   4.217   4.832
   34U        P  663   8.051   4.258   4.895
   34U      O1P  664   8.154   4.262   4.794
   34U      O2P  665   8.079   4.183   5.024
   34U      O5'  666   8.026   4.406   4.935
   34U      C5'  667   8.000   4.504   4.839
   34U     H5'1  668   7.926   4.465   4.770
   34U     H5'2  669   8.093   4.519   4.784
   34U      C4'  670   7.944   4.629   4.900
   34U      H4'  671   7.914   4.688   4.813
   34U      O4'  672   7.836   4.600   4.988
   34U      C1'  673   7.840   4.670   5.108
   34U      H1'  674   7.767   4.751   5.105
   34U       N1  675   7.804   4.590   5.229
   34U       C6  676   7.864   4.463   5.253
   34U       H6  677   7.923   4.418   5.175
   34U       C5  678   7.859   4.402   5.379
   34U       H5  679   7.907   4.308   5.400
   34U       C4  680   7.775   4.462   5.481
   34U       O4  681   7.742   4.418   5.590
   34U       N3  682   7.723   4.586   5.450
   34U       H3  683   7.690   4.644   5.527
   34U       C2  684   7.723   4.649   5.325
   34U       O2  685   7.654   4.746   5.307
   34U      C3'  686   8.042   4.717   4.983
   34U      H3'  687   8.141   4.671   4.991
   34U      C2'  688   7.970   4.743   5.116
   34U     H2'1  689   8.024   4.698   5.200
   34U      O2'  690   7.943   4.874   5.143
   34U     HO'2  691   7.880   4.900   5.075
   34U      O3'  692   8.060   4.833   4.901
   35A        P  693   8.169   4.839   4.788
   35A      O1P  694   8.135   4.747   4.683
   35A      O2P  695   8.300   4.843   4.854
   35A      O5'  696   8.148   4.991   4.727
   35A      C5'  697   8.057   5.032   4.628
   35A     H5'1  698   7.966   4.978   4.653
   35A     H5'2  699   8.099   5.001   4.532
   35A      C4'  700   8.035   5.187   4.643
   35A      H4'  701   7.964   5.210   4.564
   35A      O4'  702   7.967   5.214   4.767
   35A      C1'  703   8.005   5.343   4.810
   35A      H1'  704   7.925   5.417   4.812
   35A       N9  705   8.057   5.327   4.950
   35A       C8  706   8.075   5.214   5.024
   35A       H8  707   8.026   5.120   5.004
   35A       N7  708   8.144   5.234   5.136
   35A       C5  709   8.164   5.373   5.133
   35A       C6  710   8.213   5.459   5.232
   35A       N6  711   8.280   5.418   5.333
   35A      H61  712   8.284   5.318   5.346
   35A      H62  713   8.319   5.484   5.399
   35A       N1  714   8.206   5.591   5.206
   35A       C2  715   8.156   5.632   5.094
   35A       H2  716   8.154   5.738   5.069
   35A       N3  717   8.095   5.563   4.998
   35A       C4  718   8.110   5.428   5.023
   35A      C3'  719   8.158   5.280   4.628
   35A      H3'  720   8.245   5.236   4.677
   35A      C2'  721   8.114   5.395   4.719
   35A     H2'1  722   8.191   5.426   4.791
   35A      O2'  723   8.053   5.493   4.636
   35A     HO'2  724   8.109   5.503   4.559
   35A      O3'  725   8.181   5.318   4.491
   36U        P  726   8.250   5.216   4.392
   36U      O1P  727   8.348   5.131   4.467
   36U      O2P  728   8.292   5.291   4.269
   36U      O5'  729   8.131   5.127   4.336
   36U      C5'  730   8.015   5.180   4.284
   36U     H5'1  731   8.042   5.259   4.213
   36U     H5'2  732   7.948   5.219   4.361
   36U      C4'  733   7.940   5.081   4.201
   36U      H4'  734   7.853   5.123   4.152
   36U      O4'  735   8.030   5.039   4.097
   36U      C1'  736   8.038   4.895   4.103
   36U      H1'  737   7.964   4.851   4.038
   36U       N1  738   8.177   4.863   4.066
   36U       C6  739   8.286   4.926   4.123
   36U       H6  740   8.273   4.990   4.209
   36U       C5  741   8.416   4.896   4.086
   36U       H5  742   8.505   4.943   4.126
   36U       C4  743   8.437   4.802   3.981
   36U       O4  744   8.547   4.776   3.940
   36U       N3  745   8.325   4.741   3.933
   36U       H3  746   8.345   4.665   3.870
   36U       C2  747   8.196   4.765   3.969
   36U       O2  748   8.097   4.712   3.910
   36U      C3'  749   7.888   4.957   4.281
   36U      H3'  750   7.874   4.978   4.387
   36U      C2'  751   8.001   4.862   4.250
   36U     H2'1  752   8.086   4.888   4.313
   36U      O2'  753   7.958   4.723   4.261
   36U     HO'2  754   7.882   4.709   4.205
   36U      O3'  755   7.774   4.906   4.220
   37G        P  756   7.622   4.921   4.262
   37G      O1P  757   7.550   4.842   4.165
   37G      O2P  758   7.590   5.067   4.285
   37G      O5'  759   7.606   4.859   4.403
   37G      C5'  760   7.627   4.718   4.421
   37G     H5'1  761   7.730   4.704   4.388
   37G     H5'2  762   7.557   4.658   4.363
   37G      C4'  763   7.617   4.685   4.571
   37G      H4'  764   7.636   4.578   4.585
   37G      O4'  765   7.712   4.766   4.630
   37G      C1'  766   7.660   4.801   4.760
   37G      H1'  767   7.716   4.753   4.841
   37G       N9  768   7.666   4.948   4.775
   37G       C8  769   7.687   5.040   4.678
   37G       H8  770   7.702   5.017   4.574
   37G       N7  771   7.671   5.166   4.715
   37G       C5  772   7.678   5.155   4.856
   37G       C6  773   7.678   5.255   4.967
   37G       O6  774   7.657   5.377   4.961
   37G       N1  775   7.698   5.192   5.091
   37G       H1  776   7.730   5.261   5.158
   37G       C2  777   7.691   5.057   5.119
   37G       N2  778   7.692   5.022   5.241
   37G      H21  779   7.702   5.088   5.316
   37G      H22  780   7.670   4.926   5.264
   37G       N3  781   7.685   4.968   5.018
   37G       C4  782   7.681   5.022   4.891
   37G      C3'  783   7.482   4.721   4.627
   37G      H3'  784   7.434   4.810   4.587
   37G      C2'  785   7.517   4.747   4.767
   37G     H2'1  786   7.457   4.822   4.819
   37G      O2'  787   7.524   4.643   4.868
   37G     HO'2  788   7.478   4.677   4.946
   37G      O3'  789   7.386   4.621   4.605
   38G        P  790   7.228   4.633   4.649
   38G      O1P  791   7.164   4.501   4.635
   38G      O2P  792   7.178   4.731   4.552
   38G      O5'  793   7.206   4.694   4.796
   38G      C5'  794   7.224   4.609   4.901
   38G     H5'1  795   7.313   4.550   4.881
   38G     H5'2  796   7.145   4.535   4.900
   38G      C4'  797   7.236   4.684   5.034
   38G      H4'  798   7.259   4.597   5.095
   38G      O4'  799   7.347   4.771   5.047
   38G      C1'  800   7.318   4.873   5.138
   38G      H1'  801   7.393   4.871   5.217
   38G       N9  802   7.324   5.008   5.076
   38G       C8  803   7.304   5.048   4.942
   38G       H8  804   7.281   4.979   4.862
   38G       N7  805   7.327   5.171   4.921
   38G       C5  806   7.358   5.222   5.047
   38G       C6  807   7.377   5.361   5.087
   38G       O6  808   7.396   5.466   5.027
   38G       N1  809   7.373   5.372   5.225
   38G       H1  810   7.379   5.469   5.255
   38G       C2  811   7.393   5.268   5.309
   38G       N2  812   7.442   5.290   5.427
   38G      H21  813   7.457   5.389   5.445
   38G      H22  814   7.479   5.222   5.491
   38G       N3  815   7.371   5.141   5.281
   38G       C4  816   7.349   5.123   5.146
   38G      C3'  817   7.116   4.766   5.065
   38G      H3'  818   7.094   4.829   4.980
   38G      C2'  819   7.177   4.849   5.185
   38G     H2'1  820   7.123   4.942   5.203
   38G      O2'  821   7.184   4.785   5.309
   38G     HO'2  822   7.108   4.727   5.309
   38G      O3'  823   7.011   4.687   5.108
   39U        P  824   6.853   4.722   5.083
   39U      O1P  825   6.835   4.850   5.015
   39U      O2P  826   6.787   4.691   5.213
   39U      O5'  827   6.809   4.608   4.985
   39U      C5'  828   6.841   4.602   4.845
   39U     H5'1  829   6.937   4.651   4.829
   39U     H5'2  830   6.765   4.653   4.786
   39U      C4'  831   6.849   4.454   4.798
   39U      H4'  832   6.894   4.453   4.699
   39U      O4'  833   6.932   4.379   4.888
   39U      C1'  834   6.889   4.246   4.906
   39U      H1'  835   6.961   4.176   4.864
   39U       N1  836   6.850   4.214   5.045
   39U       C6  837   6.812   4.303   5.142
   39U       H6  838   6.787   4.405   5.114
   39U       C5  839   6.795   4.256   5.268
   39U       H5  840   6.771   4.317   5.354
   39U       C4  841   6.824   4.120   5.309
   39U       O4  842   6.826   4.074   5.425
   39U       N3  843   6.856   4.038   5.202
   39U       H3  844   6.876   3.940   5.215
   39U       C2  845   6.873   4.081   5.076
   39U       O2  846   6.912   3.997   4.996
   39U      C3'  847   6.714   4.372   4.804
   39U      H3'  848   6.670   4.406   4.898
   39U      C2'  849   6.759   4.227   4.830
   39U     H2'1  850   6.682   4.177   4.888
   39U      O2'  851   6.778   4.171   4.705
   39U     HO'2  852   6.722   4.220   4.646
   39U      O3'  853   6.626   4.388   4.698
   40U        P  854   6.466   4.381   4.730
   40U      O1P  855   6.402   4.376   4.595
   40U      O2P  856   6.436   4.491   4.819
   40U      O5'  857   6.444   4.240   4.801
   40U      C5'  858   6.428   4.121   4.723
   40U     H5'1  859   6.526   4.115   4.675
   40U     H5'2  860   6.354   4.121   4.643
   40U      C4'  861   6.404   3.994   4.808
   40U      H4'  862   6.414   3.908   4.742
   40U      O4'  863   6.513   3.981   4.906
   40U      C1'  864   6.458   3.901   5.004
   40U      H1'  865   6.500   3.801   5.002
   40U       N1  866   6.490   3.956   5.136
   40U       C6  867   6.479   4.093   5.158
   40U       H6  868   6.470   4.164   5.077
   40U       C5  869   6.468   4.143   5.286
   40U       H5  870   6.458   4.251   5.296
   40U       C4  871   6.480   4.054   5.402
   40U       O4  872   6.459   4.086   5.522
   40U       N3  873   6.515   3.924   5.366
   40U       H3  874   6.542   3.865   5.443
   40U       C2  875   6.511   3.865   5.240
   40U       O2  876   6.530   3.744   5.227
   40U      C3'  877   6.272   3.980   4.892
   40U      H3'  878   6.255   4.071   4.950
   40U      C2'  879   6.305   3.878   4.994
   40U     H2'1  880   6.244   3.897   5.083
   40U      O2'  881   6.298   3.748   4.949
   40U     HO'2  882   6.229   3.701   4.996
   40U      O3'  883   6.163   3.949   4.806
   41U        P  884   6.019   3.950   4.879
   41U      O1P  885   5.914   3.917   4.774
   41U      O2P  886   6.009   4.085   4.941
   41U      O5'  887   6.022   3.836   4.992
   41U      C5'  888   5.982   3.707   4.958
   41U     H5'1  889   6.043   3.679   4.873
   41U     H5'2  890   5.876   3.709   4.935
   41U      C4'  891   6.002   3.615   5.079
   41U      H4'  892   5.991   3.509   5.055
   41U      O4'  893   6.128   3.634   5.143
   41U      C1'  894   6.122   3.591   5.278
   41U      H1'  895   6.167   3.495   5.304
   41U       N1  896   6.157   3.697   5.373
   41U       C6  897   6.128   3.830   5.347
   41U       H6  898   6.092   3.876   5.256
   41U       C5  899   6.138   3.922   5.449
   41U       H5  900   6.126   4.028   5.430
   41U       C4  901   6.179   3.889   5.585
   41U       O4  902   6.191   3.962   5.682
   41U       N3  903   6.210   3.755   5.598
   41U       H3  904   6.228   3.721   5.692
   41U       C2  905   6.204   3.660   5.499
   41U       O2  906   6.240   3.546   5.523
   41U      C3'  907   5.900   3.639   5.194
   41U      H3'  908   5.907   3.746   5.214
   41U      C2'  909   5.971   3.559   5.306
   41U     H2'1  910   5.928   3.601   5.397
   41U      O2'  911   5.951   3.421   5.287
   41U     HO'2  912   5.863   3.407   5.323
   41U      O3'  913   5.770   3.597   5.165
   42G        P  914   5.641   3.626   5.261
   42G      O1P  915   5.515   3.587   5.193
   42G      O2P  916   5.653   3.771   5.309
   42G      O5'  917   5.662   3.520   5.384
   42G      C5'  918   5.632   3.380   5.387
   42G     H5'1  919   5.683   3.324   5.309
   42G     H5'2  920   5.524   3.371   5.385
   42G      C4'  921   5.687   3.325   5.518
   42G      H4'  922   5.669   3.217   5.517
   42G      O4'  923   5.821   3.354   5.534
   42G      C1'  924   5.837   3.375   5.677
   42G      H1'  925   5.911   3.300   5.707
   42G       N9  926   5.878   3.510   5.717
   42G       C8  927   5.845   3.629   5.661
   42G       H8  928   5.781   3.626   5.575
   42G       N7  929   5.873   3.736   5.730
   42G       C5  930   5.923   3.685   5.852
   42G       C6  931   5.968   3.748   5.974
   42G       O6  932   5.969   3.870   5.999
   42G       N1  933   6.002   3.656   6.071
   42G       H1  934   6.014   3.685   6.167
   42G       C2  935   6.008   3.523   6.054
   42G       N2  936   6.026   3.447   6.156
   42G      H21  937   6.025   3.483   6.251
   42G      H22  938   6.058   3.355   6.133
   42G       N3  939   5.969   3.464   5.937
   42G       C4  940   5.929   3.552   5.841
   42G      C3'  941   5.610   3.364   5.644
   42G      H3'  942   5.600   3.472   5.641
   42G      C2'  943   5.708   3.332   5.753
   42G     H2'1  944   5.687   3.397   5.839
   42G      O2'  945   5.701   3.192   5.792
   42G     HO'2  946   5.615   3.160   5.764
   42G      O3'  947   5.489   3.283   5.661
   43G        P  948   5.353   3.352   5.726
   43G      O1P  949   5.247   3.248   5.708
   43G      O2P  950   5.337   3.479   5.654
   43G      O5'  951   5.382   3.374   5.877
   43G      C5'  952   5.387   3.266   5.970
   43G     H5'1  953   5.420   3.177   5.916
   43G     H5'2  954   5.281   3.255   5.990
   43G      C4'  955   5.466   3.279   6.093
   43G      H4'  956   5.487   3.184   6.142
   43G      O4'  957   5.599   3.337   6.074
   43G      C1'  958   5.624   3.424   6.188
   43G      H1'  959   5.720   3.397   6.233
   43G       N9  960   5.625   3.567   6.149
   43G       C8  961   5.577   3.623   6.036
   43G       H8  962   5.543   3.569   5.950
   43G       N7  963   5.597   3.756   6.032
   43G       C5  964   5.652   3.788   6.156
   43G       C6  965   5.692   3.910   6.218
   43G       O6  966   5.679   4.026   6.183
   43G       N1  967   5.756   3.889   6.337
   43G       H1  968   5.799   3.964   6.389
   43G       C2  969   5.765   3.770   6.402
   43G       N2  970   5.800   3.777   6.527
   43G      H21  971   5.815   3.863   6.578
   43G      H22  972   5.808   3.694   6.584
   43G       N3  973   5.727   3.652   6.346
   43G       C4  974   5.674   3.670   6.225
   43G      C3'  975   5.394   3.378   6.188
   43G      H3'  976   5.356   3.459   6.125
   43G      C2'  977   5.509   3.402   6.288
   43G     H2'1  978   5.487   3.494   6.343
   43G      O2'  979   5.541   3.292   6.372
   43G     HO'2  980   5.458   3.247   6.386
   43G      O3'  981   5.284   3.320   6.256
   44G        P  982   5.176   3.421   6.328
   44G      O1P  983   5.060   3.339   6.368
   44G      O2P  984   5.140   3.532   6.237
   44G      O5'  985   5.244   3.483   6.460
   44G      C5'  986   5.253   3.419   6.585
   44G     H5'1  987   5.315   3.330   6.569
   44G     H5'2  988   5.158   3.375   6.616
   44G      C4'  989   5.330   3.512   6.682
   44G      H4'  990   5.345   3.461   6.778
   44G      O4'  991   5.448   3.555   6.621
   44G      C1'  992   5.468   3.689   6.648
   44G      H1'  993   5.571   3.690   6.685
   44G       N9  994   5.449   3.787   6.534
   44G       C8  995   5.405   3.762   6.404
   44G       H8  996   5.385   3.660   6.377
   44G       N7  997   5.381   3.871   6.331
   44G       C5  998   5.421   3.978   6.413
   44G       C6  999   5.436   4.123   6.396
   44G       O6 1000   5.414   4.193   6.297
   44G       N1 1001   5.491   4.190   6.505
   44G       H1 1002   5.496   4.291   6.502
   44G       C2 1003   5.519   4.125   6.619
   44G       N2 1004   5.576   4.198   6.714
   44G      H21 1005   5.593   4.296   6.696
   44G      H22 1006   5.618   4.152   6.793
   44G       N3 1007   5.507   3.996   6.641
   44G       C4 1008   5.462   3.926   6.536
   44G      C3' 1009   5.244   3.638   6.716
   44G      H3' 1010   5.201   3.678   6.624
   44G      C2' 1011   5.371   3.718   6.759
   44G     H2'1 1012   5.342   3.824   6.758
   44G      O2' 1013   5.426   3.687   6.883
   44G     HO'2 1014   5.351   3.665   6.938
   44G      O3' 1015   5.153   3.606   6.818
   45A        P 1016   5.042   3.705   6.869
   45A      O1P 1017   4.987   3.660   7.003
   45A      O2P 1018   4.949   3.726   6.758
   45A      O5' 1019   5.114   3.846   6.885
   45A      C5' 1020   5.176   3.893   7.000
   45A     H5'1 1021   5.271   3.845   7.022
   45A     H5'2 1022   5.116   3.877   7.090
   45A      C4' 1023   5.197   4.048   6.986
   45A      H4' 1024   5.258   4.090   7.066
   45A      O4' 1025   5.272   4.070   6.861
   45A      C1' 1026   5.232   4.192   6.800
   45A      H1' 1027   5.311   4.261   6.770
   45A       N9 1028   5.176   4.157   6.668
   45A       C8 1029   5.120   4.049   6.617
   45A       H8 1030   5.104   3.961   6.677
   45A       N7 1031   5.081   4.063   6.493
   45A       C5 1032   5.115   4.192   6.454
   45A       C6 1033   5.090   4.271   6.341
   45A       N6 1034   5.020   4.245   6.233
   45A      H61 1035   4.998   4.152   6.203
   45A      H62 1036   5.021   4.329   6.176
   45A       N1 1037   5.130   4.398   6.348
   45A       C2 1038   5.186   4.448   6.456
   45A       H2 1039   5.211   4.553   6.454
   45A       N3 1040   5.214   4.383   6.572
   45A       C4 1041   5.175   4.253   6.566
   45A      C3' 1042   5.070   4.130   6.966
   45A      H3' 1043   4.996   4.076   6.907
   45A      C2' 1044   5.126   4.256   6.888
   45A     H2'1 1045   5.053   4.299   6.819
   45A      O2' 1046   5.199   4.342   6.975
   45A     HO'2 1047   5.206   4.427   6.930
   45A      O3' 1048   5.015   4.171   7.087
   46G        P 1049   4.866   4.242   7.090
   46G      O1P 1050   4.832   4.258   7.231
   46G      O2P 1051   4.780   4.149   7.007
   46G      O5' 1052   4.879   4.385   7.009
   46G      C5' 1053   4.922   4.501   7.074
   46G     H5'1 1054   5.017   4.487   7.125
   46G     H5'2 1055   4.849   4.526   7.151
   46G      C4' 1056   4.929   4.627   6.991
   46G      H4' 1057   4.965   4.695   7.069
   46G      O4' 1058   5.021   4.630   6.877
   46G      C1' 1059   4.957   4.690   6.766
   46G      H1' 1060   5.020   4.768   6.724
   46G       N9 1061   4.913   4.590   6.667
   46G       C8 1062   4.858   4.471   6.689
   46G       H8 1063   4.851   4.434   6.790
   46G       N7 1064   4.825   4.407   6.576
   46G       C5 1065   4.841   4.507   6.477
   46G       C6 1066   4.818   4.510   6.332
   46G       O6 1067   4.763   4.426   6.261
   46G       N1 1068   4.863   4.631   6.275
   46G       H1 1069   4.842   4.640   6.177
   46G       C2 1070   4.914   4.738   6.339
   46G       N2 1071   4.931   4.850   6.276
   46G      H21 1072   4.910   4.844   6.178
   46G      H22 1073   4.986   4.923   6.320
   46G       N3 1074   4.937   4.735   6.475
   46G       C4 1075   4.904   4.616   6.533
   46G      C3' 1076   4.792   4.682   6.940
   46G      H3' 1077   4.741   4.594   6.901
   46G      C2' 1078   4.832   4.768   6.823
   46G     H2'1 1079   4.755   4.765   6.746
   46G      O2' 1080   4.878   4.899   6.872
   46G     HO'2 1081   4.809   4.934   6.929
   46G      O3' 1082   4.725   4.745   7.040
   47U        P 1083   4.578   4.693   7.079
   47U      O1P 1084   4.541   4.764   7.200
   47U      O2P 1085   4.572   4.551   7.079
   47U      O5' 1086   4.486   4.744   6.960
   47U      C5' 1087   4.447   4.877   6.944
   47U     H5'1 1088   4.531   4.929   6.897
   47U     H5'2 1089   4.419   4.921   7.040
   47U      C4' 1090   4.325   4.887   6.854
   47U      H4' 1091   4.282   4.988   6.851
   47U      O4' 1092   4.356   4.840   6.725
   47U      C1' 1093   4.237   4.782   6.673
   47U      H1' 1094   4.161   4.858   6.660
   47U       N1 1095   4.246   4.723   6.545
   47U       C6 1096   4.263   4.585   6.526
   47U       H6 1097   4.260   4.523   6.614
   47U       C5 1098   4.277   4.522   6.403
   47U       H5 1099   4.288   4.416   6.390
   47U       C4 1100   4.263   4.607   6.281
   47U       O4 1101   4.272   4.562   6.163
   47U       N3 1102   4.241   4.740   6.310
   47U       H3 1103   4.247   4.804   6.232
   47U       C2 1104   4.231   4.805   6.435
   47U       O2 1105   4.216   4.927   6.442
   47U      C3' 1106   4.212   4.803   6.904
   47U      H3' 1107   4.238   4.750   6.996
   47U      C2' 1108   4.184   4.697   6.795
   47U     H2'1 1109   4.245   4.608   6.815
   47U      O2' 1110   4.046   4.677   6.794
   47U     HO'2 1111   4.004   4.748   6.844
   47U      O3' 1112   4.099   4.890   6.934
   48U        P 1113   4.080   4.952   7.086
   48U      O1P 1114   4.147   5.084   7.104
   48U      O2P 1115   4.122   4.847   7.180
   48U      O5' 1116   3.926   4.979   7.104
   48U      C5' 1117   3.855   5.058   7.004
   48U     H5'1 1118   3.898   5.047   6.905
   48U     H5'2 1119   3.872   5.163   7.029
   48U      C4' 1120   3.710   5.006   7.001
   48U      H4' 1121   3.675   4.990   7.103
   48U      O4' 1122   3.626   5.106   6.941
   48U      C1' 1123   3.513   5.046   6.881
   48U      H1' 1124   3.427   5.080   6.939
   48U       N1 1125   3.502   5.076   6.733
   48U       C6 1126   3.586   5.166   6.672
   48U       H6 1127   3.667   5.209   6.729
   48U       C5 1128   3.568   5.211   6.546
   48U       H5 1129   3.627   5.284   6.493
   48U       C4 1130   3.459   5.161   6.473
   48U       O4 1131   3.431   5.187   6.358
   48U       N3 1132   3.380   5.063   6.533
   48U       H3 1133   3.308   5.020   6.477
   48U       C2 1134   3.397   5.019   6.658
   48U       O2 1135   3.316   4.939   6.706
   48U      C3' 1136   3.688   4.879   6.917
   48U      H3' 1137   3.734   4.885   6.819
   48U      C2' 1138   3.542   4.895   6.904
   48U     H2'1 1139   3.516   4.837   6.816
   48U      O2' 1140   3.473   4.830   7.017
   48U     HO'2 1141   3.509   4.742   7.007
   48U      O3' 1142   3.734   4.764   6.987
   49U        P 1143   3.701   4.622   6.921
   49U      O1P 1144   3.569   4.588   6.975
   49U      O2P 1145   3.802   4.521   6.952
   49U      O5' 1146   3.679   4.641   6.764
   49U      C5' 1147   3.565   4.587   6.692
   49U     H5'1 1148   3.472   4.628   6.730
   49U     H5'2 1149   3.549   4.482   6.718
   49U      C4' 1150   3.575   4.601   6.540
   49U      H4' 1151   3.484   4.567   6.491
   49U      O4' 1152   3.583   4.740   6.493
   49U      C1' 1153   3.710   4.756   6.425
   49U      H1' 1154   3.687   4.735   6.321
   49U       N1 1155   3.767   4.891   6.441
   49U       C6 1156   3.859   4.925   6.539
   49U       H6 1157   3.891   4.855   6.615
   49U       C5 1158   3.908   5.051   6.544
   49U       H5 1159   3.979   5.077   6.621
   49U       C4 1160   3.873   5.146   6.440
   49U       O4 1161   3.916   5.263   6.450
   49U       N3 1162   3.786   5.104   6.343
   49U       H3 1163   3.768   5.168   6.267
   49U       C2 1164   3.723   4.985   6.346
   49U       O2 1165   3.636   4.961   6.261
   49U      C3' 1166   3.701   4.529   6.479
   49U      H3' 1167   3.742   4.452   6.544
   49U      C2' 1168   3.799   4.644   6.479
   49U     H2'1 1169   3.831   4.655   6.583
   49U      O2' 1170   3.918   4.620   6.410
   49U     HO'2 1171   3.901   4.542   6.357
   49U      O3' 1172   3.668   4.470   6.356
   50C        P 1173   3.734   4.331   6.309
   50C      O1P 1174   3.667   4.285   6.188
   50C      O2P 1175   3.757   4.240   6.422
   50C      O5' 1176   3.887   4.391   6.271
   50C      C5' 1177   3.931   4.425   6.143
   50C     H5'1 1178   3.959   4.340   6.082
   50C     H5'2 1179   4.026   4.478   6.151
   50C      C4' 1180   3.835   4.525   6.069
   50C      H4' 1181   3.734   4.485   6.061
   50C      O4' 1182   3.833   4.657   6.126
   50C      C1' 1183   3.783   4.743   6.025
   50C      H1' 1184   3.679   4.774   6.036
   50C       N1 1185   3.860   4.873   6.037
   50C       C6 1186   3.954   4.891   6.136
   50C       H6 1187   3.989   4.810   6.197
   50C       C5 1188   4.025   5.004   6.151
   50C       H5 1189   4.113   5.007   6.214
   50C       C4 1190   3.996   5.104   6.059
   50C       N4 1191   4.076   5.215   6.070
   50C      H41 1192   4.143   5.219   6.146
   50C      H42 1193   4.082   5.277   5.990
   50C       N3 1194   3.908   5.088   5.961
   50C       C2 1195   3.835   4.980   5.951
   50C       O2 1196   3.754   4.964   5.859
   50C      C3' 1197   3.885   4.552   5.929
   50C      H3' 1198   3.992   4.575   5.933
   50C      C2' 1199   3.799   4.675   5.891
   50C     H2'1 1200   3.856   4.742   5.827
   50C      O2' 1201   3.673   4.634   5.834
   50C     HO'2 1202   3.686   4.565   5.769
   50C      O3' 1203   3.866   4.439   5.848
   51U        P 1204   3.976   4.410   5.735
   51U      O1P 1205   3.900   4.320   5.644
   51U      O2P 1206   4.100   4.365   5.801
   51U      O5' 1207   4.001   4.554   5.670
   51U      C5' 1208   3.949   4.595   5.546
   51U     H5'1 1209   3.840   4.592   5.548
   51U     H5'2 1210   3.968   4.527   5.463
   51U      C4' 1211   3.989   4.731   5.491
   51U      H4' 1212   3.930   4.753   5.402
   51U      O4' 1213   3.979   4.834   5.593
   51U      C1' 1214   4.093   4.917   5.597
   51U      H1' 1215   4.064   5.021   5.582
   51U       N1 1216   4.162   4.910   5.728
   51U       C6 1217   4.133   4.814   5.817
   51U       H6 1218   4.074   4.731   5.783
   51U       C5 1219   4.186   4.814   5.939
   51U       H5 1220   4.172   4.721   5.993
   51U       C4 1221   4.283   4.905   5.985
   51U       O4 1222   4.340   4.907   6.092
   51U       N3 1223   4.305   5.009   5.891
   51U       H3 1224   4.372   5.082   5.912
   51U       C2 1225   4.251   5.012   5.760
   51U       O2 1226   4.298   5.084   5.677
   51U      C3' 1227   4.136   4.726   5.455
   51U      H3' 1228   4.190   4.670   5.531
   51U      C2' 1229   4.178   4.871   5.473
   51U     H2'1 1230   4.282   4.885   5.504
   51U      O2' 1231   4.153   4.956   5.362
   51U     HO'2 1232   4.213   5.030   5.371
   51U      O3' 1233   4.156   4.675   5.320
   52A        P 1234   4.282   4.576   5.292
   52A      O1P 1235   4.297   4.539   5.153
   52A      O2P 1236   4.272   4.466   5.388
   52A      O5' 1237   4.413   4.664   5.335
   52A      C5' 1238   4.462   4.784   5.261
   52A     H5'1 1239   4.373   4.844   5.244
   52A     H5'2 1240   4.500   4.753   5.164
   52A      C4' 1241   4.569   4.858   5.332
   52A      H4' 1242   4.595   4.947   5.274
   52A      O4' 1243   4.511   4.912   5.452
   52A      C1' 1244   4.610   4.914   5.552
   52A      H1' 1245   4.616   5.017   5.589
   52A       N9 1246   4.567   4.827   5.664
   52A       C8 1247   4.475   4.722   5.671
   52A       H8 1248   4.424   4.686   5.583
   52A       N7 1249   4.474   4.661   5.784
   52A       C5 1250   4.559   4.743   5.861
   52A       C6 1251   4.598   4.743   6.002
   52A       N6 1252   4.548   4.661   6.097
   52A      H61 1253   4.468   4.604   6.075
   52A      H62 1254   4.565   4.693   6.192
   52A       N1 1255   4.677   4.833   6.051
   52A       C2 1256   4.720   4.925   5.969
   52A       H2 1257   4.791   4.990   6.019
   52A       N3 1258   4.697   4.940   5.837
   52A       C4 1259   4.614   4.848   5.789
   52A      C3' 1260   4.698   4.786   5.371
   52A      H3' 1261   4.691   4.685   5.409
   52A      C2' 1262   4.747   4.877   5.491
   52A     H2'1 1263   4.801   4.818   5.565
   52A      O2' 1264   4.800   5.004   5.458
   52A     HO'2 1265   4.880   5.017   5.509
   52A      O3' 1266   4.792   4.787   5.264
   53C        P 1267   4.889   4.667   5.235
   53C      O1P 1268   4.963   4.682   5.107
   53C      O2P 1269   4.825   4.533   5.264
   53C      O5' 1270   4.992   4.689   5.350
   53C      C5' 1271   5.066   4.810   5.361
   53C     H5'1 1272   4.999   4.896   5.350
   53C     H5'2 1273   5.128   4.820   5.272
   53C      C4' 1274   5.143   4.827   5.496
   53C      H4' 1275   5.215   4.908   5.479
   53C      O4' 1276   5.045   4.864   5.590
   53C      C1' 1277   5.090   4.826   5.717
   53C      H1' 1278   5.087   4.912   5.784
   53C       N1 1279   5.002   4.716   5.779
   53C       C6 1280   4.942   4.617   5.704
   53C       H6 1281   4.935   4.619   5.596
   53C       C5 1282   4.863   4.527   5.764
   53C       H5 1283   4.815   4.449   5.707
   53C       C4 1284   4.852   4.532   5.905
   53C       N4 1285   4.787   4.442   5.966
   53C      H41 1286   4.752   4.370   5.905
   53C      H42 1287   4.772   4.443   6.066
   53C       N3 1288   4.893   4.632   5.979
   53C       C2 1289   4.967   4.727   5.918
   53C       O2 1290   5.001   4.827   5.987
   53C      C3' 1291   5.229   4.715   5.555
   53C      H3' 1292   5.182   4.617   5.555
   53C      C2' 1293   5.233   4.773   5.695
   53C     H2'1 1294   5.252   4.690   5.763
   53C      O2' 1295   5.335   4.870   5.727
   53C     HO'2 1296   5.403   4.857   5.661
   53C      O3' 1297   5.357   4.710   5.510
   54C        P 1298   5.396   4.617   5.389
   54C      O1P 1299   5.290   4.514   5.368
   54C      O2P 1300   5.532   4.576   5.421
   54C      O5' 1301   5.404   4.717   5.260
   54C      C5' 1302   5.339   4.683   5.137
   54C     H5'1 1303   5.237   4.652   5.157
   54C     H5'2 1304   5.395   4.602   5.092
   54C      C4' 1305   5.322   4.797   5.035
   54C      H4' 1306   5.258   4.770   4.951
   54C      O4' 1307   5.256   4.907   5.093
   54C      C1' 1308   5.303   5.033   5.055
   54C      H1' 1309   5.231   5.094   5.001
   54C       N1 1310   5.372   5.102   5.167
   54C       C6 1311   5.406   5.039   5.284
   54C       H6 1312   5.396   4.931   5.285
   54C       C5 1313   5.472   5.104   5.385
   54C       H5 1314   5.520   5.050   5.465
   54C       C4 1315   5.492   5.239   5.365
   54C       N4 1316   5.547   5.310   5.457
   54C      H41 1317   5.584   5.259   5.536
   54C      H42 1318   5.533   5.410   5.448
   54C       N3 1319   5.447   5.309   5.262
   54C       C2 1320   5.390   5.242   5.155
   54C       O2 1321   5.372   5.290   5.044
   54C      C3' 1322   5.455   4.854   4.983
   54C      H3' 1323   5.525   4.859   5.066
   54C      C2' 1324   5.412   4.997   4.952
   54C     H2'1 1325   5.497   5.060   4.978
   54C      O2' 1326   5.371   5.017   4.814
   54C     HO'2 1327   5.451   5.046   4.769
   54C      O3' 1328   5.505   4.793   4.869
   55A        P 1329   5.666   4.811   4.834
   55A      O1P 1330   5.691   4.713   4.723
   55A      O2P 1331   5.742   4.811   4.957
   55A      O5' 1332   5.678   4.963   4.774
   55A      C5' 1333   5.632   5.000   4.645
   55A     H5'1 1334   5.533   4.959   4.626
   55A     H5'2 1335   5.702   4.956   4.574
   55A      C4' 1336   5.621   5.148   4.640
   55A      H4' 1337   5.563   5.171   4.551
   55A      O4' 1338   5.556   5.200   4.759
   55A      C1' 1339   5.611   5.329   4.790
   55A      H1' 1340   5.525   5.396   4.797
   55A       N9 1341   5.682   5.325   4.920
   55A       C8 1342   5.704   5.210   4.992
   55A       H8 1343   5.711   5.112   4.948
   55A       N7 1344   5.747   5.238   5.112
   55A       C5 1345   5.728   5.376   5.128
   55A       C6 1346   5.748   5.478   5.223
   55A       N6 1347   5.785   5.453   5.348
   55A      H61 1348   5.772   5.358   5.381
   55A      H62 1349   5.809   5.524   5.416
   55A       N1 1350   5.742   5.611   5.196
   55A       C2 1351   5.704   5.646   5.077
   55A       H2 1352   5.710   5.753   5.067
   55A       N3 1353   5.660   5.563   4.979
   55A       C4 1354   5.686   5.434   5.008
   55A      C3' 1355   5.755   5.224   4.628
   55A      H3' 1356   5.824   5.188   4.704
   55A      C2' 1357   5.704   5.362   4.674
   55A     H2'1 1358   5.786   5.426   4.707
   55A      O2' 1359   5.629   5.431   4.578
   55A     HO'2 1360   5.679   5.435   4.496
   55A      O3' 1361   5.801   5.225   4.500
   56A        P 1362   5.954   5.265   4.468
   56A      O1P 1363   5.970   5.274   4.319
   56A      O2P 1364   6.044   5.170   4.533
   56A      O5' 1365   5.964   5.409   4.535
   56A      C5' 1366   5.940   5.529   4.466
   56A     H5'1 1367   5.835   5.522   4.439
   56A     H5'2 1368   5.987   5.534   4.368
   56A      C4' 1369   5.959   5.657   4.549
   56A      H4' 1370   5.930   5.744   4.490
   56A      O4' 1371   5.886   5.659   4.671
   56A      C1' 1372   5.953   5.726   4.774
   56A      H1' 1373   5.891   5.810   4.806
   56A       N9 1374   5.989   5.631   4.886
   56A       C8 1375   6.010   5.494   4.885
   56A       H8 1376   6.006   5.429   4.799
   56A       N7 1377   6.044   5.445   5.000
   56A       C5 1378   6.047   5.561   5.082
   56A       C6 1379   6.077   5.581   5.221
   56A       N6 1380   6.126   5.485   5.307
   56A      H61 1381   6.145   5.396   5.265
   56A      H62 1382   6.142   5.509   5.404
   56A       N1 1383   6.059   5.703   5.268
   56A       C2 1384   6.025   5.802   5.184
   56A       H2 1385   6.017   5.896   5.237
   56A       N3 1386   6.001   5.798   5.058
   56A       C4 1387   6.004   5.666   5.014
   56A      C3' 1388   6.104   5.676   4.595
   56A      H3' 1389   6.152   5.583   4.625
   56A      C2' 1390   6.076   5.777   4.702
   56A     H2'1 1391   6.166   5.790   4.763
   56A      O2' 1392   6.042   5.905   4.647
   56A     HO'2 1393   6.084   5.917   4.562
   56A      O3' 1394   6.184   5.731   4.492
   57G        P 1395   6.340   5.753   4.515
   57G      O1P 1396   6.394   5.804   4.387
   57G      O2P 1397   6.402   5.628   4.564
   57G      O5' 1398   6.365   5.860   4.629
   57G      C5' 1399   6.345   6.000   4.591
   57G     H5'1 1400   6.249   6.011   4.541
   57G     H5'2 1401   6.421   6.019   4.515
   57G      C4' 1402   6.355   6.093   4.716
   57G      H4' 1403   6.334   6.197   4.691
   57G      O4' 1404   6.267   6.060   4.831
   57G      C1' 1405   6.342   6.078   4.951
   57G      H1' 1406   6.293   6.137   5.029
   57G       N9 1407   6.391   5.947   5.008
   57G       C8 1408   6.396   5.819   4.959
   57G       H8 1409   6.377   5.809   4.853
   57G       N7 1410   6.417   5.723   5.047
   57G       C5 1411   6.431   5.798   5.158
   57G       C6 1412   6.460   5.757   5.289
   57G       O6 1413   6.473   5.644   5.338
   57G       N1 1414   6.480   5.857   5.376
   57G       H1 1415   6.516   5.832   5.467
   57G       C2 1416   6.469   5.983   5.346
   57G       N2 1417   6.504   6.062   5.439
   57G      H21 1418   6.548   6.032   5.525
   57G      H22 1419   6.518   6.155   5.402
   57G       N3 1420   6.454   6.031   5.225
   57G       C4 1421   6.432   5.932   5.136
   57G      C3' 1422   6.499   6.093   4.771
   57G      H3' 1423   6.532   5.991   4.788
   57G      C2' 1424   6.474   6.152   4.911
   57G     H2'1 1425   6.557   6.125   4.976
   57G      O2' 1426   6.461   6.300   4.893
   57G     HO'2 1427   6.470   6.313   4.799
   57G      O3' 1428   6.583   6.174   4.688
   58A        P 1429   6.736   6.149   4.666
   58A      O1P 1430   6.783   6.243   4.554
   58A      O2P 1431   6.752   6.004   4.634
   58A      O5' 1432   6.806   6.174   4.807
   58A      C5' 1433   6.831   6.305   4.846
   58A     H5'1 1434   6.751   6.377   4.833
   58A     H5'2 1435   6.914   6.351   4.793
   58A      C4' 1436   6.844   6.325   4.996
   58A      H4' 1437   6.821   6.430   5.009
   58A      O4' 1438   6.747   6.258   5.072
   58A      C1' 1439   6.800   6.201   5.189
   58A      H1' 1440   6.746   6.224   5.281
   58A       N9 1441   6.787   6.054   5.187
   58A       C8 1442   6.756   5.982   5.077
   58A       H8 1443   6.731   6.019   4.979
   58A       N7 1444   6.764   5.851   5.099
   58A       C5 1445   6.780   5.846   5.238
   58A       C6 1446   6.788   5.739   5.332
   58A       N6 1447   6.766   5.618   5.299
   58A      H61 1448   6.756   5.594   5.202
   58A      H62 1449   6.762   5.552   5.375
   58A       N1 1450   6.810   5.761   5.461
   58A       C2 1451   6.820   5.891   5.492
   58A       H2 1452   6.841   5.908   5.597
   58A       N3 1453   6.811   6.005   5.422
   58A       C4 1454   6.792   5.971   5.293
   58A      C3' 1455   6.981   6.275   5.043
   58A      H3' 1456   6.985   6.175   5.000
   58A      C2' 1457   6.945   6.252   5.189
   58A     H2'1 1458   7.009   6.184   5.245
   58A      O2' 1459   6.939   6.364   5.270
   58A     HO'2 1460   6.901   6.338   5.354
   58A      O3' 1461   7.099   6.357   5.023
   59G        P 1462   7.234   6.287   5.037
   59G      O1P 1463   7.334   6.387   5.004
   59G      O2P 1464   7.239   6.158   4.964
   59G      O5' 1465   7.264   6.251   5.189
   59G      C5' 1466   7.272   6.346   5.293
   59G     H5'1 1467   7.183   6.409   5.288
   59G     H5'2 1468   7.362   6.404   5.272
   59G      C4' 1469   7.272   6.279   5.430
   59G      H4' 1470   7.267   6.357   5.506
   59G      O4' 1471   7.164   6.193   5.450
   59G      C1' 1472   7.212   6.079   5.514
   59G      H1' 1473   7.150   6.067   5.603
   59G       N9 1474   7.196   5.956   5.431
   59G       C8 1475   7.185   5.944   5.299
   59G       H8 1476   7.198   6.033   5.239
   59G       N7 1477   7.144   5.828   5.264
   59G       C5 1478   7.161   5.751   5.381
   59G       C6 1479   7.149   5.605   5.404
   59G       O6 1480   7.113   5.520   5.322
   59G       N1 1481   7.180   5.562   5.535
   59G       H1 1482   7.148   5.473   5.571
   59G       C2 1483   7.209   5.653   5.628
   59G       N2 1484   7.226   5.604   5.749
   59G      H21 1485   7.211   5.508   5.773
   59G      H22 1486   7.267   5.671   5.813
   59G       N3 1487   7.207   5.791   5.612
   59G       C4 1488   7.181   5.833   5.487
   59G      C3' 1489   7.405   6.206   5.458
   59G      H3' 1490   7.449   6.143   5.381
   59G      C2' 1491   7.351   6.113   5.562
   59G     H2'1 1492   7.410   6.022   5.552
   59G      O2' 1493   7.348   6.159   5.696
   59G     HO'2 1494   7.319   6.093   5.759
   59G      O3' 1495   7.503   6.300   5.497
   60C        P 1496   7.654   6.259   5.528
   60C      O1P 1497   7.712   6.365   5.611
   60C      O2P 1498   7.726   6.226   5.401
   60C      O5' 1499   7.655   6.126   5.612
   60C      C5' 1500   7.658   6.115   5.757
   60C     H5'1 1501   7.569   6.154   5.807
   60C     H5'2 1502   7.743   6.158   5.810
   60C      C4' 1503   7.665   5.962   5.788
   60C      H4' 1504   7.664   5.936   5.894
   60C      O4' 1505   7.544   5.899   5.733
   60C      C1' 1506   7.576   5.757   5.687
   60C      H1' 1507   7.492   5.701   5.726
   60C       N1 1508   7.561   5.747   5.541
   60C       C6 1509   7.595   5.851   5.452
   60C       H6 1510   7.632   5.947   5.487
   60C       C5 1511   7.546   5.851   5.330
   60C       H5 1512   7.572   5.937   5.270
   60C       C4 1513   7.489   5.729   5.282
   60C       N4 1514   7.470   5.707   5.153
   60C      H41 1515   7.465   5.787   5.091
   60C      H42 1516   7.426   5.619   5.132
   60C       N3 1517   7.462   5.629   5.360
   60C       C2 1518   7.504   5.636   5.489
   60C       O2 1519   7.501   5.529   5.551
   60C      C3' 1520   7.781   5.876   5.728
   60C      H3' 1521   7.800   5.907   5.625
   60C      C2' 1522   7.718   5.734   5.733
   60C     H2'1 1523   7.778   5.669   5.669
   60C      O2' 1524   7.698   5.689   5.869
   60C     HO'2 1525   7.777   5.706   5.921
   60C      O3' 1526   7.890   5.891   5.808
   61C        P 1527   8.038   5.869   5.744
   61C      O1P 1528   8.128   5.898   5.854
   61C      O2P 1529   8.045   5.942   5.614
   61C      O5' 1530   8.043   5.713   5.710
   61C      C5' 1531   8.056   5.611   5.810
   61C     H5'1 1532   7.978   5.633   5.883
   61C     H5'2 1533   8.155   5.626   5.853
   61C      C4' 1534   8.034   5.470   5.749
   61C      H4' 1535   8.056   5.394   5.825
   61C      O4' 1536   7.909   5.442   5.697
   61C      C1' 1537   7.921   5.366   5.577
   61C      H1' 1538   7.865   5.273   5.587
   61C       N1 1539   7.882   5.437   5.455
   61C       C6 1540   7.896   5.573   5.437
   61C       H6 1541   7.953   5.634   5.506
   61C       C5 1542   7.859   5.643   5.329
   61C       H5 1543   7.869   5.750   5.324
   61C       C4 1544   7.808   5.559   5.227
   61C       N4 1545   7.778   5.608   5.109
   61C      H41 1546   7.782   5.706   5.087
   61C      H42 1547   7.732   5.541   5.048
   61C       N3 1548   7.800   5.425   5.236
   61C       C2 1549   7.844   5.364   5.348
   61C       O2 1550   7.840   5.243   5.352
   61C      C3' 1551   8.136   5.443   5.638
   61C      H3' 1552   8.130   5.518   5.559
   61C      C2' 1553   8.070   5.320   5.573
   61C     H2'1 1554   8.101   5.302   5.470
   61C      O2' 1555   8.084   5.212   5.663
   61C     HO'2 1556   8.060   5.132   5.617
   61C      O3' 1557   8.266   5.415   5.677
   62U        P 1558   8.389   5.520   5.677
   62U      O1P 1559   8.416   5.560   5.816
   62U      O2P 1560   8.347   5.625   5.580
   62U      O5' 1561   8.514   5.438   5.620
   62U      C5' 1562   8.579   5.464   5.499
   62U     H5'1 1563   8.499   5.514   5.444
   62U     H5'2 1564   8.609   5.375   5.444
   62U      C4' 1565   8.705   5.551   5.518
   62U      H4' 1566   8.749   5.554   5.419
   62U      O4' 1567   8.675   5.688   5.551
   62U      C1' 1568   8.798   5.733   5.603
   62U      H1' 1569   8.871   5.745   5.523
   62U       N1 1570   8.769   5.850   5.688
   62U       C6 1571   8.666   5.844   5.776
   62U       H6 1572   8.592   5.765   5.780
   62U       C5 1573   8.647   5.936   5.872
   62U       H5 1574   8.567   5.925   5.944
   62U       C4 1575   8.732   6.053   5.876
   62U       O4 1576   8.714   6.149   5.947
   62U       N3 1577   8.835   6.052   5.785
   62U       H3 1578   8.902   6.125   5.806
   62U       C2 1579   8.863   5.953   5.691
   62U       O2 1580   8.975   5.947   5.628
   62U      C3' 1581   8.805   5.488   5.614
   62U      H3' 1582   8.758   5.415   5.679
   62U      C2' 1583   8.850   5.615   5.687
   62U     H2'1 1584   8.795   5.627   5.781
   62U      O2' 1585   8.993   5.627   5.706
   62U     HO'2 1586   9.034   5.541   5.705
   62U      O3' 1587   8.920   5.447   5.534
   63U        P 1588   8.969   5.297   5.534
   63U      O1P 1589   8.980   5.266   5.681
   63U      O2P 1590   9.099   5.295   5.456
   63U      O5' 1591   8.853   5.220   5.467
   63U      C5' 1592   8.772   5.132   5.543
   63U     H5'1 1593   8.687   5.174   5.597
   63U     H5'2 1594   8.834   5.098   5.626
   63U      C4' 1595   8.722   5.011   5.462
   63U      H4' 1596   8.681   4.935   5.528
   63U      O4' 1597   8.624   5.055   5.374
   63U      C1' 1598   8.637   5.016   5.239
   63U      H1' 1599   8.584   4.921   5.227
   63U       N1 1600   8.591   5.107   5.140
   63U       C6 1601   8.572   5.239   5.165
   63U       H6 1602   8.612   5.272   5.260
   63U       C5 1603   8.511   5.320   5.078
   63U       H5 1604   8.502   5.425   5.098
   63U       C4 1605   8.452   5.278   4.949
   63U       O4 1606   8.413   5.346   4.861
   63U       N3 1607   8.468   5.143   4.936
   63U       H3 1608   8.439   5.092   4.854
   63U       C2 1609   8.539   5.057   5.018
   63U       O2 1610   8.555   4.942   4.979
   63U      C3' 1611   8.826   4.938   5.375
   63U      H3' 1612   8.928   4.968   5.401
   63U      C2' 1613   8.793   4.994   5.231
   63U     H2'1 1614   8.833   5.095   5.216
   63U      O2' 1615   8.855   4.913   5.127
   63U     HO'2 1616   8.948   4.893   5.140
   63U      O3' 1617   8.799   4.792   5.390
   64A        P 1618   8.876   4.705   5.505
   64A      O1P 1619   9.001   4.773   5.540
   64A      O2P 1620   8.874   4.563   5.465
   64A      O5' 1621   8.781   4.722   5.632
   64A      C5' 1622   8.650   4.664   5.624
   64A     H5'1 1623   8.657   4.556   5.625
   64A     H5'2 1624   8.603   4.688   5.529
   64A      C4' 1625   8.566   4.712   5.742
   64A      H4' 1626   8.632   4.707   5.829
   64A      O4' 1627   8.540   4.846   5.710
   64A      C1' 1628   8.400   4.876   5.698
   64A      H1' 1629   8.377   4.954   5.770
   64A       N9 1630   8.368   4.934   5.567
   64A       C8 1631   8.344   5.071   5.532
   64A       H8 1632   8.345   5.154   5.602
   64A       N7 1633   8.316   5.087   5.406
   64A       C5 1634   8.321   4.958   5.355
   64A       C6 1635   8.309   4.909   5.221
   64A       N6 1636   8.267   4.978   5.118
   64A      H61 1637   8.235   5.073   5.135
   64A      H62 1638   8.247   4.927   5.034
   64A       N1 1639   8.325   4.783   5.196
   64A       C2 1640   8.378   4.712   5.298
   64A       H2 1641   8.395   4.611   5.264
   64A       N3 1642   8.396   4.740   5.427
   64A       C4 1643   8.364   4.865   5.450
   64A      C3' 1644   8.433   4.647   5.774
   64A      H3' 1645   8.418   4.557   5.714
   64A      C2' 1646   8.323   4.751   5.743
   64A     H2'1 1647   8.268   4.718   5.655
   64A      O2' 1648   8.231   4.780   5.848
   64A     HO'2 1649   8.170   4.707   5.860
   64A      O3' 1650   8.428   4.621   5.908
   65A        P 1651   8.444   4.475   5.963
   65A      O1P 1652   8.478   4.498   6.105
   65A      O2P 1653   8.535   4.397   5.878
   65A      O5' 1654   8.299   4.415   5.950
   65A      C5' 1655   8.200   4.438   6.048
   65A     H5'1 1656   8.218   4.540   6.082
   65A     H5'2 1657   8.203   4.367   6.130
   65A      C4' 1658   8.064   4.448   5.981
   65A      H4' 1659   7.978   4.455   6.048
   65A      O4' 1660   8.067   4.565   5.894
   65A      C1' 1661   8.000   4.522   5.775
   65A      H1' 1662   7.893   4.506   5.787
   65A       N9 1663   8.013   4.625   5.660
   65A       C8 1664   8.060   4.604   5.537
   65A       H8 1665   8.102   4.509   5.509
   65A       N7 1666   8.054   4.702   5.459
   65A       C5 1667   7.991   4.795   5.536
   65A       C6 1668   7.953   4.932   5.522
   65A       N6 1669   7.956   5.001   5.411
   65A      H61 1670   7.962   4.945   5.328
   65A      H62 1671   7.914   5.092   5.396
   65A       N1 1672   7.905   4.996   5.626
   65A       C2 1673   7.892   4.937   5.744
   65A       H2 1674   7.853   4.993   5.828
   65A       N3 1675   7.929   4.815   5.779
   65A       C4 1676   7.976   4.754   5.666
   65A      C3' 1677   8.034   4.329   5.885
   65A      H3' 1678   8.099   4.245   5.906
   65A      C2' 1679   8.066   4.382   5.751
   65A     H2'1 1680   8.174   4.399   5.745
   65A      O2' 1681   8.009   4.312   5.643
   65A     HO'2 1682   7.925   4.284   5.679
   65A      O3' 1683   7.888   4.303   5.888
   66A        P 1684   7.823   4.223   6.006
   66A      O1P 1685   7.923   4.175   6.109
   66A      O2P 1686   7.739   4.117   5.946
   66A      O5' 1687   7.736   4.337   6.070
   66A      C5' 1688   7.604   4.375   6.033
   66A     H5'1 1689   7.546   4.293   6.074
   66A     H5'2 1690   7.587   4.377   5.926
   66A      C4' 1691   7.575   4.508   6.095
   66A      H4' 1692   7.579   4.491   6.203
   66A      O4' 1693   7.672   4.605   6.055
   66A      C1' 1694   7.605   4.733   6.030
   66A      H1' 1695   7.653   4.818   6.079
   66A       N9 1696   7.589   4.751   5.883
   66A       C8 1697   7.608   4.656   5.775
   66A       H8 1698   7.644   4.559   5.807
   66A       N7 1699   7.564   4.703   5.659
   66A       C5 1700   7.527   4.834   5.687
   66A       C6 1701   7.497   4.940   5.604
   66A       N6 1702   7.487   4.934   5.474
   66A      H61 1703   7.503   4.843   5.433
   66A      H62 1704   7.453   5.013   5.422
   66A       N1 1705   7.488   5.064   5.648
   66A       C2 1706   7.516   5.083   5.774
   66A       H2 1707   7.499   5.183   5.810
   66A       N3 1708   7.544   4.993   5.871
   66A       C4 1709   7.547   4.867   5.817
   66A      C3' 1710   7.437   4.575   6.064
   66A      H3' 1711   7.410   4.563   5.959
   66A      C2' 1712   7.466   4.719   6.083
   66A     H2'1 1713   7.405   4.780   6.016
   66A      O2' 1714   7.450   4.761   6.217
   66A     HO'2 1715   7.365   4.730   6.247
   66A      O3' 1716   7.330   4.515   6.139
   67C        P 1717   7.181   4.546   6.093
   67C      O1P 1718   7.092   4.525   6.206
   67C      O2P 1719   7.165   4.484   5.963
   67C      O5' 1720   7.172   4.699   6.064
   67C      C5' 1721   7.054   4.778   6.071
   67C     H5'1 1722   7.002   4.772   6.167
   67C     H5'2 1723   6.986   4.739   5.996
   67C      C4' 1724   7.099   4.927   6.052
   67C      H4' 1725   7.162   4.962   6.134
   67C      O4' 1726   7.169   4.946   5.935
   67C      C1' 1727   7.170   5.086   5.903
   67C      H1' 1728   7.269   5.127   5.925
   67C       N1 1729   7.145   5.114   5.765
   67C       C6 1730   7.107   5.020   5.670
   67C       H6 1731   7.102   4.917   5.703
   67C       C5 1732   7.077   5.061   5.539
   67C       H5 1733   7.060   4.992   5.459
   67C       C4 1734   7.091   5.202   5.510
   67C       N4 1735   7.077   5.247   5.386
   67C      H41 1736   7.041   5.186   5.314
   67C      H42 1737   7.092   5.345   5.364
   67C       N3 1738   7.111   5.291   5.608
   67C       C2 1739   7.152   5.247   5.722
   67C       O2 1740   7.192   5.335   5.797
   67C      C3' 1741   6.983   5.023   6.038
   67C      H3' 1742   6.915   4.975   5.968
   67C      C2' 1743   7.052   5.150   5.989
   67C     H2'1 1744   6.982   5.218   5.940
   67C      O2' 1745   7.120   5.222   6.099
   67C     HO'2 1746   7.063   5.289   6.138
   67C      O3' 1747   6.919   5.036   6.165
   68U        P 1748   6.765   5.064   6.188
   68U      O1P 1749   6.732   5.016   6.324
   68U      O2P 1750   6.678   5.018   6.071
   68U      O5' 1751   6.771   5.215   6.182
   68U      C5' 1752   6.844   5.297   6.282
   68U     H5'1 1753   6.942   5.252   6.301
   68U     H5'2 1754   6.791   5.287   6.377
   68U      C4' 1755   6.864   5.441   6.229
   68U      H4' 1756   6.919   5.491   6.309
   68U      O4' 1757   6.938   5.436   6.106
   68U      C1' 1758   6.897   5.547   6.033
   68U      H1' 1759   6.981   5.617   6.029
   68U       N1 1760   6.848   5.503   5.894
   68U       C6 1761   6.803   5.375   5.863
   68U       H6 1762   6.805   5.315   5.953
   68U       C5 1763   6.766   5.334   5.737
   68U       H5 1764   6.738   5.233   5.709
   68U       C4 1765   6.767   5.432   5.635
   68U       O4 1766   6.742   5.406   5.515
   68U       N3 1767   6.798   5.562   5.667
   68U       H3 1768   6.806   5.626   5.589
   68U       C2 1769   6.837   5.603   5.795
   68U       O2 1770   6.855   5.719   5.824
   68U      C3' 1771   6.734   5.516   6.213
   68U      H3' 1772   6.657   5.446   6.181
   68U      C2' 1773   6.782   5.623   6.115
   68U     H2'1 1774   6.701   5.662   6.053
   68U      O2' 1775   6.847   5.731   6.171
   68U     HO'2 1776   6.788   5.769   6.237
   68U      O3' 1777   6.691   5.570   6.337
   69C        P 1778   6.533   5.594   6.357
   69C      O1P 1779   6.518   5.625   6.494
   69C      O2P 1780   6.456   5.485   6.292
   69C      O5' 1781   6.523   5.730   6.272
   69C      C5' 1782   6.552   5.858   6.323
   69C     H5'1 1783   6.635   5.862   6.393
   69C     H5'2 1784   6.467   5.882   6.387
   69C      C4' 1785   6.571   5.962   6.210
   69C      H4' 1786   6.624   6.046   6.255
   69C      O4' 1787   6.644   5.908   6.101
   69C      C1' 1788   6.601   5.963   5.970
   69C      H1' 1789   6.675   6.021   5.914
   69C       N1 1790   6.545   5.863   5.879
   69C       C6 1791   6.494   5.745   5.934
   69C       H6 1792   6.474   5.743   6.040
   69C       C5 1793   6.461   5.641   5.852
   69C       H5 1794   6.422   5.550   5.895
   69C       C4 1795   6.479   5.667   5.709
   69C       N4 1796   6.451   5.577   5.621
   69C      H41 1797   6.412   5.493   5.660
   69C      H42 1798   6.472   5.596   5.524
   69C       N3 1799   6.518   5.778   5.655
   69C       C2 1800   6.545   5.881   5.741
   69C       O2 1801   6.570   5.992   5.695
   69C      C3' 1802   6.445   6.019   6.147
   69C      H3' 1803   6.378   5.935   6.129
   69C      C2' 1804   6.494   6.066   6.012
   69C     H2'1 1805   6.408   6.064   5.945
   69C      O2' 1806   6.549   6.192   6.032
   69C     HO'2 1807   6.568   6.207   6.125
   69C      O3' 1808   6.368   6.112   6.218
   70U        P 1809   6.224   6.151   6.171
   70U      O1P 1810   6.178   6.253   6.260
   70U      O2P 1811   6.148   6.028   6.165
   70U      O5' 1812   6.214   6.201   6.022
   70U      C5' 1813   6.264   6.333   5.976
   70U     H5'1 1814   6.372   6.340   5.992
   70U     H5'2 1815   6.204   6.413   6.020
   70U      C4' 1816   6.245   6.333   5.821
   70U      H4' 1817   6.280   6.430   5.784
   70U      O4' 1818   6.300   6.221   5.744
   70U      C1' 1819   6.216   6.186   5.643
   70U      H1' 1820   6.268   6.197   5.548
   70U       N1 1821   6.170   6.045   5.642
   70U       C6 1822   6.167   5.980   5.763
   70U       H6 1823   6.174   6.042   5.851
   70U       C5 1824   6.144   5.846   5.768
   70U       H5 1825   6.128   5.800   5.865
   70U       C4 1826   6.127   5.771   5.648
   70U       O4 1827   6.108   5.649   5.653
   70U       N3 1828   6.151   5.835   5.528
   70U       H3 1829   6.151   5.786   5.440
   70U       C2 1830   6.162   5.969   5.524
   70U       O2 1831   6.170   6.021   5.419
   70U      C3' 1832   6.097   6.323   5.779
   70U      H3' 1833   6.055   6.248   5.846
   70U      C2' 1834   6.097   6.276   5.633
   70U     H2'1 1835   6.012   6.212   5.611
   70U      O2' 1836   6.122   6.388   5.548
   70U     HO'2 1837   6.060   6.461   5.557
   70U      O3' 1838   6.020   6.442   5.806
   71U        P 1839   5.869   6.427   5.856
   71U      O1P 1840   5.830   6.562   5.900
   71U      O2P 1841   5.873   6.328   5.964
   71U      O5' 1842   5.781   6.377   5.742
   71U      C5' 1843   5.767   6.459   5.623
   71U     H5'1 1844   5.859   6.511   5.594
   71U     H5'2 1845   5.693   6.538   5.638
   71U      C4' 1846   5.704   6.379   5.504
   71U      H4' 1847   5.677   6.448   5.424
   71U      O4' 1848   5.795   6.281   5.469
   71U      C1' 1849   5.716   6.177   5.413
   71U      H1' 1850   5.712   6.184   5.305
   71U       N1 1851   5.762   6.036   5.454
   71U       C6 1852   5.789   6.010   5.587
   71U       H6 1853   5.789   6.096   5.653
   71U       C5 1854   5.810   5.879   5.627
   71U       H5 1855   5.841   5.864   5.730
   71U       C4 1856   5.803   5.771   5.531
   71U       O4 1857   5.810   5.649   5.561
   71U       N3 1858   5.796   5.813   5.401
   71U       H3 1859   5.809   5.741   5.332
   71U       C2 1860   5.760   5.935   5.355
   71U       O2 1861   5.742   5.945   5.233
   71U      C3' 1862   5.577   6.314   5.556
   71U      H3' 1863   5.589   6.270   5.655
   71U      C2' 1864   5.572   6.195   5.462
   71U     H2'1 1865   5.540   6.115   5.528
   71U      O2' 1866   5.480   6.219   5.356
   71U     HO'2 1867   5.399   6.223   5.408
   71U      O3' 1868   5.470   6.407   5.558
   72G        P 1869   5.324   6.363   5.622
   72G      O1P 1870   5.254   6.487   5.648
   72G      O2P 1871   5.335   6.264   5.730
   72G      O5' 1872   5.249   6.293   5.498
   72G      C5' 1873   5.173   6.363   5.400
   72G     H5'1 1874   5.234   6.439   5.351
   72G     H5'2 1875   5.093   6.426   5.439
   72G      C4' 1876   5.109   6.268   5.297
   72G      H4' 1877   5.056   6.331   5.226
   72G      O4' 1878   5.212   6.191   5.236
   72G      C1' 1879   5.179   6.050   5.232
   72G      H1' 1880   5.193   6.018   5.129
   72G       N9 1881   5.269   5.972   5.319
   72G       C8 1882   5.306   5.984   5.452
   72G       H8 1883   5.271   6.068   5.511
   72G       N7 1884   5.386   5.894   5.499
   72G       C5 1885   5.388   5.803   5.391
   72G       C6 1886   5.449   5.672   5.384
   72G       O6 1887   5.524   5.622   5.461
   72G       N1 1888   5.432   5.620   5.258
   72G       H1 1889   5.453   5.521   5.249
   72G       C2 1890   5.355   5.665   5.158
   72G       N2 1891   5.356   5.594   5.044
   72G      H21 1892   5.393   5.500   5.047
   72G      H22 1893   5.282   5.619   4.980
   72G       N3 1894   5.301   5.779   5.165
   72G       C4 1895   5.322   5.849   5.278
   72G      C3' 1896   5.015   6.168   5.363
   72G      H3' 1897   5.050   6.151   5.465
   72G      C2' 1898   5.037   6.040   5.284
   72G     H2'1 1899   5.015   5.957   5.351
   72G      O2' 1900   4.954   6.039   5.167
   72G     HO'2 1901   4.864   6.034   5.201
   72G      O3' 1902   4.876   6.217   5.363
   73A        P 1903   4.755   6.127   5.415
   73A      O1P 1904   4.641   6.215   5.436
   73A      O2P 1905   4.797   6.043   5.526
   73A      O5' 1906   4.708   6.028   5.296
   73A      C5' 1907   4.635   6.084   5.184
   73A     H5'1 1908   4.703   6.157   5.140
   73A     H5'2 1909   4.542   6.117   5.231
   73A      C4' 1910   4.608   5.974   5.079
   73A      H4' 1911   4.582   6.021   4.984
   73A      O4' 1912   4.727   5.892   5.061
   73A      C1' 1913   4.688   5.758   5.052
   73A      H1' 1914   4.728   5.701   4.969
   73A       N9 1915   4.722   5.675   5.176
   73A       C8 1916   4.752   5.714   5.302
   73A       H8 1917   4.752   5.819   5.330
   73A       N7 1918   4.767   5.619   5.392
   73A       C5 1919   4.720   5.509   5.321
   73A       C6 1920   4.702   5.376   5.355
   73A       N6 1921   4.720   5.319   5.468
   73A      H61 1922   4.778   5.371   5.532
   73A      H62 1923   4.705   5.219   5.476
   73A       N1 1924   4.654   5.287   5.264
   73A       C2 1925   4.629   5.334   5.140
   73A       H2 1926   4.599   5.267   5.061
   73A       N3 1927   4.652   5.451   5.095
   73A       C4 1928   4.698   5.539   5.188
   73A      C3' 1929   4.502   5.877   5.116
   73A      H3' 1930   4.511   5.855   5.223
   73A      C2' 1931   4.540   5.753   5.033
   73A     H2'1 1932   4.486   5.664   5.067
   73A      O2' 1933   4.513   5.767   4.898
   73A     HO'2 1934   4.467   5.847   4.872
   73A      O3' 1935   4.373   5.919   5.088
   74U        P 1936   4.249   5.867   5.174
   74U      O1P 1937   4.136   5.945   5.129
   74U      O2P 1938   4.286   5.881   5.314
   74U      O5' 1939   4.223   5.709   5.136
   74U      C5' 1940   4.194   5.654   5.010
   74U     H5'1 1941   4.276   5.688   4.946
   74U     H5'2 1942   4.098   5.691   4.975
   74U      C4' 1943   4.204   5.500   5.010
   74U      H4' 1944   4.185   5.478   4.905
   74U      O4' 1945   4.333   5.459   5.048
   74U      C1' 1946   4.309   5.354   5.144
   74U      H1' 1947   4.375   5.269   5.125
   74U       N1 1948   4.344   5.377   5.283
   74U       C6 1949   4.366   5.501   5.330
   74U       H6 1950   4.362   5.588   5.266
   74U       C5 1951   4.398   5.525   5.460
   74U       H5 1952   4.418   5.627   5.490
   74U       C4 1953   4.401   5.421   5.559
   74U       O4 1954   4.424   5.439   5.679
   74U       N3 1955   4.394   5.292   5.506
   74U       H3 1956   4.406   5.215   5.570
   74U       C2 1957   4.374   5.271   5.371
   74U       O2 1958   4.365   5.152   5.327
   74U      C3' 1959   4.099   5.438   5.099
   74U      H3' 1960   4.109   5.508   5.182
   74U      C2' 1961   4.167   5.304   5.125
   74U     H2'1 1962   4.122   5.260   5.214
   74U      O2' 1963   4.157   5.213   5.016
   74U     HO'2 1964   4.066   5.216   4.987
   74U      O3' 1965   3.967   5.420   5.046
   75U        P 1966   3.844   5.494   5.095
   75U      O1P 1967   3.721   5.450   5.026
   75U      O2P 1968   3.884   5.636   5.107
   75U      O5' 1969   3.847   5.433   5.241
   75U      C5' 1970   3.829   5.296   5.259
   75U     H5'1 1971   3.893   5.247   5.186
   75U     H5'2 1972   3.724   5.269   5.249
   75U      C4' 1973   3.877   5.248   5.394
   75U      H4' 1974   3.861   5.140   5.398
   75U      O4' 1975   4.012   5.277   5.435
   75U      C1' 1976   4.014   5.290   5.576
   75U      H1' 1977   4.073   5.223   5.638
   75U       N1 1978   4.061   5.433   5.609
   75U       C6 1979   4.077   5.532   5.512
   75U       H6 1980   4.062   5.512   5.407
   75U       C5 1981   4.130   5.653   5.535
   75U       H5 1982   4.132   5.731   5.460
   75U       C4 1983   4.179   5.683   5.670
   75U       O4 1984   4.237   5.779   5.705
   75U       N3 1985   4.155   5.588   5.766
   75U       H3 1986   4.180   5.615   5.861
   75U       C2 1987   4.090   5.466   5.746
   75U       O2 1988   4.062   5.390   5.837
   75U      C3' 1989   3.798   5.318   5.496
   75U      H3' 1990   3.811   5.425   5.485
   75U      C2' 1991   3.868   5.262   5.619
   75U     H2'1 1992   3.829   5.308   5.710
   75U      O2' 1993   3.863   5.117   5.647
   75U     HO'2 1994   3.834   5.120   5.739
   75U      O3' 1995   3.665   5.273   5.496
   76A        P 1996   3.544   5.361   5.543
   76A      O1P 1997   3.422   5.297   5.498
   76A      O2P 1998   3.571   5.501   5.502
   76A      O5' 1999   3.554   5.356   5.695
   76A      C5' 2000   3.519   5.243   5.772
   76A     H5'1 2001   3.572   5.155   5.735
   76A     H5'2 2002   3.410   5.237   5.770
   76A      C4' 2003   3.568   5.248   5.913
   76A      H4' 2004   3.551   5.158   5.973
   76A      O4' 2005   3.708   5.281   5.911
   76A      C1' 2006   3.738   5.372   6.013
   76A      H1' 2007   3.828   5.344   6.067
   76A       N9 2008   3.777   5.509   5.948
   76A       C8 2009   3.765   5.557   5.818
   76A       H8 2010   3.719   5.504   5.736
   76A       N7 2011   3.816   5.676   5.806
   76A       C5 2012   3.860   5.708   5.932
   76A       C6 2013   3.930   5.820   5.985
   76A       N6 2014   3.981   5.926   5.917
   76A      H61 2015   3.956   5.937   5.820
   76A      H62 2016   4.040   5.993   5.965
   76A       N1 2017   3.947   5.829   6.120
   76A       C2 2018   3.906   5.728   6.197
   76A       H2 2019   3.914   5.747   6.303
   76A       N3 2020   3.842   5.620   6.154
   76A       C4 2021   3.825   5.616   6.021
   76A      C3' 2022   3.501   5.365   5.993
   76A      H3' 2023   3.491   5.454   5.930
   76A      C2' 2024   3.613   5.392   6.096
   76A     H2'1 2025   3.612   5.492   6.139
   76A      O2' 2026   3.627   5.298   6.199
   76A     HO'2 2027   3.545   5.292   6.248
   76A      O3' 2028   3.380   5.325   6.047
   77U        P 2029   3.267   5.426   6.066
   77U      O1P 2030   3.153   5.362   6.140
   77U      O2P 2031   3.246   5.497   5.941
   77U      O5' 2032   3.316   5.540   6.169
   77U      C5' 2033   3.339   5.515   6.309
   77U     H5'1 2034   3.403   5.427   6.323
   77U     H5'2 2035   3.242   5.489   6.351
   77U      C4' 2036   3.410   5.632   6.383
   77U      H4' 2037   3.410   5.607   6.489
   77U      O4' 2038   3.544   5.654   6.339
   77U      C1' 2039   3.563   5.797   6.356
   77U      H1' 2040   3.636   5.806   6.437
   77U       N1 2041   3.594   5.865   6.231
   77U       C6 2042   3.574   5.816   6.106
   77U       H6 2043   3.546   5.714   6.082
   77U       C5 2044   3.596   5.894   5.996
   77U       H5 2045   3.587   5.853   5.897
   77U       C4 2046   3.636   6.034   6.003
   77U       O4 2047   3.676   6.106   5.907
   77U       N3 2048   3.677   6.069   6.132
   77U       H3 2049   3.738   6.149   6.143
   77U       C2 2050   3.647   5.995   6.247
   77U       O2 2051   3.661   6.053   6.347
   77U      C3' 2052   3.324   5.754   6.354
   77U      H3' 2053   3.298   5.750   6.248
   77U      C2' 2054   3.434   5.858   6.402
   77U     H2'1 2055   3.395   5.944   6.347
   77U      O2' 2056   3.444   5.885   6.540
   77U     HO'2 2057   3.451   5.979   6.562
   77U      O3' 2058   3.203   5.750   6.426
   78G        P 2059   3.095   5.863   6.403
   78G      O1P 2060   2.970   5.844   6.480
   78G      O2P 2061   3.080   5.886   6.255
   78G      O5' 2062   3.165   6.003   6.456
   78G      C5' 2063   3.171   6.029   6.593
   78G     H5'1 2064   3.226   5.952   6.646
   78G     H5'2 2065   3.073   6.027   6.640
   78G      C4' 2066   3.245   6.158   6.615
   78G      H4' 2067   3.260   6.167   6.723
   78G      O4' 2068   3.382   6.162   6.564
   78G      C1' 2069   3.410   6.292   6.512
   78G      H1' 2070   3.509   6.325   6.546
   78G       N9 2071   3.418   6.293   6.363
   78G       C8 2072   3.360   6.210   6.271
   78G       H8 2073   3.299   6.124   6.292
   78G       N7 2074   3.386   6.242   6.150
   78G       C5 2075   3.465   6.359   6.158
   78G       C6 2076   3.530   6.449   6.062
   78G       O6 2077   3.524   6.451   5.939
   78G       N1 2078   3.588   6.558   6.123
   78G       H1 2079   3.635   6.622   6.060
   78G       C2 2080   3.569   6.598   6.251
   78G       N2 2081   3.623   6.714   6.293
   78G      H21 2082   3.667   6.783   6.235
   78G      H22 2083   3.615   6.729   6.393
   78G       N3 2084   3.524   6.517   6.342
   78G       C4 2085   3.469   6.397   6.293
   78G      C3' 2086   3.182   6.287   6.550
   78G      H3' 2087   3.149   6.267   6.448
   78G      C2' 2088   3.301   6.388   6.557
   78G     H2'1 2089   3.288   6.468   6.484
   78G      O2' 2090   3.342   6.428   6.685
   78G     HO'2 2091   3.412   6.494   6.676
   78G      O3' 2092   3.072   6.332   6.632
   79A        P 2093   2.956   6.420   6.571
   79A      O1P 2094   2.870   6.449   6.692
   79A      O2P 2095   2.896   6.363   6.447
   79A      O5' 2096   3.035   6.556   6.533
   79A      C5' 2097   3.084   6.642   6.641
   79A     H5'1 2098   3.143   6.585   6.713
   79A     H5'2 2099   2.997   6.684   6.691
   79A      C4' 2100   3.161   6.760   6.573
   79A      H4' 2101   3.189   6.820   6.660
   79A      O4' 2102   3.273   6.714   6.495
   79A      C1' 2103   3.302   6.817   6.400
   79A      H1' 2104   3.407   6.846   6.405
   79A       N9 2105   3.288   6.770   6.259
   79A       C8 2106   3.227   6.655   6.218
   79A       H8 2107   3.177   6.585   6.283
   79A       N7 2108   3.230   6.635   6.090
   79A       C5 2109   3.300   6.747   6.046
   79A       C6 2110   3.363   6.783   5.923
   79A       N6 2111   3.364   6.707   5.820
   79A      H61 2112   3.310   6.623   5.831
   79A      H62 2113   3.399   6.731   5.729
   79A       N1 2114   3.434   6.895   5.899
   79A       C2 2115   3.458   6.961   6.007
   79A       H2 2116   3.508   7.057   6.002
   79A       N3 2117   3.414   6.941   6.131
   79A       C4 2118   3.336   6.829   6.148
   79A      C3' 2119   3.092   6.864   6.487
   79A      H3' 2120   3.020   6.811   6.425
   79A      C2' 2121   3.202   6.936   6.413
   79A     H2'1 2122   3.171   6.971   6.315
   79A      O2' 2123   3.283   7.028   6.487
   79A     HO'2 2124   3.225   7.091   6.531
   79A      O3' 2125   3.016   6.963   6.561
   80A        P 2126   2.901   7.046   6.485
   80A      O1P 2127   2.827   7.126   6.584
   80A      O2P 2128   2.825   6.951   6.403
   80A      O5' 2129   2.983   7.140   6.381
   80A      C5' 2130   3.047   7.270   6.418
   80A     H5'1 2131   3.113   7.250   6.502
   80A     H5'2 2132   2.981   7.341   6.469
   80A      C4' 2133   3.132   7.339   6.305
   80A      H4' 2134   3.189   7.417   6.356
   80A      O4' 2135   3.231   7.257   6.241
   80A      C1' 2136   3.237   7.290   6.107
   80A      H1' 2137   3.337   7.306   6.067
   80A       N9 2138   3.174   7.177   6.031
   80A       C8 2139   3.087   7.083   6.074
   80A       H8 2140   3.055   7.072   6.177
   80A       N7 2141   3.059   6.987   5.986
   80A       C5 2142   3.130   7.031   5.868
   80A       C6 2143   3.158   6.978   5.739
   80A       N6 2144   3.113   6.860   5.698
   80A      H61 2145   3.069   6.802   5.769
   80A      H62 2146   3.136   6.829   5.605
   80A       N1 2147   3.227   7.052   5.652
   80A       C2 2148   3.281   7.169   5.694
   80A       H2 2149   3.346   7.218   5.623
   80A       N3 2150   3.271   7.223   5.815
   80A       C4 2151   3.193   7.150   5.898
   80A      C3' 2152   3.050   7.406   6.197
   80A      H3' 2153   2.961   7.346   6.181
   80A      C2' 2154   3.147   7.417   6.092
   80A     H2'1 2155   3.097   7.412   5.996
   80A      O2' 2156   3.231   7.535   6.115
   80A     HO'2 2157   3.181   7.601   6.164
   80A      O3' 2158   2.995   7.535   6.229
   81G        P 2159   2.885   7.599   6.127
   81G      O1P 2160   2.849   7.728   6.179
   81G      O2P 2161   2.775   7.508   6.087
   81G      O5' 2162   2.970   7.629   5.989
   81G      C5' 2163   3.036   7.744   5.958
   81G     H5'1 2164   3.121   7.748   6.026
   81G     H5'2 2165   2.980   7.837   5.969
   81G      C4' 2166   3.073   7.730   5.808
   81G      H4' 2167   3.139   7.814   5.783
   81G      O4' 2168   3.150   7.609   5.770
   81G      C1' 2169   3.113   7.567   5.637
   81G      H1' 2170   3.206   7.567   5.580
   81G       N9 2171   3.041   7.437   5.634
   81G       C8 2172   2.970   7.374   5.735
   81G       H8 2173   2.968   7.420   5.833
   81G       N7 2174   2.930   7.253   5.708
   81G       C5 2175   2.960   7.242   5.572
   81G       C6 2176   2.948   7.127   5.487
   81G       O6 2177   2.905   7.015   5.506
   81G       N1 2178   2.995   7.154   5.361
   81G       H1 2179   3.001   7.078   5.296
   81G       C2 2180   3.044   7.272   5.328
   81G       N2 2181   3.103   7.271   5.211
   81G      H21 2182   3.077   7.200   5.143
   81G      H22 2183   3.151   7.355   5.182
   81G       N3 2184   3.071   7.376   5.397
   81G       C4 2185   3.019   7.356   5.522
   81G      C3' 2186   2.949   7.726   5.713
   81G      H3' 2187   2.885   7.647   5.753
   81G      C2' 2188   3.017   7.679   5.585
   81G     H2'1 2189   2.946   7.627   5.521
   81G      O2' 2190   3.089   7.775   5.512
   81G     HO'2 2191   3.110   7.741   5.425
   81G      O3' 2192   2.876   7.847   5.691
   82U        P 2193   2.716   7.863   5.683
   82U      O1P 2194   2.697   8.011   5.663
   82U      O2P 2195   2.652   7.800   5.801
   82U      O5' 2196   2.667   7.787   5.548
   82U      C5' 2197   2.712   7.829   5.420
   82U     H5'1 2198   2.820   7.846   5.419
   82U     H5'2 2199   2.672   7.930   5.407
   82U      C4' 2200   2.688   7.725   5.307
   82U      H4' 2201   2.732   7.767   5.217
   82U      O4' 2202   2.770   7.606   5.332
   82U      C1' 2203   2.701   7.485   5.279
   82U      H1' 2204   2.747   7.442   5.190
   82U       N1 2205   2.666   7.383   5.373
   82U       C6 2206   2.644   7.408   5.510
   82U       H6 2207   2.664   7.506   5.552
   82U       C5 2208   2.595   7.314   5.595
   82U       H5 2209   2.581   7.331   5.701
   82U       C4 2210   2.576   7.176   5.554
   82U       O4 2211   2.536   7.085   5.626
   82U       N3 2212   2.608   7.151   5.423
   82U       H3 2213   2.591   7.057   5.391
   82U       C2 2214   2.643   7.248   5.329
   82U       O2 2215   2.639   7.219   5.207
   82U      C3' 2216   2.547   7.672   5.284
   82U      H3' 2217   2.505   7.647   5.382
   82U      C2' 2218   2.575   7.545   5.214
   82U     H2'1 2219   2.493   7.475   5.226
   82U      O2' 2220   2.604   7.557   5.072
   82U     HO'2 2221   2.588   7.470   5.035
   82U      O3' 2222   2.467   7.757   5.206
   83G        P 2223   2.306   7.750   5.211
   83G      O1P 2224   2.246   7.874   5.155
   83G      O2P 2225   2.267   7.708   5.345
   83G      O5' 2226   2.271   7.631   5.109
   83G      C5' 2227   2.285   7.656   4.969
   83G     H5'1 2228   2.392   7.666   4.947
   83G     H5'2 2229   2.240   7.754   4.950
   83G      C4' 2230   2.238   7.535   4.892
   83G      H4' 2231   2.243   7.560   4.786
   83G      O4' 2232   2.318   7.425   4.902
   83G      C1' 2233   2.230   7.311   4.895
   83G      H1' 2234   2.274   7.238   4.828
   83G       N9 2235   2.236   7.238   5.027
   83G       C8 2236   2.237   7.283   5.152
   83G       H8 2237   2.219   7.387   5.177
   83G       N7 2238   2.261   7.196   5.244
   83G       C5 2239   2.261   7.077   5.172
   83G       C6 2240   2.284   6.937   5.207
   83G       O6 2241   2.309   6.881   5.306
   83G       N1 2242   2.268   6.845   5.101
   83G       H1 2243   2.290   6.750   5.127
   83G       C2 2244   2.251   6.880   4.972
   83G       N2 2245   2.253   6.785   4.891
   83G      H21 2246   2.252   6.696   4.938
   83G      H22 2247   2.240   6.810   4.794
   83G       N3 2248   2.228   7.008   4.940
   83G       C4 2249   2.239   7.100   5.038
   83G      C3' 2250   2.090   7.491   4.923
   83G      H3' 2251   2.071   7.482   5.030
   83G      C2' 2252   2.088   7.356   4.859
   83G     H2'1 2253   2.010   7.295   4.904
   83G      O2' 2254   2.068   7.379   4.721
   83G     HO'2 2255   2.007   7.452   4.711
   83G      O3' 2256   2.002   7.594   4.874
   83G      H3T 2257   2.009   7.672   4.930
  11.10136  11.10136  11.10136
