VIBRIO VULNIFICUS A-RIBOSWITCH in water t=   0.00000 step= 0
 2257
   13C      O5'    1   2.854   6.516   5.934
   13C      H5T    2   2.940   6.475   5.943
   13C      C5'    3   2.786   6.457   5.826
   13C     H5'1    4   2.697   6.419   5.875
   13C     H5'2    5   2.841   6.378   5.774
   13C      C4'    6   2.739   6.561   5.726
   13C      H4'    7   2.695   6.509   5.640
   13C      O4'    8   2.634   6.642   5.783
   13C      C1'    9   2.649   6.778   5.732
   13C      H1'   10   2.558   6.817   5.686
   13C       N1   11   2.693   6.868   5.844
   13C       C6   12   2.736   6.815   5.967
   13C       H6   13   2.748   6.707   5.973
   13C       C5   14   2.752   6.890   6.078
   13C       H5   15   2.794   6.851   6.169
   13C       C4   16   2.724   7.026   6.063
   13C       N4   17   2.713   7.101   6.172
   13C      H41   18   2.703   7.066   6.266
   13C      H42   19   2.707   7.200   6.152
   13C       N3   20   2.696   7.082   5.950
   13C       C2   21   2.678   7.002   5.843
   13C       O2   22   2.666   7.062   5.735
   13C      C3'   23   2.843   6.658   5.666
   13C      H3'   24   2.919   6.673   5.742
   13C      C2'   25   2.763   6.786   5.635
   13C     H2'1   26   2.826   6.874   5.645
   13C      O2'   27   2.708   6.789   5.494
   13C     HO'2   28   2.709   6.699   5.461
   13C      O3'   29   2.889   6.596   5.546
   14G        P   30   3.038   6.625   5.497
   14G      O1P   31   3.054   6.578   5.353
   14G      O2P   32   3.127   6.575   5.603
   14G      O5'   33   3.064   6.786   5.490
   14G      C5'   34   3.015   6.869   5.388
   14G     H5'1   35   2.908   6.858   5.373
   14G     H5'2   36   3.070   6.855   5.295
   14G      C4'   37   3.038   7.014   5.434
   14G      H4'   38   3.019   7.074   5.345
   14G      O4'   39   2.948   7.059   5.530
   14G      C1'   40   3.001   7.179   5.584
   14G      H1'   41   2.933   7.258   5.553
   14G       N9   42   3.005   7.163   5.732
   14G       C8   43   3.020   7.052   5.805
   14G       H8   44   3.029   6.954   5.761
   14G       N7   45   3.009   7.077   5.935
   14G       C5   46   2.996   7.215   5.944
   14G       C6   47   2.992   7.303   6.056
   14G       O6   48   3.001   7.280   6.179
   14G       N1   49   2.983   7.437   6.023
   14G       H1   50   2.997   7.502   6.098
   14G       C2   51   2.996   7.480   5.894
   14G       N2   52   3.009   7.607   5.874
   14G      H21   53   3.015   7.671   5.952
   14G      H22   54   3.031   7.645   5.783
   14G       N3   55   2.997   7.407   5.789
   14G       C4   56   2.997   7.271   5.817
   14G      C3'   57   3.179   7.063   5.475
   14G      H3'   58   3.223   6.994   5.547
   14G      C2'   59   3.145   7.204   5.530
   14G     H2'1   60   3.210   7.230   5.613
   14G      O2'   61   3.142   7.299   5.429
   14G     HO'2   62   3.227   7.327   5.394
   14G      O3'   63   3.255   7.057   5.355
   15C        P   64   3.416   7.040   5.343
   15C      O1P   65   3.442   7.003   5.204
   15C      O2P   66   3.460   6.950   5.450
   15C      O5'   67   3.480   7.180   5.373
   15C      C5'   68   3.491   7.292   5.289
   15C     H5'1   69   3.398   7.305   5.233
   15C     H5'2   70   3.565   7.273   5.211
   15C      C4'   71   3.510   7.416   5.371
   15C      H4'   72   3.499   7.499   5.301
   15C      O4'   73   3.399   7.430   5.456
   15C      C1'   74   3.445   7.516   5.564
   15C      H1'   75   3.378   7.601   5.559
   15C       N1   76   3.423   7.438   5.691
   15C       C6   77   3.456   7.305   5.699
   15C       H6   78   3.502   7.252   5.616
   15C       C5   79   3.426   7.234   5.812
   15C       H5   80   3.448   7.128   5.821
   15C       C4   81   3.361   7.311   5.913
   15C       N4   82   3.351   7.256   6.033
   15C      H41   83   3.374   7.159   6.053
   15C      H42   84   3.333   7.316   6.112
   15C       N3   85   3.325   7.440   5.906
   15C       C2   86   3.363   7.508   5.798
   15C       O2   87   3.335   7.626   5.791
   15C      C3'   88   3.643   7.435   5.449
   15C      H3'   89   3.664   7.343   5.504
   15C      C2'   90   3.593   7.549   5.550
   15C     H2'1   91   3.640   7.541   5.648
   15C      O2'   92   3.613   7.679   5.486
   15C     HO'2   93   3.707   7.683   5.464
   15C      O3'   94   3.744   7.494   5.370
   16U        P   95   3.894   7.505   5.422
   16U      O1P   96   3.964   7.578   5.318
   16U      O2P   97   3.931   7.367   5.449
   16U      O5'   98   3.896   7.600   5.551
   16U      C5'   99   3.917   7.740   5.541
   16U     H5'1  100   3.844   7.782   5.472
   16U     H5'2  101   4.016   7.773   5.510
   16U      C4'  102   3.892   7.802   5.680
   16U      H4'  103   3.891   7.910   5.673
   16U      O4'  104   3.772   7.761   5.743
   16U      C1'  105   3.786   7.779   5.884
   16U      H1'  106   3.717   7.857   5.915
   16U       N1  107   3.761   7.649   5.964
   16U       C6  108   3.767   7.527   5.901
   16U       H6  109   3.801   7.531   5.798
   16U       C5  110   3.723   7.416   5.960
   16U       H5  111   3.722   7.324   5.903
   16U       C4  112   3.673   7.414   6.097
   16U       O4  113   3.637   7.319   6.164
   16U       N3  114   3.671   7.535   6.158
   16U       H3  115   3.642   7.532   6.254
   16U       C2  116   3.709   7.654   6.094
   16U       O2  117   3.697   7.762   6.156
   16U      C3'  118   3.998   7.776   5.788
   16U      H3'  119   4.013   7.668   5.794
   16U      C2'  120   3.925   7.829   5.913
   16U     H2'1  121   3.964   7.787   6.005
   16U      O2'  122   3.941   7.973   5.902
   16U     HO'2  123   4.034   7.993   5.890
   16U      O3'  124   4.122   7.848   5.758
   17U        P  125   4.249   7.785   5.834
   17U      O1P  126   4.360   7.879   5.813
   17U      O2P  127   4.256   7.641   5.795
   17U      O5'  128   4.213   7.797   5.986
   17U      C5'  129   4.248   7.905   6.072
   17U     H5'1  130   4.197   7.991   6.029
   17U     H5'2  131   4.353   7.934   6.071
   17U      C4'  132   4.214   7.893   6.218
   17U      H4'  133   4.227   7.988   6.268
   17U      O4'  134   4.087   7.832   6.233
   17U      C1'  135   4.079   7.751   6.349
   17U      H1'  136   4.026   7.805   6.427
   17U       N1  137   4.027   7.614   6.326
   17U       C6  138   4.044   7.558   6.204
   17U       H6  139   4.093   7.616   6.127
   17U       C5  140   4.004   7.428   6.191
   17U       H5  141   4.011   7.377   6.096
   17U       C4  142   3.942   7.352   6.298
   17U       O4  143   3.896   7.243   6.294
   17U       N3  144   3.941   7.419   6.418
   17U       H3  145   3.902   7.367   6.495
   17U       C2  146   3.977   7.550   6.436
   17U       O2  147   3.974   7.603   6.545
   17U      C3'  148   4.301   7.792   6.289
   17U      H3'  149   4.310   7.705   6.224
   17U      C2'  150   4.218   7.766   6.411
   17U     H2'1  151   4.252   7.675   6.460
   17U      O2'  152   4.203   7.874   6.506
   17U     HO'2  153   4.279   7.895   6.560
   17U      O3'  154   4.426   7.851   6.319
   18C        P  155   4.546   7.747   6.336
   18C      O1P  156   4.670   7.822   6.361
   18C      O2P  157   4.542   7.666   6.217
   18C      O5'  158   4.515   7.655   6.465
   18C      C5'  159   4.540   7.706   6.590
   18C     H5'1  160   4.485   7.799   6.601
   18C     H5'2  161   4.648   7.719   6.601
   18C      C4'  162   4.489   7.604   6.692
   18C      H4'  163   4.492   7.657   6.787
   18C      O4'  164   4.353   7.557   6.672
   18C      C1'  165   4.333   7.435   6.743
   18C      H1'  166   4.269   7.467   6.825
   18C       N1  167   4.258   7.339   6.657
   18C       C6  168   4.278   7.345   6.521
   18C       H6  169   4.319   7.433   6.474
   18C       C5  170   4.242   7.238   6.451
   18C       H5  171   4.260   7.249   6.345
   18C       C4  172   4.179   7.127   6.512
   18C       N4  173   4.121   7.033   6.441
   18C      H41  174   4.108   7.060   6.344
   18C      H42  175   4.057   6.966   6.482
   18C       N3  176   4.159   7.125   6.643
   18C       C2  177   4.194   7.231   6.720
   18C       O2  178   4.168   7.232   6.843
   18C      C3'  179   4.566   7.475   6.706
   18C      H3'  180   4.573   7.428   6.607
   18C      C2'  181   4.471   7.389   6.795
   18C     H2'1  182   4.490   7.282   6.780
   18C      O2'  183   4.485   7.414   6.936
   18C     HO'2  184   4.560   7.362   6.966
   18C      O3'  185   4.701   7.495   6.754
   19A        P  186   4.806   7.381   6.779
   19A      O1P  187   4.933   7.449   6.797
   19A      O2P  188   4.801   7.286   6.669
   19A      O5'  189   4.766   7.301   6.907
   19A      C5'  190   4.789   7.354   7.039
   19A     H5'1  191   4.729   7.443   7.056
   19A     H5'2  192   4.897   7.353   7.057
   19A      C4'  193   4.719   7.257   7.134
   19A      H4'  194   4.727   7.297   7.235
   19A      O4'  195   4.583   7.232   7.092
   19A      C1'  196   4.560   7.091   7.097
   19A      H1'  197   4.463   7.075   7.144
   19A       N9  198   4.534   7.033   6.966
   19A       C8  199   4.620   7.047   6.851
   19A       H8  200   4.716   7.094   6.835
   19A       N7  201   4.551   6.996   6.750
   19A       C5  202   4.434   6.934   6.798
   19A       C6  203   4.342   6.853   6.741
   19A       N6  204   4.329   6.799   6.620
   19A      H61  205   4.399   6.817   6.549
   19A      H62  206   4.261   6.725   6.610
   19A       N1  207   4.251   6.794   6.823
   19A       C2  208   4.250   6.830   6.950
   19A       H2  209   4.168   6.791   7.008
   19A       N3  210   4.327   6.913   7.017
   19A       C4  211   4.423   6.960   6.932
   19A      C3'  212   4.791   7.121   7.139
   19A      H3'  213   4.838   7.100   7.043
   19A      C2'  214   4.679   7.026   7.172
   19A     H2'1  215   4.693   6.921   7.143
   19A      O2'  216   4.638   7.022   7.311
   19A     HO'2  217   4.721   7.021   7.359
   19A      O3'  218   4.883   7.115   7.252
   20U        P  219   5.000   7.008   7.255
   20U      O1P  220   5.065   7.039   7.381
   20U      O2P  221   5.075   7.021   7.132
   20U      O5'  222   4.933   6.861   7.258
   20U      C5'  223   4.884   6.806   7.387
   20U     H5'1  224   4.801   6.867   7.422
   20U     H5'2  225   4.978   6.808   7.442
   20U      C4'  226   4.851   6.659   7.368
   20U      H4'  227   4.831   6.615   7.465
   20U      O4'  228   4.730   6.657   7.288
   20U      C1'  229   4.729   6.535   7.215
   20U      H1'  230   4.649   6.473   7.255
   20U       N1  231   4.700   6.559   7.073
   20U       C6  232   4.760   6.662   7.002
   20U       H6  233   4.829   6.727   7.054
   20U       C5  234   4.712   6.687   6.873
   20U       H5  235   4.752   6.771   6.818
   20U       C4  236   4.606   6.611   6.806
   20U       O4  237   4.567   6.620   6.690
   20U       N3  238   4.561   6.506   6.882
   20U       H3  239   4.487   6.448   6.845
   20U       C2  240   4.604   6.476   7.013
   20U       O2  241   4.549   6.376   7.062
   20U      C3'  242   4.952   6.577   7.292
   20U      H3'  243   5.004   6.631   7.213
   20U      C2'  244   4.871   6.470   7.231
   20U     H2'1  245   4.915   6.430   7.139
   20U      O2'  246   4.839   6.363   7.315
   20U     HO'2  247   4.902   6.292   7.302
   20U      O3'  248   5.066   6.536   7.373
   21A        P  249   5.200   6.479   7.319
   21A      O1P  250   5.283   6.473   7.439
   21A      O2P  251   5.246   6.562   7.206
   21A      O5'  252   5.177   6.333   7.270
   21A      C5'  253   5.160   6.220   7.355
   21A     H5'1  254   5.089   6.245   7.433
   21A     H5'2  255   5.253   6.183   7.398
   21A      C4'  256   5.102   6.094   7.283
   21A      H4'  257   5.080   6.020   7.360
   21A      O4'  258   4.984   6.132   7.219
   21A      C1'  259   4.967   6.060   7.095
   21A      H1'  260   4.878   5.998   7.107
   21A       N9  261   4.939   6.153   6.990
   21A       C8  262   5.012   6.261   6.952
   21A       H8  263   5.110   6.281   6.992
   21A       N7  264   4.947   6.330   6.857
   21A       C5  265   4.829   6.249   6.831
   21A       C6  266   4.727   6.255   6.736
   21A       N6  267   4.720   6.337   6.634
   21A      H61  268   4.798   6.400   6.620
   21A      H62  269   4.645   6.328   6.567
   21A       N1  270   4.634   6.158   6.729
   21A       C2  271   4.630   6.072   6.831
   21A       H2  272   4.549   6.001   6.839
   21A       N3  273   4.715   6.059   6.932
   21A       C4  274   4.820   6.146   6.918
   21A      C3'  275   5.186   6.026   7.175
   21A      H3'  276   5.237   6.103   7.117
   21A      C2'  277   5.082   5.963   7.071
   21A     H2'1  278   5.117   5.977   6.968
   21A      O2'  279   5.039   5.828   7.100
   21A     HO'2  280   4.978   5.810   7.028
   21A      O3'  281   5.272   5.927   7.232
   22U        P  282   5.425   5.965   7.238
   22U      O1P  283   5.486   5.870   7.328
   22U      O2P  284   5.441   6.114   7.258
   22U      O5'  285   5.459   5.929   7.088
   22U      C5'  286   5.463   5.794   7.052
   22U     H5'1  287   5.363   5.754   7.065
   22U     H5'2  288   5.534   5.734   7.109
   22U      C4'  289   5.505   5.782   6.906
   22U      H4'  290   5.603   5.827   6.890
   22U      O4'  291   5.514   5.647   6.871
   22U      C1'  292   5.415   5.614   6.774
   22U      H1'  293   5.477   5.615   6.684
   22U       N1  294   5.352   5.484   6.799
   22U       C6  295   5.293   5.452   6.920
   22U       H6  296   5.304   5.524   7.000
   22U       C5  297   5.203   5.347   6.932
   22U       H5  298   5.145   5.325   7.020
   22U       C4  299   5.182   5.254   6.817
   22U       O4  300   5.091   5.170   6.804
   22U       N3  301   5.253   5.285   6.711
   22U       H3  302   5.252   5.215   6.638
   22U       C2  303   5.336   5.395   6.693
   22U       O2  304   5.376   5.416   6.584
   22U      C3'  305   5.402   5.852   6.813
   22U      H3'  306   5.336   5.924   6.862
   22U      C2'  307   5.313   5.728   6.773
   22U     H2'1  308   5.241   5.707   6.852
   22U      O2'  309   5.246   5.735   6.652
   22U     HO'2  310   5.202   5.819   6.640
   22U      O3'  311   5.460   5.913   6.691
   23A        P  312   5.545   6.046   6.692
   23A      O1P  313   5.513   6.139   6.803
   23A      O2P  314   5.542   6.102   6.555
   23A      O5'  315   5.691   5.983   6.719
   23A      C5'  316   5.751   5.901   6.621
   23A     H5'1  317   5.769   5.967   6.536
   23A     H5'2  318   5.693   5.814   6.589
   23A      C4'  319   5.881   5.841   6.665
   23A      H4'  320   5.962   5.913   6.673
   23A      O4'  321   5.850   5.775   6.784
   23A      C1'  322   5.953   5.688   6.818
   23A      H1'  323   6.033   5.729   6.879
   23A       N9  324   5.893   5.576   6.889
   23A       C8  325   5.906   5.542   7.022
   23A       H8  326   5.972   5.594   7.090
   23A       N7  327   5.823   5.448   7.061
   23A       C5  328   5.749   5.420   6.944
   23A       C6  329   5.645   5.331   6.906
   23A       N6  330   5.563   5.282   7.000
   23A      H61  331   5.599   5.273   7.094
   23A      H62  332   5.479   5.245   6.958
   23A       N1  333   5.616   5.314   6.781
   23A       C2  334   5.674   5.394   6.690
   23A       H2  335   5.645   5.368   6.589
   23A       N3  336   5.769   5.482   6.706
   23A       C4  337   5.800   5.488   6.836
   23A      C3'  338   5.931   5.726   6.577
   23A      H3'  339   5.846   5.665   6.545
   23A      C2'  340   6.021   5.653   6.684
   23A     H2'1  341   6.009   5.550   6.648
   23A      O2'  342   6.157   5.698   6.682
   23A     HO'2  343   6.160   5.762   6.611
   23A      O3'  344   6.001   5.769   6.459
   24A        P  345   5.941   5.785   6.321
   24A      O1P  346   6.027   5.876   6.244
   24A      O2P  347   5.793   5.810   6.323
   24A      O5'  348   5.960   5.650   6.251
   24A      C5'  349   5.921   5.528   6.305
   24A     H5'1  350   5.816   5.546   6.329
   24A     H5'2  351   5.990   5.501   6.385
   24A      C4'  352   5.930   5.413   6.205
   24A      H4'  353   5.886   5.321   6.243
   24A      O4'  354   5.856   5.456   6.088
   24A      C1'  355   5.937   5.424   5.978
   24A      H1'  356   5.927   5.317   5.961
   24A       N9  357   5.887   5.499   5.859
   24A       C8  358   5.934   5.621   5.800
   24A       H8  359   6.022   5.675   5.829
   24A       N7  360   5.860   5.651   5.697
   24A       C5  361   5.776   5.544   5.676
   24A       C6  362   5.672   5.510   5.587
   24A       N6  363   5.654   5.576   5.468
   24A      H61  364   5.693   5.669   5.461
   24A      H62  365   5.609   5.528   5.391
   24A       N1  366   5.598   5.396   5.594
   24A       C2  367   5.627   5.314   5.695
   24A       H2  368   5.572   5.222   5.708
   24A       N3  369   5.725   5.335   5.784
   24A       C4  370   5.792   5.452   5.778
   24A      C3'  371   6.074   5.392   6.164
   24A      H3'  372   6.146   5.438   6.231
   24A      C2'  373   6.072   5.457   6.025
   24A     H2'1  374   6.086   5.565   6.026
   24A      O2'  375   6.175   5.402   5.953
   24A     HO'2  376   6.203   5.326   6.005
   24A      O3'  377   6.098   5.259   6.146
   25U        P  378   6.217   5.193   6.235
   25U      O1P  379   6.340   5.261   6.199
   25U      O2P  380   6.204   5.046   6.222
   25U      O5'  381   6.187   5.225   6.386
   25U      C5'  382   6.253   5.323   6.455
   25U     H5'1  383   6.232   5.424   6.420
   25U     H5'2  384   6.359   5.299   6.454
   25U      C4'  385   6.215   5.320   6.609
   25U      H4'  386   6.238   5.415   6.657
   25U      O4'  387   6.074   5.304   6.622
   25U      C1'  388   6.033   5.247   6.748
   25U      H1'  389   5.999   5.318   6.823
   25U       N1  390   5.927   5.133   6.722
   25U       C6  391   5.896   5.089   6.588
   25U       H6  392   5.953   5.132   6.507
   25U       C5  393   5.800   4.998   6.575
   25U       H5  394   5.778   4.952   6.479
   25U       C4  395   5.736   4.934   6.690
   25U       O4  396   5.668   4.833   6.683
   25U       N3  397   5.776   4.983   6.812
   25U       H3  398   5.735   4.944   6.895
   25U       C2  399   5.859   5.089   6.830
   25U       O2  400   5.881   5.136   6.936
   25U      C3'  401   6.258   5.202   6.685
   25U      H3'  402   6.224   5.127   6.614
   25U      C2'  403   6.171   5.202   6.808
   25U     H2'1  404   6.165   5.101   6.850
   25U      O2'  405   6.206   5.301   6.906
   25U     HO'2  406   6.301   5.315   6.907
   25U      O3'  407   6.396   5.204   6.696
   26C        P  408   6.485   5.075   6.695
   26C      O1P  409   6.623   5.129   6.687
   26C      O2P  410   6.436   4.980   6.598
   26C      O5'  411   6.451   5.019   6.842
   26C      C5'  412   6.499   5.073   6.962
   26C     H5'1  413   6.479   5.178   6.943
   26C     H5'2  414   6.604   5.043   6.961
   26C      C4'  415   6.433   5.015   7.088
   26C      H4'  416   6.462   5.068   7.178
   26C      O4'  417   6.292   5.014   7.076
   26C      C1'  418   6.242   4.900   7.138
   26C      H1'  419   6.188   4.938   7.225
   26C       N1  420   6.157   4.825   7.044
   26C       C6  421   6.176   4.833   6.910
   26C       H6  422   6.263   4.889   6.879
   26C       C5  423   6.096   4.779   6.821
   26C       H5  424   6.105   4.794   6.714
   26C       C4  425   5.984   4.706   6.873
   26C       N4  426   5.896   4.657   6.790
   26C      H41  427   5.908   4.688   6.694
   26C      H42  428   5.805   4.629   6.824
   26C       N3  429   5.958   4.691   7.004
   26C       C2  430   6.041   4.756   7.088
   26C       O2  431   6.020   4.756   7.209
   26C      C3'  432   6.472   4.872   7.101
   26C      H3'  433   6.466   4.833   6.999
   26C      C2'  434   6.358   4.821   7.191
   26C     H2'1  435   6.341   4.715   7.172
   26C      O2'  436   6.386   4.856   7.323
   26C     HO'2  437   6.457   4.920   7.319
   26C      O3'  438   6.606   4.846   7.148
   27C        P  439   6.678   4.707   7.107
   27C      O1P  440   6.810   4.709   7.170
   27C      O2P  441   6.659   4.680   6.958
   27C      O5'  442   6.601   4.586   7.175
   27C      C5'  443   6.597   4.569   7.321
   27C     H5'1  444   6.562   4.663   7.362
   27C     H5'2  445   6.699   4.567   7.358
   27C      C4'  446   6.520   4.455   7.384
   27C      H4'  447   6.543   4.462   7.490
   27C      O4'  448   6.382   4.473   7.361
   27C      C1'  449   6.328   4.344   7.342
   27C      H1'  450   6.256   4.312   7.417
   27C       N1  451   6.258   4.339   7.213
   27C       C6  452   6.302   4.420   7.112
   27C       H6  453   6.386   4.486   7.126
   27C       C5  454   6.239   4.418   6.989
   27C       H5  455   6.265   4.480   6.904
   27C       C4  456   6.125   4.330   6.974
   27C       N4  457   6.064   4.323   6.859
   27C      H41  458   6.092   4.385   6.784
   27C      H42  459   5.982   4.265   6.850
   27C       N3  460   6.085   4.248   7.074
   27C       C2  461   6.155   4.248   7.188
   27C       O2  462   6.125   4.161   7.273
   27C      C3'  463   6.570   4.323   7.332
   27C      H3'  464   6.588   4.327   7.224
   27C      C2'  465   6.436   4.248   7.359
   27C     H2'1  466   6.433   4.163   7.291
   27C      O2'  467   6.432   4.212   7.502
   27C     HO'2  468   6.523   4.224   7.532
   27C      O3'  469   6.668   4.256   7.407
   28U        P  470   6.746   4.135   7.330
   28U      O1P  471   6.839   4.079   7.429
   28U      O2P  472   6.802   4.188   7.206
   28U      O5'  473   6.652   4.017   7.281
   28U      C5'  474   6.600   3.918   7.376
   28U     H5'1  475   6.559   3.968   7.463
   28U     H5'2  476   6.677   3.851   7.415
   28U      C4'  477   6.488   3.839   7.319
   28U      H4'  478   6.448   3.770   7.393
   28U      O4'  479   6.386   3.925   7.271
   28U      C1'  480   6.342   3.871   7.146
   28U      H1'  481   6.244   3.831   7.171
   28U       N1  482   6.330   3.958   7.031
   28U       C6  483   6.423   4.048   6.995
   28U       H6  484   6.506   4.065   7.062
   28U       C5  485   6.417   4.112   6.873
   28U       H5  486   6.491   4.185   6.843
   28U       C4  487   6.313   4.084   6.774
   28U       O4  488   6.296   4.144   6.669
   28U       N3  489   6.235   3.979   6.813
   28U       H3  490   6.153   3.950   6.762
   28U       C2  491   6.226   3.924   6.941
   28U       O2  492   6.137   3.848   6.973
   28U      C3'  493   6.546   3.756   7.206
   28U      H3'  494   6.625   3.811   7.155
   28U      C2'  495   6.426   3.747   7.108
   28U     H2'1  496   6.466   3.756   7.007
   28U      O2'  497   6.349   3.630   7.125
   28U     HO'2  498   6.397   3.569   7.181
   28U      O3'  499   6.603   3.634   7.246
   29A        P  500   6.696   3.542   7.155
   29A      O1P  501   6.790   3.472   7.251
   29A      O2P  502   6.757   3.634   7.058
   29A      O5'  503   6.603   3.441   7.075
   29A      C5'  504   6.566   3.317   7.128
   29A     H5'1  505   6.510   3.319   7.221
   29A     H5'2  506   6.653   3.260   7.160
   29A      C4'  507   6.480   3.252   7.023
   29A      H4'  508   6.439   3.161   7.068
   29A      O4'  509   6.385   3.345   6.984
   29A      C1'  510   6.348   3.325   6.844
   29A      H1'  511   6.242   3.307   6.828
   29A       N9  512   6.375   3.449   6.767
   29A       C8  513   6.448   3.566   6.796
   29A       H8  514   6.503   3.563   6.889
   29A       N7  515   6.452   3.660   6.705
   29A       C5  516   6.370   3.600   6.611
   29A       C6  517   6.334   3.637   6.477
   29A       N6  518   6.360   3.751   6.418
   29A      H61  519   6.416   3.825   6.458
   29A      H62  520   6.309   3.777   6.334
   29A       N1  521   6.245   3.565   6.414
   29A       C2  522   6.198   3.449   6.456
   29A       H2  523   6.134   3.391   6.390
   29A       N3  524   6.240   3.394   6.575
   29A       C4  525   6.321   3.476   6.647
   29A      C3'  526   6.554   3.208   6.891
   29A      H3'  527   6.619   3.292   6.868
   29A      C2'  528   6.430   3.202   6.802
   29A     H2'1  529   6.451   3.212   6.695
   29A      O2'  530   6.343   3.095   6.838
   29A     HO'2  531   6.404   3.036   6.883
   29A      O3'  532   6.626   3.089   6.908
   30A        P  533   6.734   3.047   6.803
   30A      O1P  534   6.797   2.926   6.851
   30A      O2P  535   6.811   3.167   6.758
   30A      O5'  536   6.660   3.009   6.670
   30A      C5'  537   6.582   2.889   6.658
   30A     H5'1  538   6.521   2.872   6.746
   30A     H5'2  539   6.659   2.812   6.655
   30A      C4'  540   6.504   2.886   6.525
   30A      H4'  541   6.433   2.804   6.517
   30A      O4'  542   6.417   2.997   6.528
   30A      C1'  543   6.391   3.030   6.398
   30A      H1'  544   6.285   3.027   6.375
   30A       N9  545   6.445   3.166   6.379
   30A       C8  546   6.545   3.231   6.445
   30A       H8  547   6.602   3.191   6.527
   30A       N7  548   6.577   3.344   6.382
   30A       C5  549   6.490   3.352   6.274
   30A       C6  550   6.462   3.443   6.173
   30A       N6  551   6.527   3.552   6.149
   30A      H61  552   6.606   3.584   6.203
   30A      H62  553   6.492   3.607   6.072
   30A       N1  554   6.357   3.430   6.087
   30A       C2  555   6.284   3.323   6.113
   30A       H2  556   6.199   3.317   6.047
   30A       N3  557   6.297   3.223   6.197
   30A       C4  558   6.404   3.249   6.276
   30A      C3'  559   6.593   2.891   6.405
   30A      H3'  560   6.659   2.977   6.416
   30A      C2'  561   6.482   2.939   6.314
   30A     H2'1  562   6.534   2.990   6.233
   30A      O2'  563   6.405   2.832   6.266
   30A     HO'2  564   6.336   2.868   6.209
   30A      O3'  565   6.653   2.772   6.357
   31U        P  566   6.775   2.772   6.248
   31U      O1P  567   6.800   2.634   6.199
   31U      O2P  568   6.884   2.842   6.317
   31U      O5'  569   6.739   2.862   6.119
   31U      C5'  570   6.646   2.797   6.032
   31U     H5'1  571   6.565   2.746   6.084
   31U     H5'2  572   6.698   2.722   5.972
   31U      C4'  573   6.580   2.895   5.936
   31U      H4'  574   6.488   2.849   5.901
   31U      O4'  575   6.546   3.016   5.995
   31U      C1'  576   6.551   3.116   5.894
   31U      H1'  577   6.455   3.168   5.889
   31U       N1  578   6.647   3.230   5.940
   31U       C6  579   6.735   3.216   6.047
   31U       H6  580   6.728   3.126   6.107
   31U       C5  581   6.834   3.309   6.068
   31U       H5  582   6.922   3.296   6.129
   31U       C4  583   6.845   3.423   5.982
   31U       O4  584   6.933   3.509   5.990
   31U       N3  585   6.752   3.435   5.889
   31U       H3  586   6.750   3.527   5.848
   31U       C2  587   6.660   3.338   5.855
   31U       O2  588   6.595   3.352   5.749
   31U      C3'  589   6.663   2.934   5.816
   31U      H3'  590   6.765   2.961   5.844
   31U      C2'  591   6.589   3.056   5.755
   31U     H2'1  592   6.649   3.124   5.694
   31U      O2'  593   6.471   3.021   5.687
   31U     HO'2  594   6.470   2.925   5.690
   31U      O3'  595   6.672   2.822   5.734
   32G        P  596   6.809   2.784   5.674
   32G      O1P  597   6.788   2.665   5.587
   32G      O2P  598   6.910   2.786   5.781
   32G      O5'  599   6.841   2.904   5.577
   32G      C5'  600   6.772   2.915   5.445
   32G     H5'1  601   6.668   2.887   5.457
   32G     H5'2  602   6.815   2.839   5.380
   32G      C4'  603   6.786   3.056   5.388
   32G      H4'  604   6.706   3.066   5.315
   32G      O4'  605   6.779   3.156   5.492
   32G      C1'  606   6.846   3.272   5.454
   32G      H1'  607   6.792   3.366   5.450
   32G       N9  608   6.945   3.301   5.555
   32G       C8  609   6.966   3.231   5.674
   32G       H8  610   6.938   3.128   5.692
   32G       N7  611   7.040   3.298   5.760
   32G       C5  612   7.070   3.413   5.691
   32G       C6  613   7.151   3.524   5.727
   32G       O6  614   7.219   3.547   5.830
   32G       N1  615   7.164   3.621   5.632
   32G       H1  616   7.203   3.710   5.658
   32G       C2  617   7.102   3.616   5.511
   32G       N2  618   7.113   3.719   5.432
   32G      H21  619   7.184   3.786   5.458
   32G      H22  620   7.072   3.707   5.340
   32G       N3  621   7.018   3.520   5.471
   32G       C4  622   7.010   3.419   5.568
   32G      C3'  623   6.921   3.083   5.326
   32G      H3'  624   6.997   3.064   5.402
   32G      C2'  625   6.914   3.231   5.319
   32G     H2'1  626   7.016   3.269   5.310
   32G      O2'  627   6.821   3.289   5.220
   32G     HO'2  628   6.855   3.287   5.130
   32G      O3'  629   6.925   3.006   5.204
   33A        P  630   7.045   2.996   5.104
   33A      O1P  631   7.012   2.880   5.016
   33A      O2P  632   7.179   3.014   5.167
   33A      O5'  633   7.043   3.123   5.016
   33A      C5'  634   6.937   3.151   4.925
   33A     H5'1  635   6.845   3.146   4.983
   33A     H5'2  636   6.936   3.082   4.840
   33A      C4'  637   6.960   3.293   4.884
   33A      H4'  638   6.867   3.323   4.835
   33A      O4'  639   6.971   3.377   4.998
   33A      C1'  640   7.054   3.479   4.958
   33A      H1'  641   6.997   3.571   4.963
   33A       N9  642   7.182   3.467   5.041
   33A       C8  643   7.218   3.381   5.144
   33A       H8  644   7.169   3.285   5.158
   33A       N7  645   7.307   3.429   5.229
   33A       C5  646   7.352   3.541   5.158
   33A       C6  647   7.448   3.639   5.185
   33A       N6  648   7.514   3.653   5.297
   33A      H61  649   7.481   3.611   5.383
   33A      H62  650   7.579   3.730   5.294
   33A       N1  651   7.474   3.734   5.095
   33A       C2  652   7.397   3.747   4.985
   33A       H2  653   7.422   3.829   4.919
   33A       N3  654   7.299   3.659   4.947
   33A       C4  655   7.284   3.557   5.044
   33A      C3'  656   7.087   3.312   4.797
   33A      H3'  657   7.169   3.263   4.850
   33A      C2'  658   7.095   3.464   4.810
   33A     H2'1  659   7.200   3.491   4.797
   33A      O2'  660   6.996   3.533   4.732
   33A     HO'2  661   7.031   3.620   4.712
   33A      O3'  662   7.073   3.255   4.669
   34U        P  663   7.195   3.188   4.590
   34U      O1P  664   7.136   3.128   4.467
   34U      O2P  665   7.279   3.109   4.684
   34U      O5'  666   7.275   3.317   4.557
   34U      C5'  667   7.218   3.422   4.474
   34U     H5'1  668   7.126   3.448   4.526
   34U     H5'2  669   7.186   3.378   4.379
   34U      C4'  670   7.317   3.536   4.454
   34U      H4'  671   7.264   3.611   4.396
   34U      O4'  672   7.362   3.587   4.575
   34U      C1'  673   7.499   3.580   4.580
   34U      H1'  674   7.541   3.675   4.547
   34U       N1  675   7.534   3.539   4.715
   34U       C6  676   7.483   3.414   4.767
   34U       H6  677   7.422   3.344   4.712
   34U       C5  678   7.523   3.370   4.892
   34U       H5  679   7.477   3.287   4.944
   34U       C4  680   7.626   3.441   4.963
   34U       O4  681   7.672   3.413   5.077
   34U       N3  682   7.673   3.558   4.908
   34U       H3  683   7.725   3.619   4.969
   34U       C2  684   7.628   3.610   4.792
   34U       O2  685   7.665   3.723   4.763
   34U      C3'  686   7.441   3.491   4.373
   34U      H3'  687   7.417   3.397   4.323
   34U      C2'  688   7.543   3.467   4.485
   34U     H2'1  689   7.525   3.370   4.531
   34U      O2'  690   7.682   3.479   4.453
   34U     HO'2  691   7.692   3.531   4.373
   34U      O3'  692   7.488   3.587   4.283
   35A        P  693   7.452   3.592   4.133
   35A      O1P  694   7.324   3.524   4.102
   35A      O2P  695   7.573   3.543   4.074
   35A      O5'  696   7.440   3.750   4.093
   35A      C5'  697   7.315   3.826   4.101
   35A     H5'1  698   7.295   3.834   4.208
   35A     H5'2  699   7.231   3.786   4.044
   35A      C4'  700   7.334   3.964   4.037
   35A      H4'  701   7.234   4.006   4.032
   35A      O4'  702   7.408   4.041   4.133
   35A      C1'  703   7.529   4.090   4.070
   35A      H1'  704   7.536   4.195   4.044
   35A       N9  705   7.637   4.065   4.174
   35A       C8  706   7.648   3.962   4.268
   35A       H8  707   7.567   3.892   4.283
   35A       N7  708   7.743   3.974   4.351
   35A       C5  709   7.822   4.076   4.297
   35A       C6  710   7.954   4.128   4.319
   35A       N6  711   8.044   4.080   4.406
   35A      H61  712   8.015   4.011   4.474
   35A      H62  713   8.135   4.123   4.401
   35A       N1  714   7.998   4.230   4.245
   35A       C2  715   7.920   4.277   4.144
   35A       H2  716   7.951   4.366   4.091
   35A       N3  717   7.801   4.234   4.112
   35A       C4  718   7.756   4.135   4.191
   35A      C3'  719   7.406   3.959   3.901
   35A      H3'  720   7.410   3.863   3.850
   35A      C2'  721   7.550   3.999   3.950
   35A     H2'1  722   7.606   3.911   3.981
   35A      O2'  723   7.620   4.055   3.845
   35A     HO'2  724   7.606   4.001   3.767
   35A      O3'  725   7.349   4.053   3.819
   36U        P  726   7.258   4.008   3.701
   36U      O1P  727   7.327   3.905   3.623
   36U      O2P  728   7.230   4.137   3.634
   36U      O5'  729   7.129   3.951   3.767
   36U      C5'  730   7.012   4.023   3.791
   36U     H5'1  731   6.978   4.065   3.696
   36U     H5'2  732   7.036   4.104   3.860
   36U      C4'  733   6.895   3.950   3.858
   36U      H4'  734   6.827   4.028   3.891
   36U      O4'  735   6.829   3.858   3.772
   36U      C1'  736   6.880   3.725   3.804
   36U      H1'  737   6.799   3.654   3.820
   36U       N1  738   6.945   3.674   3.682
   36U       C6  739   6.983   3.757   3.579
   36U       H6  740   6.972   3.864   3.588
   36U       C5  741   7.037   3.698   3.463
   36U       H5  742   7.069   3.758   3.379
   36U       C4  743   7.063   3.558   3.451
   36U       O4  744   7.093   3.500   3.350
   36U       N3  745   7.034   3.488   3.568
   36U       H3  746   7.048   3.390   3.546
   36U       C2  747   6.969   3.534   3.679
   36U       O2  748   6.920   3.458   3.760
   36U      C3'  749   6.943   3.866   3.983
   36U      H3'  750   7.037   3.902   4.025
   36U      C2'  751   6.967   3.727   3.933
   36U     H2'1  752   7.072   3.720   3.905
   36U      O2'  753   6.939   3.618   4.025
   36U     HO'2  754   6.865   3.647   4.078
   36U      O3'  755   6.842   3.861   4.072
   37G        P  756   6.833   3.970   4.191
   37G      O1P  757   6.693   3.965   4.230
   37G      O2P  758   6.882   4.100   4.136
   37G      O5'  759   6.926   3.922   4.307
   37G      C5'  760   6.901   3.805   4.376
   37G     H5'1  761   6.909   3.716   4.313
   37G     H5'2  762   6.812   3.818   4.437
   37G      C4'  763   7.001   3.789   4.486
   37G      H4'  764   6.984   3.687   4.522
   37G      O4'  765   7.139   3.811   4.442
   37G      C1'  766   7.210   3.873   4.548
   37G      H1'  767   7.287   3.797   4.564
   37G       N9  768   7.262   4.005   4.505
   37G       C8  769   7.205   4.101   4.430
   37G       H8  770   7.115   4.089   4.372
   37G       N7  771   7.292   4.196   4.402
   37G       C5  772   7.403   4.169   4.477
   37G       C6  773   7.535   4.231   4.488
   37G       O6  774   7.574   4.331   4.433
   37G       N1  775   7.625   4.167   4.570
   37G       H1  776   7.715   4.210   4.585
   37G       C2  777   7.600   4.040   4.612
   37G       N2  778   7.691   3.986   4.687
   37G      H21  779   7.781   4.032   4.689
   37G      H22  780   7.671   3.892   4.720
   37G       N3  781   7.479   3.978   4.611
   37G       C4  782   7.390   4.048   4.541
   37G      C3'  783   6.979   3.887   4.601
   37G      H3'  784   6.948   3.988   4.574
   37G      C2'  785   7.115   3.891   4.664
   37G     H2'1  786   7.139   3.984   4.715
   37G      O2'  787   7.133   3.779   4.747
   37G     HO'2  788   7.207   3.796   4.805
   37G      O3'  789   6.877   3.831   4.685
   38G        P  790   6.819   3.922   4.798
   38G      O1P  791   6.725   3.832   4.865
   38G      O2P  792   6.766   4.042   4.735
   38G      O5'  793   6.934   3.963   4.899
   38G      C5'  794   6.969   3.883   5.008
   38G     H5'1  795   7.009   3.787   4.975
   38G     H5'2  796   6.878   3.862   5.064
   38G      C4'  797   7.070   3.950   5.102
   38G      H4'  798   7.093   3.885   5.186
   38G      O4'  799   7.185   3.965   5.030
   38G      C1'  800   7.238   4.095   5.057
   38G      H1'  801   7.342   4.094   5.089
   38G       N9  802   7.233   4.177   4.933
   38G       C8  803   7.137   4.207   4.838
   38G       H8  804   7.039   4.163   4.830
   38G       N7  805   7.181   4.294   4.744
   38G       C5  806   7.308   4.333   4.788
   38G       C6  807   7.401   4.432   4.732
   38G       O6  808   7.383   4.510   4.636
   38G       N1  809   7.523   4.436   4.796
   38G       H1  810   7.591   4.504   4.767
   38G       C2  811   7.548   4.366   4.908
   38G       N2  812   7.662   4.387   4.966
   38G      H21  813   7.728   4.453   4.928
   38G      H22  814   7.685   4.334   5.049
   38G       N3  815   7.460   4.275   4.965
   38G       C4  816   7.339   4.261   4.901
   38G      C3'  817   7.016   4.085   5.154
   38G      H3'  818   6.954   4.123   5.073
   38G      C2'  819   7.157   4.148   5.174
   38G     H2'1  820   7.161   4.256   5.162
   38G      O2'  821   7.212   4.117   5.307
   38G     HO'2  822   7.147   4.150   5.369
   38G      O3'  823   6.946   4.076   5.277
   39U        P  824   6.844   4.186   5.311
   39U      O1P  825   6.868   4.312   5.237
   39U      O2P  826   6.827   4.195   5.456
   39U      O5'  827   6.699   4.127   5.266
   39U      C5'  828   6.662   4.101   5.135
   39U     H5'1  829   6.742   4.048   5.083
   39U     H5'2  830   6.640   4.196   5.087
   39U      C4'  831   6.552   3.999   5.129
   39U      H4'  832   6.524   3.995   5.023
   39U      O4'  833   6.604   3.874   5.179
   39U      C1'  834   6.523   3.822   5.284
   39U      H1'  835   6.449   3.753   5.243
   39U       N1  836   6.611   3.772   5.396
   39U       C6  837   6.716   3.849   5.444
   39U       H6  838   6.724   3.949   5.404
   39U       C5  839   6.796   3.798   5.542
   39U       H5  840   6.876   3.858   5.583
   39U       C4  841   6.761   3.672   5.610
   39U       O4  842   6.819   3.629   5.711
   39U       N3  843   6.656   3.598   5.552
   39U       H3  844   6.618   3.513   5.592
   39U       C2  845   6.579   3.640   5.445
   39U       O2  846   6.498   3.565   5.395
   39U      C3'  847   6.422   4.020   5.207
   39U      H3'  848   6.414   4.128   5.213
   39U      C2'  849   6.450   3.954   5.338
   39U     H2'1  850   6.512   4.022   5.395
   39U      O2'  851   6.340   3.910   5.408
   39U     HO'2  852   6.268   3.882   5.351
   39U      O3'  853   6.304   3.985   5.137
   40U        P  854   6.155   4.045   5.179
   40U      O1P  855   6.066   4.041   5.060
   40U      O2P  856   6.169   4.172   5.251
   40U      O5'  857   6.103   3.932   5.287
   40U      C5'  858   6.048   3.819   5.232
   40U     H5'1  859   6.118   3.774   5.162
   40U     H5'2  860   5.956   3.850   5.183
   40U      C4'  861   6.017   3.723   5.348
   40U      H4'  862   5.982   3.628   5.306
   40U      O4'  863   6.144   3.686   5.409
   40U      C1'  864   6.109   3.636   5.534
   40U      H1'  865   6.096   3.528   5.522
   40U       N1  866   6.227   3.659   5.626
   40U       C6  867   6.264   3.780   5.679
   40U       H6  868   6.210   3.870   5.656
   40U       C5  869   6.368   3.794   5.764
   40U       H5  870   6.395   3.895   5.790
   40U       C4  871   6.446   3.681   5.804
   40U       O4  872   6.555   3.682   5.867
   40U       N3  873   6.399   3.564   5.757
   40U       H3  874   6.443   3.477   5.784
   40U       C2  875   6.296   3.546   5.668
   40U       O2  876   6.269   3.437   5.628
   40U      C3'  877   5.937   3.772   5.460
   40U      H3'  878   5.968   3.874   5.480
   40U      C2'  879   5.979   3.691   5.587
   40U     H2'1  880   6.000   3.766   5.663
   40U      O2'  881   5.901   3.577   5.616
   40U     HO'2  882   5.839   3.608   5.682
   40U      O3'  883   5.795   3.763   5.428
   41U        P  884   5.695   3.856   5.499
   41U      O1P  885   5.560   3.855   5.436
   41U      O2P  886   5.759   3.989   5.506
   41U      O5'  887   5.690   3.793   5.643
   41U      C5'  888   5.603   3.681   5.674
   41U     H5'1  889   5.632   3.599   5.608
   41U     H5'2  890   5.505   3.721   5.650
   41U      C4'  891   5.606   3.627   5.815
   41U      H4'  892   5.564   3.526   5.805
   41U      O4'  893   5.741   3.603   5.844
   41U      C1'  894   5.774   3.654   5.973
   41U      H1'  895   5.741   3.589   6.054
   41U       N1  896   5.920   3.690   5.993
   41U       C6  897   5.976   3.810   5.951
   41U       H6  898   5.924   3.877   5.884
   41U       C5  899   6.108   3.838   5.983
   41U       H5  900   6.154   3.927   5.943
   41U       C4  901   6.197   3.746   6.047
   41U       O4  902   6.316   3.761   6.069
   41U       N3  903   6.127   3.632   6.092
   41U       H3  904   6.185   3.572   6.149
   41U       C2  905   5.994   3.604   6.073
   41U       O2  906   5.951   3.490   6.115
   41U      C3'  907   5.547   3.723   5.922
   41U      H3'  908   5.478   3.796   5.879
   41U      C2'  909   5.678   3.772   5.978
   41U     H2'1  910   5.711   3.840   5.899
   41U      O2'  911   5.667   3.842   6.099
   41U     HO'2  912   5.574   3.853   6.118
   41U      O3'  913   5.486   3.630   6.009
   42G        P  914   5.383   3.668   6.122
   42G      O1P  915   5.252   3.616   6.084
   42G      O2P  916   5.399   3.815   6.148
   42G      O5'  917   5.443   3.587   6.240
   42G      C5'  918   5.443   3.451   6.242
   42G     H5'1  919   5.499   3.416   6.155
   42G     H5'2  920   5.343   3.409   6.233
   42G      C4'  921   5.505   3.390   6.370
   42G      H4'  922   5.477   3.287   6.394
   42G      O4'  923   5.648   3.383   6.369
   42G      C1'  924   5.711   3.396   6.494
   42G      H1'  925   5.761   3.301   6.515
   42G       N9  926   5.794   3.519   6.490
   42G       C8  927   5.803   3.616   6.389
   42G       H8  928   5.756   3.608   6.292
   42G       N7  929   5.876   3.719   6.421
   42G       C5  930   5.930   3.682   6.546
   42G       C6  931   6.008   3.760   6.645
   42G       O6  932   6.059   3.873   6.629
   42G       N1  933   6.035   3.698   6.760
   42G       H1  934   6.076   3.752   6.835
   42G       C2  935   5.988   3.579   6.781
   42G       N2  936   6.017   3.531   6.901
   42G      H21  937   6.069   3.589   6.965
   42G      H22  938   5.984   3.439   6.929
   42G       N3  939   5.909   3.502   6.705
   42G       C4  940   5.892   3.554   6.581
   42G      C3'  941   5.476   3.454   6.502
   42G      H3'  942   5.486   3.562   6.493
   42G      C2'  943   5.588   3.408   6.593
   42G     H2'1  944   5.604   3.476   6.677
   42G      O2'  945   5.576   3.280   6.653
   42G     HO'2  946   5.484   3.255   6.662
   42G      O3'  947   5.344   3.413   6.544
   43G        P  948   5.251   3.522   6.611
   43G      O1P  949   5.120   3.467   6.648
   43G      O2P  950   5.252   3.640   6.522
   43G      O5'  951   5.339   3.543   6.741
   43G      C5'  952   5.333   3.449   6.851
   43G     H5'1  953   5.363   3.349   6.818
   43G     H5'2  954   5.231   3.443   6.890
   43G      C4'  955   5.424   3.487   6.965
   43G      H4'  956   5.428   3.409   7.041
   43G      O4'  957   5.557   3.512   6.925
   43G      C1'  958   5.612   3.615   7.002
   43G      H1'  959   5.700   3.580   7.056
   43G       N9  960   5.654   3.725   6.917
   43G       C8  961   5.648   3.733   6.783
   43G       H8  962   5.592   3.668   6.717
   43G       N7  963   5.701   3.844   6.734
   43G       C5  964   5.761   3.904   6.848
   43G       C6  965   5.840   4.024   6.863
   43G       O6  966   5.869   4.106   6.780
   43G       N1  967   5.896   4.043   6.990
   43G       H1  968   5.939   4.127   7.026
   43G       C2  969   5.876   3.950   7.093
   43G       N2  970   5.922   3.978   7.210
   43G      H21  971   5.979   4.059   7.227
   43G      H22  972   5.903   3.911   7.283
   43G       N3  973   5.788   3.846   7.085
   43G       C4  974   5.743   3.826   6.960
   43G      C3'  975   5.376   3.612   7.035
   43G      H3'  976   5.343   3.681   6.957
   43G      C2'  977   5.510   3.662   7.101
   43G     H2'1  978   5.512   3.769   7.118
   43G      O2'  979   5.547   3.600   7.221
   43G     HO'2  980   5.467   3.563   7.259
   43G      O3'  981   5.272   3.594   7.130
   44G        P  982   5.175   3.705   7.170
   44G      O1P  983   5.088   3.642   7.272
   44G      O2P  984   5.110   3.760   7.048
   44G      O5'  985   5.259   3.824   7.230
   44G      C5'  986   5.299   3.819   7.369
   44G     H5'1  987   5.345   3.725   7.399
   44G     H5'2  988   5.207   3.834   7.425
   44G      C4'  989   5.397   3.922   7.409
   44G      H4'  990   5.436   3.900   7.508
   44G      O4'  991   5.508   3.927   7.319
   44G      C1'  992   5.571   4.056   7.324
   44G      H1'  993   5.668   4.041   7.371
   44G       N9  994   5.575   4.115   7.186
   44G       C8  995   5.508   4.074   7.074
   44G       H8  996   5.435   3.994   7.074
   44G       N7  997   5.533   4.150   6.970
   44G       C5  998   5.634   4.239   7.021
   44G       C6  999   5.713   4.340   6.959
   44G       O6 1000   5.716   4.375   6.843
   44G       N1 1001   5.792   4.413   7.042
   44G       H1 1002   5.823   4.502   7.006
   44G       C2 1003   5.807   4.390   7.174
   44G       N2 1004   5.876   4.479   7.239
   44G      H21 1005   5.924   4.552   7.189
   44G      H22 1006   5.899   4.453   7.334
   44G       N3 1007   5.742   4.288   7.233
   44G       C4 1008   5.659   4.220   7.153
   44G      C3' 1009   5.352   4.064   7.413
   44G      H3' 1010   5.296   4.091   7.323
   44G      C2' 1011   5.485   4.138   7.415
   44G     H2'1 1012   5.472   4.240   7.380
   44G      O2' 1013   5.549   4.141   7.541
   44G     HO'2 1014   5.635   4.181   7.529
   44G      O3' 1015   5.268   4.099   7.523
   45A        P 1016   5.188   4.234   7.522
   45A      O1P 1017   5.102   4.227   7.643
   45A      O2P 1018   5.119   4.242   7.396
   45A      O5' 1019   5.284   4.366   7.532
   45A      C5' 1020   5.332   4.407   7.652
   45A     H5'1 1021   5.383   4.324   7.701
   45A     H5'2 1022   5.254   4.444   7.719
   45A      C4' 1023   5.434   4.526   7.643
   45A      H4' 1024   5.472   4.541   7.744
   45A      O4' 1025   5.545   4.498   7.563
   45A      C1' 1026   5.583   4.616   7.488
   45A      H1' 1027   5.686   4.640   7.513
   45A       N9 1028   5.543   4.596   7.343
   45A       C8 1029   5.473   4.494   7.282
   45A       H8 1030   5.413   4.425   7.340
   45A       N7 1031   5.474   4.499   7.152
   45A       C5 1032   5.554   4.612   7.125
   45A       C6 1033   5.597   4.687   7.016
   45A       N6 1034   5.581   4.647   6.895
   45A      H61 1035   5.537   4.560   6.867
   45A      H62 1036   5.620   4.708   6.824
   45A       N1 1037   5.670   4.801   7.022
   45A       C2 1038   5.696   4.852   7.144
   45A       H2 1039   5.740   4.950   7.150
   45A       N3 1040   5.663   4.795   7.254
   45A       C4 1041   5.589   4.678   7.241
   45A      C3' 1042   5.369   4.648   7.592
   45A      H3' 1043   5.316   4.618   7.501
   45A      C2' 1044   5.495   4.725   7.548
   45A     H2'1 1045   5.463   4.802   7.478
   45A      O2' 1046   5.571   4.776   7.656
   45A     HO'2 1047   5.514   4.841   7.697
   45A      O3' 1048   5.286   4.707   7.690
   46G        P 1049   5.151   4.780   7.635
   46G      O1P 1050   5.093   4.849   7.752
   46G      O2P 1051   5.080   4.679   7.562
   46G      O5' 1052   5.208   4.890   7.536
   46G      C5' 1053   5.278   5.003   7.574
   46G     H5'1 1054   5.366   4.981   7.635
   46G     H5'2 1055   5.216   5.059   7.644
   46G      C4' 1056   5.306   5.098   7.462
   46G      H4' 1057   5.357   5.187   7.498
   46G      O4' 1058   5.395   5.023   7.375
   46G      C1' 1059   5.369   5.050   7.240
   46G      H1' 1060   5.459   5.091   7.194
   46G       N9 1061   5.324   4.934   7.160
   46G       C8 1062   5.261   4.817   7.197
   46G       H8 1063   5.243   4.785   7.298
   46G       N7 1064   5.238   4.740   7.094
   46G       C5 1065   5.276   4.817   6.987
   46G       C6 1066   5.269   4.791   6.843
   46G       O6 1067   5.228   4.691   6.782
   46G       N1 1068   5.325   4.885   6.760
   46G       H1 1069   5.334   4.866   6.661
   46G       C2 1070   5.390   4.990   6.812
   46G       N2 1071   5.452   5.058   6.718
   46G      H21 1072   5.441   5.024   6.623
   46G      H22 1073   5.509   5.137   6.743
   46G       N3 1074   5.400   5.026   6.944
   46G       C4 1075   5.342   4.930   7.023
   46G      C3' 1076   5.191   5.142   7.378
   46G      H3' 1077   5.122   5.059   7.363
   46G      C2' 1078   5.265   5.154   7.241
   46G     H2'1 1079   5.201   5.136   7.154
   46G      O2' 1080   5.324   5.289   7.224
   46G     HO'2 1081   5.277   5.351   7.280
   46G      O3' 1082   5.134   5.274   7.400
   47U        P 1083   5.039   5.318   7.521
   47U      O1P 1084   5.092   5.447   7.575
   47U      O2P 1085   5.023   5.200   7.611
   47U      O5' 1086   4.891   5.341   7.450
   47U      C5' 1087   4.870   5.464   7.383
   47U     H5'1 1088   4.958   5.493   7.325
   47U     H5'2 1089   4.861   5.542   7.458
   47U      C4' 1090   4.743   5.451   7.302
   47U      H4' 1091   4.713   5.555   7.292
   47U      O4' 1092   4.776   5.409   7.178
   47U      C1' 1093   4.691   5.296   7.151
   47U      H1' 1094   4.615   5.331   7.081
   47U       N1 1095   4.772   5.197   7.081
   47U       C6 1096   4.871   5.136   7.149
   47U       H6 1097   4.887   5.167   7.251
   47U       C5 1098   4.934   5.024   7.098
   47U       H5 1099   4.994   4.956   7.157
   47U       C4 1100   4.885   4.969   6.971
   47U       O4 1101   4.921   4.865   6.916
   47U       N3 1102   4.796   5.050   6.904
   47U       H3 1103   4.759   5.006   6.821
   47U       C2 1104   4.728   5.161   6.955
   47U       O2 1105   4.639   5.219   6.890
   47U      C3' 1106   4.621   5.379   7.366
   47U      H3' 1107   4.633   5.349   7.470
   47U      C2' 1108   4.615   5.249   7.283
   47U     H2'1 1109   4.672   5.170   7.332
   47U      O2' 1110   4.484   5.204   7.244
   47U     HO'2 1111   4.436   5.202   7.327
   47U      O3' 1112   4.501   5.460   7.336
   48U        P 1113   4.465   5.590   7.416
   48U      O1P 1114   4.425   5.695   7.319
   48U      O2P 1115   4.572   5.618   7.504
   48U      O5' 1116   4.336   5.535   7.498
   48U      C5' 1117   4.336   5.442   7.605
   48U     H5'1 1118   4.372   5.484   7.699
   48U     H5'2 1119   4.382   5.346   7.580
   48U      C4' 1120   4.189   5.407   7.623
   48U      H4' 1121   4.181   5.328   7.698
   48U      O4' 1122   4.115   5.521   7.671
   48U      C1' 1123   3.991   5.531   7.608
   48U      H1' 1124   3.918   5.462   7.651
   48U       N1 1125   3.938   5.671   7.602
   48U       C6 1126   4.007   5.779   7.548
   48U       H6 1127   4.103   5.763   7.502
   48U       C5 1128   3.962   5.906   7.576
   48U       H5 1129   4.006   5.996   7.536
   48U       C4 1130   3.843   5.938   7.645
   48U       O4 1131   3.784   6.048   7.657
   48U       N3 1132   3.772   5.824   7.679
   48U       H3 1133   3.674   5.833   7.701
   48U       C2 1134   3.819   5.696   7.671
   48U       O2 1135   3.751   5.605   7.724
   48U      C3' 1136   4.119   5.367   7.495
   48U      H3' 1137   4.190   5.374   7.412
   48U      C2' 1138   4.018   5.476   7.467
   48U     H2'1 1139   4.062   5.550   7.400
   48U      O2' 1140   3.897   5.437   7.410
   48U     HO'2 1141   3.861   5.358   7.452
   48U      O3' 1142   4.067   5.236   7.496
   49U        P 1143   4.157   5.110   7.444
   49U      O1P 1144   4.095   4.986   7.484
   49U      O2P 1145   4.297   5.134   7.478
   49U      O5' 1146   4.135   5.120   7.287
   49U      C5' 1147   4.004   5.097   7.238
   49U     H5'1 1148   3.942   5.180   7.271
   49U     H5'2 1149   3.954   5.014   7.288
   49U      C4' 1150   4.004   5.083   7.087
   49U      H4' 1151   3.908   5.040   7.057
   49U      O4' 1152   4.038   5.202   7.014
   49U      C1' 1153   4.150   5.183   6.932
   49U      H1' 1154   4.124   5.149   6.831
   49U       N1 1155   4.221   5.321   6.918
   49U       C6 1156   4.289   5.369   7.024
   49U       H6 1157   4.276   5.313   7.115
   49U       C5 1158   4.370   5.478   7.007
   49U       H5 1159   4.438   5.500   7.088
   49U       C4 1160   4.383   5.549   6.884
   49U       O4 1161   4.452   5.648   6.863
   49U       N3 1162   4.303   5.495   6.779
   49U       H3 1163   4.317   5.542   6.690
   49U       C2 1164   4.214   5.387   6.796
   49U       O2 1165   4.132   5.354   6.707
   49U      C3' 1166   4.104   4.984   7.046
   49U      H3' 1167   4.139   4.921   7.128
   49U      C2' 1168   4.225   5.073   7.006
   49U     H2'1 1169   4.270   5.096   7.102
   49U      O2' 1170   4.323   5.010   6.929
   49U     HO'2 1171   4.277   4.940   6.881
   49U      O3' 1172   4.045   4.909   6.942
   50C        P 1173   4.101   4.787   6.871
   50C      O1P 1174   4.000   4.685   6.878
   50C      O2P 1175   4.233   4.739   6.917
   50C      O5' 1176   4.107   4.844   6.728
   50C      C5' 1177   3.988   4.842   6.644
   50C     H5'1 1178   3.904   4.878   6.704
   50C     H5'2 1179   3.969   4.738   6.615
   50C      C4' 1180   3.999   4.933   6.524
   50C      H4' 1181   3.910   4.926   6.461
   50C      O4' 1182   4.028   5.068   6.552
   50C      C1' 1183   4.104   5.115   6.443
   50C      H1' 1184   4.052   5.199   6.398
   50C       N1 1185   4.235   5.164   6.484
   50C       C6 1186   4.292   5.115   6.602
   50C       H6 1187   4.238   5.036   6.653
   50C       C5 1188   4.405   5.166   6.654
   50C       H5 1189   4.443   5.119   6.743
   50C       C4 1190   4.461   5.277   6.584
   50C       N4 1191   4.567   5.331   6.641
   50C      H41 1192   4.599   5.300   6.731
   50C      H42 1193   4.615   5.396   6.581
   50C       N3 1194   4.411   5.323   6.472
   50C       C2 1195   4.307   5.265   6.415
   50C       O2 1196   4.269   5.313   6.309
   50C      C3' 1197   4.108   4.876   6.428
   50C      H3' 1198   4.198   4.853   6.485
   50C      C2' 1199   4.124   5.003   6.343
   50C     H2'1 1200   4.224   5.004   6.300
   50C      O2' 1201   4.023   5.003   6.243
   50C     HO'2 1202   4.020   4.911   6.215
   50C      O3' 1203   4.067   4.765   6.348
   51U        P 1204   4.153   4.650   6.284
   51U      O1P 1205   4.054   4.589   6.186
   51U      O2P 1206   4.206   4.568   6.390
   51U      O5' 1207   4.271   4.730   6.210
   51U      C5' 1208   4.263   4.777   6.072
   51U     H5'1 1209   4.162   4.815   6.057
   51U     H5'2 1210   4.276   4.695   6.001
   51U      C4' 1211   4.371   4.877   6.044
   51U      H4' 1212   4.362   4.919   5.944
   51U      O4' 1213   4.376   4.987   6.132
   51U      C1' 1214   4.513   5.019   6.147
   51U      H1' 1215   4.523   5.119   6.105
   51U       N1 1216   4.554   5.019   6.296
   51U       C6 1217   4.508   4.921   6.379
   51U       H6 1218   4.429   4.858   6.341
   51U       C5 1219   4.554   4.904   6.499
   51U       H5 1220   4.517   4.825   6.563
   51U       C4 1221   4.664   4.991   6.549
   51U       O4 1222   4.723   4.968   6.654
   51U       N3 1223   4.696   5.099   6.469
   51U       H3 1224   4.775   5.157   6.493
   51U       C2 1225   4.641   5.117   6.340
   51U       O2 1226   4.670   5.213   6.272
   51U      C3' 1227   4.510   4.812   6.042
   51U      H3' 1228   4.513   4.745   6.128
   51U      C2' 1229   4.595   4.935   6.058
   51U     H2'1 1230   4.686   4.912   6.114
   51U      O2' 1231   4.626   5.000   5.939
   51U     HO'2 1232   4.721   4.988   5.938
   51U      O3' 1233   4.529   4.738   5.919
   52A        P 1234   4.649   4.639   5.903
   52A      O1P 1235   4.649   4.599   5.762
   52A      O2P 1236   4.634   4.533   6.002
   52A      O5' 1237   4.786   4.729   5.924
   52A      C5' 1238   4.828   4.802   5.803
   52A     H5'1 1239   4.737   4.846   5.763
   52A     H5'2 1240   4.862   4.729   5.729
   52A      C4' 1241   4.930   4.913   5.827
   52A      H4' 1242   4.938   4.977   5.739
   52A      O4' 1243   4.884   5.001   5.935
   52A      C1' 1244   5.001   5.034   6.012
   52A      H1' 1245   5.018   5.141   6.015
   52A       N9 1246   4.999   4.981   6.149
   52A       C8 1247   4.945   4.866   6.200
   52A       H8 1248   4.892   4.799   6.133
   52A       N7 1249   4.958   4.853   6.328
   52A       C5 1250   5.020   4.971   6.361
   52A       C6 1251   5.067   5.018   6.492
   52A       N6 1252   5.036   4.969   6.610
   52A      H61 1253   4.968   4.894   6.613
   52A      H62 1254   5.055   5.023   6.692
   52A       N1 1255   5.135   5.133   6.496
   52A       C2 1256   5.169   5.187   6.379
   52A       H2 1257   5.222   5.281   6.385
   52A       N3 1258   5.147   5.152   6.254
   52A       C4 1259   5.057   5.048   6.254
   52A      C3' 1260   5.063   4.856   5.877
   52A      H3' 1261   5.052   4.769   5.942
   52A      C2' 1262   5.125   4.979   5.948
   52A     H2'1 1263   5.203   4.945   6.016
   52A      O2' 1264   5.178   5.072   5.854
   52A     HO'2 1265   5.183   5.032   5.766
   52A      O3' 1266   5.131   4.819   5.762
   53C        P 1267   5.269   4.737   5.753
   53C      O1P 1268   5.317   4.762   5.615
   53C      O2P 1269   5.257   4.594   5.788
   53C      O5' 1270   5.367   4.799   5.860
   53C      C5' 1271   5.449   4.904   5.823
   53C     H5'1 1272   5.387   4.987   5.790
   53C     H5'2 1273   5.520   4.886   5.741
   53C      C4' 1274   5.534   4.965   5.934
   53C      H4' 1275   5.596   5.047   5.899
   53C      O4' 1276   5.450   5.008   6.039
   53C      C1' 1277   5.509   4.974   6.165
   53C      H1' 1278   5.518   5.067   6.220
   53C       N1 1279   5.412   4.885   6.247
   53C       C6 1280   5.341   4.777   6.199
   53C       H6 1281   5.349   4.766   6.092
   53C       C5 1282   5.264   4.704   6.277
   53C       H5 1283   5.214   4.622   6.228
   53C       C4 1284   5.262   4.737   6.413
   53C       N4 1285   5.208   4.654   6.499
   53C      H41 1286   5.160   4.568   6.476
   53C      H42 1287   5.212   4.694   6.591
   53C       N3 1288   5.323   4.840   6.468
   53C       C2 1289   5.401   4.911   6.379
   53C       O2 1290   5.471   5.005   6.426
   53C      C3' 1291   5.642   4.873   5.991
   53C      H3' 1292   5.601   4.772   5.986
   53C      C2' 1293   5.651   4.916   6.138
   53C     H2'1 1294   5.674   4.825   6.193
   53C      O2' 1295   5.740   5.021   6.165
   53C     HO'2 1296   5.831   4.994   6.149
   53C      O3' 1297   5.766   4.879   5.919
   54C        P 1298   5.867   4.763   5.880
   54C      O1P 1299   5.814   4.641   5.947
   54C      O2P 1300   6.002   4.825   5.914
   54C      O5' 1301   5.859   4.755   5.725
   54C      C5' 1302   5.737   4.733   5.667
   54C     H5'1 1303   5.660   4.725   5.743
   54C     H5'2 1304   5.739   4.644   5.603
   54C      C4' 1305   5.699   4.835   5.560
   54C      H4' 1306   5.608   4.800   5.511
   54C      O4' 1307   5.661   4.973   5.597
   54C      C1' 1308   5.717   5.066   5.501
   54C      H1' 1309   5.643   5.137   5.464
   54C       N1 1310   5.843   5.142   5.542
   54C       C6 1311   5.913   5.103   5.649
   54C       H6 1312   5.884   5.016   5.706
   54C       C5 1313   6.022   5.175   5.685
   54C       H5 1314   6.067   5.154   5.781
   54C       C4 1315   6.057   5.290   5.613
   54C       N4 1316   6.154   5.365   5.651
   54C      H41 1317   6.197   5.363   5.742
   54C      H42 1318   6.175   5.445   5.594
   54C       N3 1319   5.991   5.331   5.504
   54C       C2 1320   5.887   5.255   5.466
   54C       O2 1321   5.817   5.292   5.368
   54C      C3' 1322   5.802   4.852   5.448
   54C      H3' 1323   5.900   4.867   5.494
   54C      C2' 1324   5.754   4.978   5.378
   54C     H2'1 1325   5.837   5.027   5.327
   54C      O2' 1326   5.638   4.960   5.297
   54C     HO'2 1327   5.673   4.893   5.238
   54C      O3' 1328   5.803   4.743   5.350
   55A        P 1329   5.925   4.710   5.252
   55A      O1P 1330   5.893   4.587   5.176
   55A      O2P 1331   6.054   4.722   5.330
   55A      O5' 1332   5.915   4.840   5.152
   55A      C5' 1333   5.823   4.849   5.045
   55A     H5'1 1334   5.724   4.835   5.087
   55A     H5'2 1335   5.840   4.765   4.978
   55A      C4' 1336   5.838   4.994   4.980
   55A      H4' 1337   5.750   5.014   4.919
   55A      O4' 1338   5.831   5.090   5.084
   55A      C1' 1339   5.919   5.196   5.047
   55A      H1' 1340   5.872   5.294   5.053
   55A       N9 1341   6.039   5.202   5.136
   55A       C8 1342   6.075   5.120   5.235
   55A       H8 1343   6.032   5.023   5.255
   55A       N7 1344   6.181   5.153   5.304
   55A       C5 1345   6.217   5.275   5.243
   55A       C6 1346   6.307   5.372   5.278
   55A       N6 1347   6.391   5.352   5.378
   55A      H61 1348   6.393   5.257   5.414
   55A      H62 1349   6.459   5.420   5.408
   55A       N1 1350   6.311   5.486   5.212
   55A       C2 1351   6.221   5.501   5.114
   55A       H2 1352   6.228   5.595   5.061
   55A       N3 1353   6.125   5.425   5.075
   55A       C4 1354   6.130   5.309   5.148
   55A      C3' 1355   5.963   5.021   4.893
   55A      H3' 1356   6.054   4.982   4.939
   55A      C2' 1357   5.958   5.175   4.897
   55A     H2'1 1358   6.056   5.218   4.875
   55A      O2' 1359   5.854   5.228   4.819
   55A     HO'2 1360   5.885   5.226   4.728
   55A      O3' 1361   5.946   4.981   4.756
   56A        P 1362   6.059   4.925   4.664
   56A      O1P 1363   5.985   4.877   4.542
   56A      O2P 1364   6.133   4.830   4.752
   56A      O5' 1365   6.149   5.053   4.625
   56A      C5' 1366   6.101   5.154   4.535
   56A     H5'1 1367   5.996   5.176   4.554
   56A     H5'2 1368   6.104   5.115   4.433
   56A      C4' 1369   6.185   5.283   4.530
   56A      H4' 1370   6.156   5.351   4.450
   56A      O4' 1371   6.182   5.338   4.665
   56A      C1' 1372   6.303   5.406   4.693
   56A      H1' 1373   6.295   5.513   4.708
   56A       N9 1374   6.380   5.341   4.802
   56A       C8 1375   6.375   5.208   4.857
   56A       H8 1376   6.325   5.126   4.806
   56A       N7 1377   6.441   5.199   4.969
   56A       C5 1378   6.489   5.321   4.998
   56A       C6 1379   6.585   5.370   5.087
   56A       N6 1380   6.641   5.301   5.182
   56A      H61 1381   6.596   5.215   5.210
   56A      H62 1382   6.697   5.351   5.249
   56A       N1 1383   6.639   5.490   5.077
   56A       C2 1384   6.587   5.567   4.977
   56A       H2 1385   6.629   5.666   4.971
   56A       N3 1386   6.499   5.535   4.884
   56A       C4 1387   6.457   5.410   4.896
   56A      C3' 1388   6.333   5.258   4.504
   56A      H3' 1389   6.349   5.168   4.563
   56A      C2' 1390   6.384   5.392   4.557
   56A     H2'1 1391   6.491   5.380   4.573
   56A      O2' 1392   6.365   5.504   4.470
   56A     HO'2 1393   6.392   5.582   4.518
   56A      O3' 1394   6.369   5.241   4.369
   57G        P 1395   6.513   5.182   4.341
   57G      O1P 1396   6.521   5.146   4.195
   57G      O2P 1397   6.533   5.065   4.431
   57G      O5' 1398   6.631   5.285   4.368
   57G      C5' 1399   6.649   5.403   4.292
   57G     H5'1 1400   6.550   5.445   4.272
   57G     H5'2 1401   6.700   5.375   4.200
   57G      C4' 1402   6.736   5.510   4.361
   57G      H4' 1403   6.740   5.605   4.309
   57G      O4' 1404   6.697   5.548   4.491
   57G      C1' 1405   6.810   5.555   4.579
   57G      H1' 1406   6.817   5.654   4.624
   57G       N9 1407   6.815   5.450   4.678
   57G       C8 1408   6.758   5.330   4.670
   57G       H8 1409   6.684   5.311   4.593
   57G       N7 1410   6.785   5.257   4.775
   57G       C5 1411   6.871   5.332   4.854
   57G       C6 1412   6.935   5.301   4.979
   57G       O6 1413   6.929   5.201   5.042
   57G       N1 1414   7.014   5.406   5.024
   57G       H1 1415   7.070   5.393   5.107
   57G       C2 1416   7.017   5.532   4.963
   57G       N2 1417   7.098   5.621   5.010
   57G      H21 1418   7.166   5.598   5.081
   57G      H22 1419   7.102   5.714   4.971
   57G       N3 1420   6.959   5.557   4.847
   57G       C4 1421   6.881   5.457   4.799
   57G      C3' 1422   6.883   5.468   4.364
   57G      H3' 1423   6.884   5.362   4.392
   57G      C2' 1424   6.934   5.546   4.476
   57G     H2'1 1425   7.016   5.492   4.524
   57G      O2' 1426   6.964   5.678   4.436
   57G     HO'2 1427   7.022   5.672   4.360
   57G      O3' 1428   6.949   5.484   4.243
   58A        P 1429   7.064   5.386   4.202
   58A      O1P 1430   7.116   5.416   4.067
   58A      O2P 1431   7.016   5.251   4.223
   58A      O5' 1432   7.184   5.405   4.313
   58A      C5' 1433   7.260   5.528   4.299
   58A     H5'1 1434   7.191   5.608   4.275
   58A     H5'2 1435   7.335   5.515   4.221
   58A      C4' 1436   7.316   5.581   4.435
   58A      H4' 1437   7.344   5.685   4.422
   58A      O4' 1438   7.228   5.563   4.539
   58A      C1' 1439   7.292   5.514   4.654
   58A      H1' 1440   7.267   5.583   4.734
   58A       N9 1441   7.249   5.382   4.698
   58A       C8 1442   7.182   5.285   4.629
   58A       H8 1443   7.141   5.292   4.529
   58A       N7 1444   7.157   5.177   4.701
   58A       C5 1445   7.219   5.207   4.819
   58A       C6 1446   7.235   5.133   4.940
   58A       N6 1447   7.179   5.016   4.959
   58A      H61 1448   7.118   4.989   4.883
   58A      H62 1449   7.206   4.966   5.042
   58A       N1 1450   7.310   5.175   5.041
   58A       C2 1451   7.360   5.295   5.028
   58A       H2 1452   7.411   5.329   5.117
   58A       N3 1453   7.344   5.381   4.924
   58A       C4 1454   7.274   5.326   4.824
   58A      C3' 1455   7.442   5.495   4.472
   58A      H3' 1456   7.430   5.387   4.461
   58A      C2' 1457   7.448   5.516   4.618
   58A     H2'1 1458   7.501   5.448   4.685
   58A      O2' 1459   7.488   5.648   4.644
   58A     HO'2 1460   7.476   5.655   4.739
   58A      O3' 1461   7.562   5.540   4.402
   59G        P 1462   7.677   5.439   4.371
   59G      O1P 1463   7.780   5.519   4.304
   59G      O2P 1464   7.623   5.316   4.300
   59G      O5' 1465   7.729   5.398   4.522
   59G      C5' 1466   7.825   5.476   4.591
   59G     H5'1 1467   7.800   5.581   4.600
   59G     H5'2 1468   7.915   5.477   4.528
   59G      C4' 1469   7.834   5.415   4.729
   59G      H4' 1470   7.885   5.490   4.788
   59G      O4' 1471   7.705   5.389   4.790
   59G      C1' 1472   7.720   5.266   4.865
   59G      H1' 1473   7.690   5.262   4.969
   59G       N9 1474   7.644   5.150   4.801
   59G       C8 1475   7.571   5.141   4.686
   59G       H8 1476   7.562   5.220   4.613
   59G       N7 1477   7.495   5.035   4.679
   59G       C5 1478   7.520   4.965   4.797
   59G       C6 1479   7.458   4.854   4.860
   59G       O6 1480   7.361   4.786   4.826
   59G       N1 1481   7.522   4.816   4.980
   59G       H1 1482   7.483   4.731   5.018
   59G       C2 1483   7.623   4.893   5.040
   59G       N2 1484   7.691   4.838   5.139
   59G      H21 1485   7.658   4.750   5.177
   59G      H22 1486   7.769   4.886   5.181
   59G       N3 1487   7.668   5.009   4.995
   59G       C4 1488   7.621   5.035   4.870
   59G      C3' 1489   7.908   5.281   4.720
   59G      H3' 1490   7.858   5.216   4.648
   59G      C2' 1491   7.870   5.234   4.858
   59G     H2'1 1492   7.882   5.126   4.867
   59G      O2' 1493   7.945   5.300   4.960
   59G     HO'2 1494   7.898   5.282   5.041
   59G      O3' 1495   8.048   5.285   4.695
   60C        P 1496   8.122   5.185   4.605
   60C      O1P 1497   8.248   5.244   4.558
   60C      O2P 1498   8.020   5.152   4.504
   60C      O5' 1499   8.151   5.052   4.698
   60C      C5' 1500   8.221   5.059   4.821
   60C     H5'1 1501   8.199   5.152   4.873
   60C     H5'2 1502   8.329   5.063   4.804
   60C      C4' 1503   8.185   4.952   4.917
   60C      H4' 1504   8.246   4.956   5.007
   60C      O4' 1505   8.047   4.949   4.949
   60C      C1' 1506   7.997   4.812   4.954
   60C      H1' 1507   7.940   4.796   5.045
   60C       N1 1508   7.899   4.778   4.845
   60C       C6 1509   7.885   4.857   4.734
   60C       H6 1510   7.942   4.947   4.716
   60C       C5 1511   7.780   4.829   4.642
   60C       H5 1512   7.757   4.899   4.563
   60C       C4 1513   7.710   4.712   4.667
   60C       N4 1514   7.608   4.689   4.589
   60C      H41 1515   7.595   4.749   4.509
   60C      H42 1516   7.555   4.604   4.604
   60C       N3 1517   7.734   4.627   4.767
   60C       C2 1518   7.828   4.660   4.858
   60C       O2 1519   7.864   4.577   4.943
   60C      C3' 1520   8.219   4.821   4.852
   60C      H3' 1521   8.190   4.815   4.747
   60C      C2' 1522   8.127   4.730   4.936
   60C     H2'1 1523   8.107   4.635   4.886
   60C      O2' 1524   8.172   4.707   5.064
   60C     HO'2 1525   8.265   4.732   5.068
   60C      O3' 1526   8.361   4.789   4.881
   61C        P 1527   8.452   4.729   4.772
   61C      O1P 1528   8.585   4.746   4.828
   61C      O2P 1529   8.417   4.800   4.650
   61C      O5' 1530   8.416   4.575   4.771
   61C      C5' 1531   8.445   4.491   4.885
   61C     H5'1 1532   8.430   4.554   4.972
   61C     H5'2 1533   8.549   4.459   4.875
   61C      C4' 1534   8.364   4.366   4.895
   61C      H4' 1535   8.398   4.305   4.979
   61C      O4' 1536   8.220   4.393   4.908
   61C      C1' 1537   8.148   4.288   4.851
   61C      H1' 1538   8.081   4.253   4.929
   61C       N1 1539   8.066   4.341   4.736
   61C       C6 1540   8.095   4.457   4.671
   61C       H6 1541   8.179   4.518   4.701
   61C       C5 1542   8.015   4.494   4.570
   61C       H5 1543   8.028   4.589   4.520
   61C       C4 1544   7.900   4.421   4.538
   61C       N4 1545   7.815   4.478   4.460
   61C      H41 1546   7.843   4.561   4.410
   61C      H42 1547   7.726   4.432   4.449
   61C       N3 1548   7.865   4.317   4.607
   61C       C2 1549   7.954   4.269   4.696
   61C       O2 1550   7.922   4.167   4.755
   61C      C3' 1551   8.370   4.275   4.769
   61C      H3' 1552   8.353   4.336   4.680
   61C      C2' 1553   8.241   4.185   4.801
   61C     H2'1 1554   8.204   4.130   4.714
   61C      O2' 1555   8.275   4.094   4.911
   61C     HO'2 1556   8.200   4.059   4.959
   61C      O3' 1557   8.493   4.206   4.754
   62U        P 1558   8.556   4.189   4.610
   62U      O1P 1559   8.687   4.124   4.631
   62U      O2P 1560   8.557   4.319   4.541
   62U      O5' 1561   8.467   4.092   4.526
   62U      C5' 1562   8.423   3.966   4.584
   62U     H5'1 1563   8.336   3.991   4.645
   62U     H5'2 1564   8.501   3.932   4.652
   62U      C4' 1565   8.397   3.848   4.491
   62U      H4' 1566   8.392   3.764   4.560
   62U      O4' 1567   8.285   3.869   4.410
   62U      C1' 1568   8.329   3.841   4.279
   62U      H1' 1569   8.335   3.733   4.263
   62U       N1 1570   8.230   3.902   4.186
   62U       C6 1571   8.259   4.009   4.105
   62U       H6 1572   8.357   4.055   4.110
   62U       C5 1573   8.170   4.061   4.018
   62U       H5 1574   8.189   4.155   3.969
   62U       C4 1575   8.045   4.002   4.005
   62U       O4 1576   7.969   4.038   3.915
   62U       N3 1577   8.012   3.902   4.093
   62U       H3 1578   7.921   3.859   4.093
   62U       C2 1579   8.101   3.840   4.174
   62U       O2 1580   8.079   3.737   4.233
   62U      C3' 1581   8.520   3.837   4.408
   62U      H3' 1582   8.604   3.897   4.443
   62U      C2' 1583   8.468   3.901   4.276
   62U     H2'1 1584   8.470   4.008   4.294
   62U      O2' 1585   8.547   3.881   4.160
   62U     HO'2 1586   8.631   3.926   4.171
   62U      O3' 1587   8.562   3.700   4.376
   63U        P 1588   8.617   3.603   4.484
   63U      O1P 1589   8.649   3.685   4.604
   63U      O2P 1590   8.720   3.519   4.414
   63U      O5' 1591   8.495   3.510   4.521
   63U      C5' 1592   8.449   3.490   4.656
   63U     H5'1 1593   8.396   3.583   4.674
   63U     H5'2 1594   8.540   3.460   4.708
   63U      C4' 1595   8.346   3.375   4.655
   63U      H4' 1596   8.317   3.345   4.755
   63U      O4' 1597   8.233   3.420   4.599
   63U      C1' 1598   8.166   3.313   4.525
   63U      H1' 1599   8.081   3.279   4.584
   63U       N1 1600   8.124   3.364   4.394
   63U       C6 1601   8.219   3.416   4.306
   63U       H6 1602   8.326   3.418   4.324
   63U       C5 1603   8.176   3.459   4.184
   63U       H5 1604   8.249   3.491   4.111
   63U       C4 1605   8.035   3.453   4.140
   63U       O4 1606   7.993   3.485   4.026
   63U       N3 1607   7.954   3.407   4.240
   63U       H3 1608   7.854   3.408   4.224
   63U       C2 1609   7.990   3.355   4.362
   63U       O2 1610   7.908   3.305   4.438
   63U      C3' 1611   8.393   3.243   4.592
   63U      H3' 1612   8.474   3.262   4.521
   63U      C2' 1613   8.267   3.197   4.522
   63U     H2'1 1614   8.289   3.172   4.418
   63U      O2' 1615   8.205   3.079   4.586
   63U     HO'2 1616   8.261   3.059   4.661
   63U      O3' 1617   8.440   3.149   4.699
   64A        P 1618   8.588   3.173   4.764
   64A      O1P 1619   8.668   3.233   4.655
   64A      O2P 1620   8.635   3.060   4.837
   64A      O5' 1621   8.564   3.286   4.874
   64A      C5' 1622   8.481   3.251   4.987
   64A     H5'1 1623   8.521   3.171   5.049
   64A     H5'2 1624   8.390   3.212   4.942
   64A      C4' 1625   8.446   3.378   5.063
   64A      H4' 1626   8.534   3.405   5.121
   64A      O4' 1627   8.415   3.486   4.976
   64A      C1' 1628   8.339   3.573   5.051
   64A      H1' 1629   8.399   3.663   5.064
   64A       N9 1630   8.229   3.605   4.957
   64A       C8 1631   8.222   3.721   4.886
   64A       H8 1632   8.282   3.808   4.908
   64A       N7 1633   8.144   3.715   4.782
   64A       C5 1634   8.080   3.588   4.804
   64A       C6 1635   7.979   3.521   4.731
   64A       N6 1636   7.917   3.567   4.623
   64A      H61 1637   7.945   3.655   4.582
   64A      H62 1638   7.844   3.514   4.578
   64A       N1 1639   7.935   3.399   4.771
   64A       C2 1640   7.994   3.350   4.875
   64A       H2 1641   7.959   3.250   4.899
   64A       N3 1642   8.096   3.399   4.949
   64A       C4 1643   8.132   3.523   4.912
   64A      C3' 1644   8.352   3.378   5.179
   64A      H3' 1645   8.268   3.313   5.153
   64A      C2' 1646   8.297   3.523   5.184
   64A     H2'1 1647   8.189   3.520   5.198
   64A      O2' 1648   8.368   3.599   5.278
   64A     HO'2 1649   8.307   3.629   5.346
   64A      O3' 1650   8.417   3.335   5.293
   65A        P 1651   8.341   3.237   5.391
   65A      O1P 1652   8.434   3.198   5.499
   65A      O2P 1653   8.271   3.129   5.314
   65A      O5' 1654   8.220   3.336   5.448
   65A      C5' 1655   8.245   3.418   5.556
   65A     H5'1 1656   8.344   3.464   5.550
   65A     H5'2 1657   8.233   3.356   5.645
   65A      C4' 1658   8.130   3.516   5.562
   65A      H4' 1659   8.160   3.583   5.642
   65A      O4' 1660   8.123   3.599   5.447
   65A      C1' 1661   7.983   3.630   5.428
   65A      H1' 1662   7.942   3.698   5.502
   65A       N9 1663   7.948   3.679   5.292
   65A       C8 1664   7.884   3.618   5.188
   65A       H8 1665   7.848   3.516   5.187
   65A       N7 1666   7.872   3.684   5.078
   65A       C5 1667   7.942   3.801   5.109
   65A       C6 1668   7.971   3.921   5.037
   65A       N6 1669   7.941   3.941   4.911
   65A      H61 1670   7.881   3.870   4.871
   65A      H62 1671   7.945   4.037   4.880
   65A       N1 1672   8.034   4.025   5.095
   65A       C2 1673   8.060   4.016   5.225
   65A       H2 1674   8.107   4.101   5.271
   65A       N3 1675   8.045   3.915   5.303
   65A       C4 1676   7.986   3.804   5.243
   65A      C3' 1677   7.987   3.469   5.592
   65A      H3' 1678   7.978   3.363   5.616
   65A      C2' 1679   7.927   3.493   5.453
   65A     H2'1 1680   7.965   3.421   5.379
   65A      O2' 1681   7.785   3.476   5.461
   65A     HO'2 1682   7.755   3.482   5.552
   65A      O3' 1683   7.946   3.551   5.703
   66A        P 1684   7.820   3.508   5.797
   66A      O1P 1685   7.865   3.395   5.876
   66A      O2P 1686   7.698   3.495   5.716
   66A      O5' 1687   7.793   3.621   5.908
   66A      C5' 1688   7.709   3.728   5.888
   66A     H5'1 1689   7.657   3.751   5.981
   66A     H5'2 1690   7.639   3.707   5.807
   66A      C4' 1691   7.789   3.858   5.854
   66A      H4' 1692   7.854   3.876   5.939
   66A      O4' 1693   7.865   3.848   5.728
   66A      C1' 1694   7.862   3.980   5.664
   66A      H1' 1695   7.964   4.018   5.659
   66A       N9 1696   7.784   3.965   5.544
   66A       C8 1697   7.693   3.868   5.509
   66A       H8 1698   7.685   3.778   5.568
   66A       N7 1699   7.622   3.890   5.398
   66A       C5 1700   7.679   4.010   5.352
   66A       C6 1701   7.657   4.099   5.249
   66A       N6 1702   7.575   4.084   5.151
   66A      H61 1703   7.532   3.993   5.138
   66A      H62 1704   7.563   4.157   5.082
   66A       N1 1705   7.715   4.216   5.244
   66A       C2 1706   7.806   4.253   5.335
   66A       H2 1707   7.849   4.351   5.328
   66A       N3 1708   7.834   4.181   5.442
   66A       C4 1709   7.777   4.060   5.441
   66A      C3' 1710   7.701   3.982   5.840
   66A      H3' 1711   7.614   3.964   5.776
   66A      C2' 1712   7.804   4.074   5.774
   66A     H2'1 1713   7.749   4.161   5.739
   66A      O2' 1714   7.913   4.106   5.862
   66A     HO'2 1715   7.885   4.159   5.937
   66A      O3' 1716   7.642   4.022   5.965
   67C        P 1717   7.514   4.112   5.968
   67C      O1P 1718   7.510   4.168   6.100
   67C      O2P 1719   7.402   4.035   5.918
   67C      O5' 1720   7.538   4.231   5.866
   67C      C5' 1721   7.483   4.230   5.730
   67C     H5'1 1722   7.374   4.232   5.731
   67C     H5'2 1723   7.512   4.129   5.700
   67C      C4' 1724   7.528   4.341   5.639
   67C      H4' 1725   7.636   4.353   5.650
   67C      O4' 1726   7.506   4.321   5.508
   67C      C1' 1727   7.523   4.445   5.447
   67C      H1' 1728   7.625   4.450   5.409
   67C       N1 1729   7.434   4.476   5.330
   67C       C6 1730   7.299   4.443   5.334
   67C       H6 1731   7.261   4.380   5.413
   67C       C5 1732   7.215   4.498   5.242
   67C       H5 1733   7.109   4.482   5.250
   67C       C4 1734   7.273   4.584   5.143
   67C       N4 1735   7.199   4.644   5.045
   67C      H41 1736   7.103   4.619   5.030
   67C      H42 1737   7.250   4.711   4.989
   67C       N3 1738   7.402   4.608   5.133
   67C       C2 1739   7.482   4.546   5.223
   67C       O2 1740   7.599   4.575   5.215
   67C      C3' 1741   7.475   4.483   5.687
   67C      H3' 1742   7.371   4.470   5.717
   67C      C2' 1743   7.498   4.558   5.558
   67C     H2'1 1744   7.414   4.622   5.533
   67C      O2' 1745   7.612   4.635   5.560
   67C     HO'2 1746   7.620   4.673   5.648
   67C      O3' 1747   7.557   4.531   5.795
   68U        P 1748   7.498   4.649   5.899
   68U      O1P 1749   7.563   4.635   6.033
   68U      O2P 1750   7.350   4.647   5.896
   68U      O5' 1751   7.556   4.782   5.826
   68U      C5' 1752   7.675   4.855   5.857
   68U     H5'1 1753   7.757   4.786   5.836
   68U     H5'2 1754   7.664   4.879   5.962
   68U      C4' 1755   7.708   4.969   5.763
   68U      H4' 1756   7.812   4.997   5.778
   68U      O4' 1757   7.684   4.924   5.630
   68U      C1' 1758   7.652   5.041   5.552
   68U      H1' 1759   7.733   5.040   5.479
   68U       N1 1760   7.524   5.013   5.477
   68U       C6 1761   7.443   4.906   5.504
   68U       H6 1762   7.474   4.847   5.589
   68U       C5 1763   7.331   4.879   5.433
   68U       H5 1764   7.263   4.802   5.467
   68U       C4 1765   7.298   4.942   5.314
   68U       O4 1766   7.215   4.906   5.236
   68U       N3 1767   7.385   5.048   5.289
   68U       H3 1768   7.376   5.078   5.193
   68U       C2 1769   7.500   5.079   5.356
   68U       O2 1770   7.575   5.166   5.308
   68U      C3' 1771   7.616   5.090   5.773
   68U      H3' 1772   7.515   5.050   5.768
   68U      C2' 1773   7.653   5.155   5.640
   68U     H2'1 1774   7.580   5.229   5.608
   68U      O2' 1775   7.784   5.203   5.634
   68U     HO'2 1776   7.805   5.261   5.707
   68U      O3' 1777   7.631   5.178   5.882
   69C        P 1778   7.506   5.264   5.935
   69C      O1P 1779   7.559   5.315   6.065
   69C      O2P 1780   7.386   5.177   5.933
   69C      O5' 1781   7.477   5.385   5.832
   69C      C5' 1782   7.571   5.490   5.823
   69C     H5'1 1783   7.665   5.437   5.809
   69C     H5'2 1784   7.587   5.560   5.905
   69C      C4' 1785   7.537   5.573   5.691
   69C      H4' 1786   7.620   5.641   5.671
   69C      O4' 1787   7.522   5.487   5.583
   69C      C1' 1788   7.461   5.544   5.468
   69C      H1' 1789   7.537   5.555   5.390
   69C       N1 1790   7.347   5.453   5.430
   69C       C6 1791   7.317   5.347   5.513
   69C       H6 1792   7.373   5.323   5.602
   69C       C5 1793   7.215   5.264   5.483
   69C       H5 1794   7.186   5.179   5.543
   69C       C4 1795   7.145   5.293   5.360
   69C       N4 1796   7.036   5.226   5.325
   69C      H41 1797   7.021   5.137   5.371
   69C      H42 1798   6.994   5.246   5.235
   69C       N3 1799   7.181   5.395   5.280
   69C       C2 1800   7.285   5.477   5.313
   69C       O2 1801   7.310   5.572   5.237
   69C      C3' 1802   7.407   5.654   5.677
   69C      H3' 1803   7.322   5.588   5.694
   69C      C2' 1804   7.414   5.685   5.528
   69C     H2'1 1805   7.322   5.729   5.489
   69C      O2' 1806   7.512   5.782   5.496
   69C     HO'2 1807   7.494   5.802   5.404
   69C      O3' 1808   7.403   5.774   5.757
   70U        P 1809   7.264   5.844   5.777
   70U      O1P 1810   7.278   5.971   5.850
   70U      O2P 1811   7.169   5.739   5.820
   70U      O5' 1812   7.214   5.888   5.634
   70U      C5' 1813   7.269   6.001   5.565
   70U     H5'1 1814   7.377   5.998   5.548
   70U     H5'2 1815   7.252   6.096   5.616
   70U      C4' 1816   7.204   6.011   5.427
   70U      H4' 1817   7.259   6.078   5.361
   70U      O4' 1818   7.194   5.885   5.366
   70U      C1' 1819   7.073   5.874   5.288
   70U      H1' 1820   7.095   5.856   5.182
   70U       N1 1821   6.990   5.759   5.329
   70U       C6 1822   7.019   5.687   5.440
   70U       H6 1823   7.099   5.725   5.502
   70U       C5 1824   6.954   5.574   5.468
   70U       H5 1825   6.987   5.518   5.554
   70U       C4 1826   6.850   5.524   5.380
   70U       O4 1827   6.790   5.419   5.390
   70U       N3 1828   6.822   5.608   5.272
   70U       H3 1829   6.773   5.568   5.193
   70U       C2 1830   6.884   5.724   5.241
   70U       O2 1831   6.847   5.784   5.140
   70U      C3' 1832   7.058   6.060   5.440
   70U      H3' 1833   7.009   6.013   5.525
   70U      C2' 1834   7.007   6.008   5.302
   70U     H2'1 1835   6.900   5.991   5.310
   70U      O2' 1836   7.046   6.090   5.193
   70U     HO'2 1837   6.977   6.084   5.126
   70U      O3' 1838   7.032   6.201   5.447
   71U        P 1839   6.901   6.260   5.520
   71U      O1P 1840   6.919   6.406   5.544
   71U      O2P 1841   6.880   6.179   5.640
   71U      O5' 1842   6.778   6.232   5.419
   71U      C5' 1843   6.777   6.293   5.292
   71U     H5'1 1844   6.880   6.280   5.259
   71U     H5'2 1845   6.751   6.398   5.305
   71U      C4' 1846   6.678   6.229   5.194
   71U      H4' 1847   6.687   6.276   5.096
   71U      O4' 1848   6.705   6.094   5.182
   71U      C1' 1849   6.585   6.022   5.164
   71U      H1' 1850   6.566   5.984   5.063
   71U       N1 1851   6.571   5.901   5.256
   71U       C6 1852   6.641   5.898   5.381
   71U       H6 1853   6.699   5.984   5.410
   71U       C5 1854   6.634   5.792   5.468
   71U       H5 1855   6.694   5.782   5.557
   71U       C4 1856   6.543   5.685   5.435
   71U       O4 1857   6.523   5.589   5.501
   71U       N3 1858   6.478   5.695   5.314
   71U       H3 1859   6.423   5.615   5.285
   71U       C2 1860   6.495   5.793   5.215
   71U       O2 1861   6.440   5.788   5.100
   71U      C3' 1862   6.538   6.227   5.264
   71U      H3' 1863   6.552   6.212   5.371
   71U      C2' 1864   6.463   6.112   5.199
   71U     H2'1 1865   6.403   6.074   5.282
   71U      O2' 1866   6.391   6.146   5.084
   71U     HO'2 1867   6.314   6.201   5.102
   71U      O3' 1868   6.466   6.354   5.236
   72G        P 1869   6.356   6.408   5.327
   72G      O1P 1870   6.335   6.550   5.283
   72G      O2P 1871   6.397   6.383   5.466
   72G      O5' 1872   6.225   6.327   5.287
   72G      C5' 1873   6.143   6.361   5.170
   72G     H5'1 1874   6.204   6.378   5.081
   72G     H5'2 1875   6.108   6.463   5.184
   72G      C4' 1876   6.023   6.278   5.136
   72G      H4' 1877   5.959   6.320   5.058
   72G      O4' 1878   6.070   6.148   5.098
   72G      C1' 1879   5.989   6.046   5.161
   72G      H1' 1880   5.957   5.972   5.088
   72G       N9 1881   6.062   5.969   5.262
   72G       C8 1882   6.156   6.013   5.349
   72G       H8 1883   6.181   6.117   5.361
   72G       N7 1884   6.204   5.913   5.424
   72G       C5 1885   6.127   5.800   5.390
   72G       C6 1886   6.118   5.668   5.451
   72G       O6 1887   6.182   5.622   5.546
   72G       N1 1888   6.031   5.585   5.379
   72G       H1 1889   6.026   5.486   5.399
   72G       C2 1890   5.950   5.626   5.284
   72G       N2 1891   5.860   5.548   5.235
   72G      H21 1892   5.836   5.454   5.265
   72G      H22 1893   5.802   5.591   5.164
   72G       N3 1894   5.945   5.751   5.235
   72G       C4 1895   6.042   5.835   5.291
   72G      C3' 1896   5.934   6.257   5.253
   72G      H3' 1897   5.996   6.248   5.342
   72G      C2' 1898   5.872   6.118   5.219
   72G     H2'1 1899   5.848   6.067   5.312
   72G      O2' 1900   5.761   6.117   5.134
   72G     HO'2 1901   5.691   6.159   5.184
   72G      O3' 1902   5.828   6.359   5.263
   73A        P 1903   5.739   6.361   5.389
   73A      O1P 1904   5.656   6.479   5.376
   73A      O2P 1905   5.810   6.331   5.517
   73A      O5' 1906   5.645   6.233   5.355
   73A      C5' 1907   5.513   6.224   5.403
   73A     H5'1 1908   5.457   6.305   5.357
   73A     H5'2 1909   5.501   6.234   5.511
   73A      C4' 1910   5.451   6.083   5.365
   73A      H4' 1911   5.440   6.069   5.257
   73A      O4' 1912   5.524   5.983   5.429
   73A      C1' 1913   5.443   5.876   5.474
   73A      H1' 1914   5.460   5.783   5.420
   73A       N9 1915   5.458   5.847   5.611
   73A       C8 1916   5.553   5.898   5.700
   73A       H8 1917   5.622   5.978   5.678
   73A       N7 1918   5.562   5.834   5.812
   73A       C5 1919   5.471   5.729   5.793
   73A       C6 1920   5.431   5.619   5.872
   73A       N6 1921   5.486   5.597   5.994
   73A      H61 1922   5.554   5.664   6.026
   73A      H62 1923   5.491   5.508   6.041
   73A       N1 1924   5.340   5.530   5.833
   73A       C2 1925   5.291   5.547   5.708
   73A       H2 1926   5.219   5.474   5.674
   73A       N3 1927   5.315   5.649   5.624
   73A       C4 1928   5.407   5.737   5.673
   73A      C3' 1929   5.314   6.073   5.435
   73A      H3' 1930   5.331   6.110   5.536
   73A      C2' 1931   5.300   5.926   5.445
   73A     H2'1 1932   5.226   5.897   5.519
   73A      O2' 1933   5.256   5.886   5.318
   73A     HO'2 1934   5.204   5.961   5.288
   73A      O3' 1935   5.206   6.135   5.363
   74U        P 1936   5.113   6.243   5.442
   74U      O1P 1937   5.015   6.288   5.346
   74U      O2P 1938   5.193   6.339   5.518
   74U      O5' 1939   5.036   6.143   5.537
   74U      C5' 1940   4.937   6.051   5.494
   74U     H5'1 1941   4.952   6.002   5.398
   74U     H5'2 1942   4.851   6.115   5.473
   74U      C4' 1943   4.899   5.949   5.596
   74U      H4' 1944   4.834   5.871   5.555
   74U      O4' 1945   5.017   5.882   5.644
   74U      C1' 1946   4.994   5.834   5.774
   74U      H1' 1947   4.987   5.725   5.776
   74U       N1 1948   5.101   5.877   5.863
   74U       C6 1949   5.164   5.996   5.845
   74U       H6 1950   5.132   6.059   5.763
   74U       C5 1951   5.265   6.034   5.931
   74U       H5 1952   5.323   6.122   5.909
   74U       C4 1953   5.312   5.949   6.034
   74U       O4 1954   5.411   5.966   6.106
   74U       N3 1955   5.239   5.833   6.052
   74U       H3 1956   5.261   5.780   6.135
   74U       C2 1957   5.139   5.791   5.966
   74U       O2 1958   5.075   5.692   5.995
   74U      C3' 1959   4.841   6.013   5.719
   74U      H3' 1960   4.894   6.102   5.751
   74U      C2' 1961   4.864   5.901   5.819
   74U     H2'1 1962   4.879   5.950   5.915
   74U      O2' 1963   4.756   5.814   5.808
   74U     HO'2 1964   4.676   5.867   5.810
   74U      O3' 1965   4.702   6.037   5.697
   75U        P 1966   4.605   6.116   5.800
   75U      O1P 1967   4.491   6.169   5.721
   75U      O2P 1968   4.680   6.201   5.897
   75U      O5' 1969   4.549   5.994   5.892
   75U      C5' 1970   4.459   5.888   5.845
   75U     H5'1 1971   4.498   5.843   5.753
   75U     H5'2 1972   4.363   5.935   5.826
   75U      C4' 1973   4.448   5.775   5.952
   75U      H4' 1974   4.410   5.688   5.898
   75U      O4' 1975   4.568   5.724   5.988
   75U      C1' 1976   4.593   5.722   6.131
   75U      H1' 1977   4.611   5.622   6.170
   75U       N1 1978   4.715   5.808   6.166
   75U       C6 1979   4.717   5.944   6.141
   75U       H6 1980   4.626   5.991   6.108
   75U       C5 1981   4.818   6.023   6.194
   75U       H5 1982   4.803   6.129   6.198
   75U       C4 1983   4.933   5.952   6.257
   75U       O4 1984   5.032   6.006   6.293
   75U       N3 1985   4.925   5.817   6.266
   75U       H3 1986   5.000   5.762   6.306
   75U       C2 1987   4.826   5.742   6.222
   75U       O2 1988   4.833   5.618   6.239
   75U      C3' 1989   4.379   5.819   6.082
   75U      H3' 1990   4.372   5.927   6.078
   75U      C2' 1991   4.474   5.775   6.202
   75U     H2'1 1992   4.496   5.865   6.258
   75U      O2' 1993   4.437   5.677   6.296
   75U     HO'2 1994   4.352   5.685   6.339
   75U      O3' 1995   4.258   5.752   6.080
   76A        P 1996   4.141   5.812   6.162
   76A      O1P 1997   4.018   5.735   6.122
   76A      O2P 1998   4.148   5.958   6.137
   76A      O5' 1999   4.159   5.778   6.319
   76A      C5' 2000   4.107   5.658   6.383
   76A     H5'1 2001   4.166   5.570   6.357
   76A     H5'2 2002   4.001   5.644   6.363
   76A      C4' 2003   4.133   5.685   6.531
   76A      H4' 2004   4.111   5.596   6.591
   76A      O4' 2005   4.265   5.737   6.559
   76A      C1' 2006   4.255   5.835   6.662
   76A      H1' 2007   4.324   5.806   6.741
   76A       N9 2008   4.294   5.971   6.608
   76A       C8 2009   4.328   6.005   6.484
   76A       H8 2010   4.332   5.933   6.403
   76A       N7 2011   4.348   6.129   6.464
   76A       C5 2012   4.333   6.184   6.591
   76A       C6 2013   4.358   6.309   6.650
   76A       N6 2014   4.399   6.413   6.581
   76A      H61 2015   4.436   6.394   6.488
   76A      H62 2016   4.412   6.506   6.617
   76A       N1 2017   4.348   6.328   6.788
   76A       C2 2018   4.312   6.221   6.861
   76A       H2 2019   4.293   6.239   6.965
   76A       N3 2020   4.299   6.092   6.815
   76A       C4 2021   4.308   6.081   6.680
   76A      C3' 2022   4.040   5.805   6.576
   76A      H3' 2023   4.057   5.889   6.509
   76A      C2' 2024   4.112   5.848   6.710
   76A     H2'1 2025   4.094   5.953   6.733
   76A      O2' 2026   4.089   5.757   6.815
   76A     HO'2 2027   4.123   5.797   6.895
   76A      O3' 2028   3.901   5.764   6.576
   77U        P 2029   3.792   5.870   6.547
   77U      O1P 2030   3.662   5.804   6.574
   77U      O2P 2031   3.810   5.935   6.418
   77U      O5' 2032   3.821   5.962   6.671
   77U      C5' 2033   3.796   5.922   6.804
   77U     H5'1 2034   3.863   5.839   6.828
   77U     H5'2 2035   3.692   5.894   6.820
   77U      C4' 2036   3.830   6.031   6.907
   77U      H4' 2037   3.826   5.990   7.008
   77U      O4' 2038   3.963   6.081   6.899
   77U      C1' 2039   3.964   6.222   6.946
   77U      H1' 2040   4.029   6.220   7.033
   77U       N1 2041   4.014   6.322   6.840
   77U       C6 2042   4.022   6.282   6.710
   77U       H6 2043   4.008   6.176   6.692
   77U       C5 2044   4.056   6.376   6.615
   77U       H5 2045   4.064   6.346   6.511
   77U       C4 2046   4.088   6.514   6.642
   77U       O4 2047   4.112   6.604   6.566
   77U       N3 2048   4.083   6.543   6.777
   77U       H3 2049   4.114   6.636   6.799
   77U       C2 2050   4.047   6.454   6.872
   77U       O2 2051   4.040   6.496   6.991
   77U      C3' 2052   3.740   6.158   6.890
   77U      H3' 2053   3.738   6.192   6.786
   77U      C2' 2054   3.821   6.263   6.977
   77U     H2'1 2055   3.790   6.359   6.936
   77U      O2' 2056   3.786   6.239   7.109
   77U     HO'2 2057   3.732   6.314   7.135
   77U      O3' 2058   3.612   6.136   6.938
   78G        P 2059   3.491   6.233   6.889
   78G      O1P 2060   3.367   6.174   6.934
   78G      O2P 2061   3.514   6.272   6.744
   78G      O5' 2062   3.515   6.363   6.976
   78G      C5' 2063   3.477   6.368   7.112
   78G     H5'1 2064   3.510   6.273   7.155
   78G     H5'2 2065   3.369   6.374   7.122
   78G      C4' 2066   3.547   6.484   7.181
   78G      H4' 2067   3.542   6.486   7.290
   78G      O4' 2068   3.690   6.490   7.140
   78G      C1' 2069   3.719   6.627   7.111
   78G      H1' 2070   3.801   6.667   7.170
   78G       N9 2071   3.753   6.655   6.971
   78G       C8 2072   3.713   6.585   6.859
   78G       H8 2073   3.649   6.498   6.864
   78G       N7 2074   3.765   6.630   6.749
   78G       C5 2075   3.839   6.747   6.792
   78G       C6 2076   3.909   6.847   6.721
   78G       O6 2077   3.916   6.853   6.599
   78G       N1 2078   3.963   6.949   6.800
   78G       H1 2079   4.010   7.024   6.751
   78G       C2 2080   3.939   6.953   6.938
   78G       N2 2081   3.987   7.051   6.999
   78G      H21 2082   4.054   7.106   6.947
   78G      H22 2083   3.979   7.069   7.098
   78G       N3 2084   3.875   6.857   7.007
   78G       C4 2085   3.829   6.760   6.926
   78G      C3' 2086   3.480   6.611   7.130
   78G      H3' 2087   3.456   6.608   7.023
   78G      C2' 2088   3.599   6.709   7.144
   78G     H2'1 2089   3.589   6.798   7.082
   78G      O2' 2090   3.613   6.738   7.280
   78G     HO'2 2091   3.528   6.750   7.322
   78G      O3' 2092   3.363   6.648   7.200
   79A        P 2093   3.269   6.767   7.152
   79A      O1P 2094   3.155   6.772   7.252
   79A      O2P 2095   3.243   6.739   7.007
   79A      O5' 2096   3.358   6.898   7.163
   79A      C5' 2097   3.361   6.969   7.279
   79A     H5'1 2098   3.398   6.906   7.360
   79A     H5'2 2099   3.264   7.006   7.310
   79A      C4' 2100   3.455   7.099   7.265
   79A      H4' 2101   3.487   7.127   7.365
   79A      O4' 2102   3.571   7.069   7.188
   79A      C1' 2103   3.617   7.180   7.122
   79A      H1' 2104   3.720   7.205   7.146
   79A       N9 2105   3.624   7.149   6.977
   79A       C8 2106   3.546   7.065   6.900
   79A       H8 2107   3.469   7.005   6.947
   79A       N7 2108   3.587   7.059   6.775
   79A       C5 2109   3.697   7.145   6.767
   79A       C6 2110   3.786   7.178   6.663
   79A       N6 2111   3.780   7.121   6.543
   79A      H61 2112   3.710   7.057   6.509
   79A      H62 2113   3.853   7.154   6.482
   79A       N1 2114   3.872   7.279   6.678
   79A       C2 2115   3.879   7.324   6.804
   79A       H2 2116   3.954   7.398   6.827
   79A       N3 2117   3.812   7.296   6.913
   79A       C4 2118   3.722   7.197   6.888
   79A      C3' 2119   3.392   7.224   7.194
   79A      H3' 2120   3.347   7.189   7.101
   79A      C2' 2121   3.520   7.299   7.150
   79A     H2'1 2122   3.499   7.357   7.060
   79A      O2' 2123   3.563   7.388   7.256
   79A     HO'2 2124   3.514   7.470   7.252
   79A      O3' 2125   3.294   7.294   7.272
   80A        P 2126   3.193   7.386   7.199
   80A      O1P 2127   3.096   7.440   7.293
   80A      O2P 2128   3.138   7.307   7.092
   80A      O5' 2129   3.287   7.502   7.139
   80A      C5' 2130   3.322   7.611   7.211
   80A     H5'1 2131   3.358   7.585   7.310
   80A     H5'2 2132   3.234   7.672   7.231
   80A      C4' 2133   3.422   7.696   7.129
   80A      H4' 2134   3.459   7.778   7.191
   80A      O4' 2135   3.526   7.624   7.076
   80A      C1' 2136   3.567   7.669   6.944
   80A      H1' 2137   3.674   7.686   6.952
   80A       N9 2138   3.531   7.564   6.843
   80A       C8 2139   3.435   7.463   6.846
   80A       H8 2140   3.368   7.440   6.927
   80A       N7 2141   3.429   7.395   6.738
   80A       C5 2142   3.519   7.457   6.650
   80A       C6 2143   3.553   7.446   6.513
   80A       N6 2144   3.511   7.351   6.431
   80A      H61 2145   3.447   7.289   6.478
   80A      H62 2146   3.577   7.332   6.357
   80A       N1 2147   3.631   7.539   6.452
   80A       C2 2148   3.684   7.633   6.529
   80A       H2 2149   3.752   7.700   6.479
   80A       N3 2150   3.658   7.658   6.659
   80A       C4 2151   3.576   7.564   6.710
   80A      C3' 2152   3.357   7.773   7.017
   80A      H3' 2153   3.281   7.723   6.957
   80A      C2' 2154   3.479   7.793   6.923
   80A     H2'1 2155   3.456   7.816   6.819
   80A      O2' 2156   3.567   7.890   6.969
   80A     HO'2 2157   3.649   7.884   6.920
   80A      O3' 2158   3.312   7.897   7.060
   81G        P 2159   3.197   7.973   6.988
   81G      O1P 2160   3.163   8.098   7.061
   81G      O2P 2161   3.089   7.876   6.982
   81G      O5' 2162   3.249   8.008   6.832
   81G      C5' 2163   3.359   8.097   6.815
   81G     H5'1 2164   3.437   8.083   6.890
   81G     H5'2 2165   3.329   8.201   6.823
   81G      C4' 2166   3.419   8.094   6.674
   81G      H4' 2167   3.503   8.162   6.663
   81G      O4' 2168   3.456   7.964   6.649
   81G      C1' 2169   3.451   7.947   6.507
   81G      H1' 2170   3.554   7.954   6.472
   81G       N9 2171   3.374   7.818   6.485
   81G       C8 2172   3.297   7.739   6.568
   81G       H8 2173   3.259   7.767   6.665
   81G       N7 2174   3.267   7.630   6.508
   81G       C5 2175   3.317   7.637   6.377
   81G       C6 2176   3.305   7.549   6.263
   81G       O6 2177   3.251   7.439   6.250
   81G       N1 2178   3.350   7.607   6.145
   81G       H1 2179   3.328   7.554   6.062
   81G       C2 2180   3.393   7.738   6.143
   81G       N2 2181   3.404   7.798   6.026
   81G      H21 2182   3.400   7.753   5.935
   81G      H22 2183   3.442   7.891   6.038
   81G       N3 2184   3.411   7.818   6.246
   81G       C4 2185   3.370   7.762   6.362
   81G      C3' 2186   3.311   8.122   6.566
   81G      H3' 2187   3.218   8.070   6.588
   81G      C2' 2188   3.376   8.057   6.443
   81G     H2'1 2189   3.301   8.011   6.379
   81G      O2' 2190   3.455   8.153   6.373
   81G     HO'2 2191   3.449   8.226   6.435
   81G      O3' 2192   3.298   8.266   6.550
   82U        P 2193   3.163   8.332   6.497
   82U      O1P 2194   3.197   8.468   6.465
   82U      O2P 2195   3.055   8.313   6.595
   82U      O5' 2196   3.121   8.256   6.363
   82U      C5' 2197   3.179   8.284   6.234
   82U     H5'1 2198   3.288   8.281   6.228
   82U     H5'2 2199   3.133   8.380   6.213
   82U      C4' 2200   3.122   8.176   6.130
   82U      H4' 2201   3.147   8.213   6.030
   82U      O4' 2202   3.177   8.051   6.155
   82U      C1' 2203   3.077   7.952   6.130
   82U      H1' 2204   3.106   7.873   6.060
   82U       N1 2205   3.037   7.886   6.260
   82U       C6 2206   3.018   7.952   6.382
   82U       H6 2207   3.032   8.058   6.394
   82U       C5 2208   2.979   7.886   6.493
   82U       H5 2209   2.976   7.944   6.584
   82U       C4 2210   2.960   7.740   6.492
   82U       O4 2211   2.910   7.671   6.586
   82U       N3 2212   2.971   7.679   6.365
   82U       H3 2213   2.952   7.580   6.363
   82U       C2 2214   3.009   7.748   6.251
   82U       O2 2215   3.005   7.689   6.143
   82U      C3' 2216   2.967   8.163   6.131
   82U      H3' 2217   2.936   8.172   6.235
   82U      C2' 2218   2.962   8.023   6.067
   82U     H2'1 2219   2.864   7.975   6.075
   82U      O2' 2220   2.988   8.025   5.930
   82U     HO'2 2221   2.911   8.054   5.881
   82U      O3' 2222   2.912   8.264   6.056
   83G        P 2223   2.758   8.286   6.069
   83G      O1P 2224   2.717   8.415   6.020
   83G      O2P 2225   2.717   8.251   6.204
   83G      O5' 2226   2.708   8.181   5.976
   83G      C5' 2227   2.702   8.198   5.836
   83G     H5'1 2228   2.800   8.219   5.792
   83G     H5'2 2229   2.636   8.279   5.806
   83G      C4' 2230   2.648   8.071   5.764
   83G      H4' 2231   2.659   8.084   5.656
   83G      O4' 2232   2.727   7.960   5.801
   83G      C1' 2233   2.642   7.839   5.779
   83G      H1' 2234   2.685   7.783   5.696
   83G       N9 2235   2.640   7.761   5.903
   83G       C8 2236   2.635   7.803   6.031
   83G       H8 2237   2.628   7.906   6.063
   83G       N7 2238   2.636   7.706   6.123
   83G       C5 2239   2.640   7.590   6.036
   83G       C6 2240   2.648   7.443   6.058
   83G       O6 2241   2.637   7.379   6.159
   83G       N1 2242   2.661   7.372   5.943
   83G       H1 2243   2.675   7.273   5.958
   83G       C2 2244   2.651   7.420   5.817
   83G       N2 2245   2.658   7.338   5.714
   83G      H21 2246   2.656   7.240   5.741
   83G      H22 2247   2.690   7.366   5.622
   83G       N3 2248   2.656   7.551   5.790
   83G       C4 2249   2.647   7.630   5.904
   83G      C3' 2250   2.503   8.033   5.793
   83G      H3' 2251   2.488   8.044   5.900
   83G      C2' 2252   2.498   7.886   5.749
   83G     H2'1 2253   2.426   7.828   5.807
   83G      O2' 2254   2.480   7.873   5.609
   83G     HO'2 2255   2.428   7.950   5.587
   83G      O3' 2256   2.415   8.110   5.715
   83G      H3T 2257   2.381   8.178   5.772
  11.10136  11.10136  11.10136
