VIBRIO VULNIFICUS A-RIBOSWITCH in water t=   0.00000 step= 0
 2257
   13C      O5'    1   4.146   6.618   3.902
   13C      H5T    2   4.192   6.613   3.986
   13C      C5'    3   4.236   6.644   3.794
   13C     H5'1    4   4.198   6.596   3.704
   13C     H5'2    5   4.332   6.603   3.823
   13C      C4'    6   4.242   6.799   3.768
   13C      H4'    7   4.309   6.831   3.688
   13C      O4'    8   4.119   6.865   3.740
   13C      C1'    9   4.126   7.006   3.798
   13C      H1'   10   4.128   7.076   3.714
   13C       N1   11   4.017   7.038   3.901
   13C       C6   12   3.931   6.941   3.945
   13C       H6   13   3.952   6.836   3.930
   13C       C5   14   3.832   6.966   4.020
   13C       H5   15   3.773   6.885   4.060
   13C       C4   16   3.814   7.105   4.049
   13C       N4   17   3.722   7.143   4.123
   13C      H41   18   3.646   7.080   4.144
   13C      H42   19   3.720   7.243   4.141
   13C       N3   20   3.894   7.201   4.016
   13C       C2   21   3.998   7.167   3.937
   13C       O2   22   4.081   7.248   3.903
   13C      C3'   23   4.296   6.880   3.886
   13C      H3'   24   4.248   6.857   3.981
   13C      C2'   25   4.265   7.019   3.852
   13C     H2'1   26   4.266   7.073   3.946
   13C      O2'   27   4.355   7.077   3.751
   13C     HO'2   28   4.416   7.131   3.801
   13C      O3'   29   4.437   6.850   3.889
   14G        P   30   4.519   6.874   4.025
   14G      O1P   31   4.658   6.833   3.997
   14G      O2P   32   4.449   6.801   4.125
   14G      O5'   33   4.517   7.032   4.064
   14G      C5'   34   4.619   7.129   4.015
   14G     H5'1   35   4.621   7.134   3.906
   14G     H5'2   36   4.721   7.113   4.050
   14G      C4'   37   4.556   7.265   4.063
   14G      H4'   38   4.593   7.343   3.996
   14G      O4'   39   4.416   7.264   4.052
   14G      C1'   40   4.353   7.333   4.155
   14G      H1'   41   4.303   7.422   4.116
   14G       N9   42   4.259   7.248   4.238
   14G       C8   43   4.227   7.114   4.220
   14G       H8   44   4.289   7.050   4.159
   14G       N7   45   4.125   7.071   4.293
   14G       C5   46   4.079   7.186   4.354
   14G       C6   47   3.966   7.216   4.442
   14G       O6   48   3.881   7.133   4.489
   14G       N1   49   3.958   7.341   4.481
   14G       H1   50   3.895   7.373   4.553
   14G       C2   51   4.040   7.440   4.439
   14G       N2   52   4.020   7.567   4.485
   14G      H21   53   3.937   7.589   4.538
   14G      H22   54   4.083   7.630   4.438
   14G       N3   55   4.135   7.421   4.351
   14G       C4   56   4.154   7.294   4.312
   14G      C3'   57   4.583   7.303   4.211
   14G      H3'   58   4.571   7.213   4.271
   14G      C2'   59   4.471   7.400   4.239
   14G     H2'1   60   4.445   7.400   4.345
   14G      O2'   61   4.495   7.530   4.184
   14G     HO'2   62   4.589   7.549   4.178
   14G      O3'   63   4.710   7.359   4.237
   15C        P   64   4.792   7.358   4.374
   15C      O1P   65   4.895   7.466   4.361
   15C      O2P   66   4.836   7.216   4.406
   15C      O5'   67   4.687   7.397   4.493
   15C      C5'   68   4.637   7.532   4.501
   15C     H5'1   69   4.588   7.577   4.414
   15C     H5'2   70   4.714   7.601   4.535
   15C      C4'   71   4.527   7.547   4.612
   15C      H4'   72   4.503   7.653   4.623
   15C      O4'   73   4.411   7.468   4.575
   15C      C1'   74   4.345   7.438   4.691
   15C      H1'   75   4.254   7.497   4.679
   15C       N1   76   4.318   7.288   4.701
   15C       C6   77   4.400   7.191   4.644
   15C       H6   78   4.502   7.216   4.620
   15C       C5   79   4.360   7.065   4.630
   15C       H5   80   4.437   7.001   4.590
   15C       C4   81   4.234   7.023   4.666
   15C       N4   82   4.196   6.902   4.634
   15C      H41   83   4.266   6.832   4.614
   15C      H42   84   4.104   6.866   4.657
   15C       N3   85   4.146   7.114   4.711
   15C       C2   86   4.187   7.243   4.735
   15C       O2   87   4.107   7.318   4.786
   15C      C3'   88   4.569   7.496   4.750
   15C      H3'   89   4.610   7.397   4.731
   15C      C2'   90   4.427   7.482   4.810
   15C     H2'1   91   4.415   7.399   4.879
   15C      O2'   92   4.360   7.600   4.859
   15C     HO'2   93   4.405   7.634   4.936
   15C      O3'   94   4.653   7.585   4.819
   16U        P   95   4.719   7.541   4.958
   16U      O1P   96   4.820   7.652   4.982
   16U      O2P   97   4.754   7.392   4.946
   16U      O5'   98   4.602   7.555   5.061
   16U      C5'   99   4.578   7.670   5.139
   16U     H5'1  100   4.531   7.739   5.068
   16U     H5'2  101   4.666   7.712   5.188
   16U      C4'  102   4.491   7.642   5.262
   16U      H4'  103   4.459   7.737   5.305
   16U      O4'  104   4.374   7.583   5.218
   16U      C1'  105   4.330   7.487   5.312
   16U      H1'  106   4.287   7.535   5.400
   16U       N1  107   4.240   7.396   5.240
   16U       C6  108   4.289   7.300   5.149
   16U       H6  109   4.386   7.321   5.107
   16U       C5  110   4.206   7.206   5.101
   16U       H5  111   4.234   7.135   5.024
   16U       C4  112   4.067   7.194   5.150
   16U       O4  113   3.989   7.109   5.118
   16U       N3  114   4.030   7.288   5.230
   16U       H3  115   3.938   7.268   5.268
   16U       C2  116   4.106   7.389   5.283
   16U       O2  117   4.055   7.476   5.344
   16U      C3'  118   4.551   7.542   5.374
   16U      H3'  119   4.655   7.511   5.371
   16U      C2'  120   4.460   7.420   5.347
   16U     H2'1  121   4.502   7.370   5.259
   16U      O2'  122   4.439   7.331   5.449
   16U     HO'2  123   4.507   7.325   5.515
   16U      O3'  124   4.524   7.609   5.496
   17U        P  125   4.567   7.545   5.639
   17U      O1P  126   4.646   7.654   5.700
   17U      O2P  127   4.633   7.417   5.619
   17U      O5'  128   4.423   7.524   5.709
   17U      C5'  129   4.362   7.639   5.763
   17U     H5'1  130   4.364   7.713   5.683
   17U     H5'2  131   4.414   7.677   5.851
   17U      C4'  132   4.207   7.618   5.790
   17U      H4'  133   4.174   7.719   5.813
   17U      O4'  134   4.133   7.570   5.686
   17U      C1'  135   4.036   7.466   5.728
   17U      H1'  136   3.938   7.510   5.710
   17U       N1  137   4.028   7.335   5.662
   17U       C6  138   4.133   7.295   5.585
   17U       H6  139   4.223   7.355   5.584
   17U       C5  140   4.126   7.177   5.514
   17U       H5  141   4.214   7.150   5.458
   17U       C4  142   4.009   7.090   5.515
   17U       O4  143   3.993   6.986   5.454
   17U       N3  144   3.910   7.138   5.594
   17U       H3  145   3.828   7.079   5.599
   17U       C2  146   3.914   7.257   5.668
   17U       O2  147   3.818   7.288   5.744
   17U      C3'  148   4.186   7.515   5.906
   17U      H3'  149   4.254   7.433   5.882
   17U      C2'  150   4.051   7.454   5.880
   17U     H2'1  151   4.062   7.348   5.900
   17U      O2'  152   3.943   7.512   5.939
   17U     HO'2  153   3.916   7.453   6.010
   17U      O3'  154   4.213   7.551   6.037
   18C        P  155   4.224   7.436   6.156
   18C      O1P  156   4.260   7.493   6.291
   18C      O2P  157   4.298   7.318   6.103
   18C      O5'  158   4.074   7.387   6.168
   18C      C5'  159   3.984   7.457   6.254
   18C     H5'1  160   3.964   7.559   6.222
   18C     H5'2  161   4.014   7.464   6.358
   18C      C4'  162   3.849   7.380   6.250
   18C      H4'  163   3.773   7.450   6.285
   18C      O4'  164   3.817   7.342   6.121
   18C      C1'  165   3.732   7.229   6.129
   18C      H1'  166   3.632   7.258   6.096
   18C       N1  167   3.780   7.112   6.046
   18C       C6  168   3.912   7.106   5.996
   18C       H6  169   3.982   7.185   6.018
   18C       C5  170   3.940   7.006   5.908
   18C       H5  171   4.040   7.011   5.868
   18C       C4  172   3.842   6.912   5.875
   18C       N4  173   3.855   6.834   5.774
   18C      H41  174   3.950   6.841   5.741
   18C      H42  175   3.795   6.757   5.748
   18C       N3  176   3.721   6.914   5.930
   18C       C2  177   3.691   7.007   6.021
   18C       O2  178   3.577   7.007   6.070
   18C      C3'  179   3.843   7.252   6.331
   18C      H3'  180   3.934   7.194   6.317
   18C      C2'  181   3.731   7.180   6.273
   18C     H2'1  182   3.747   7.072   6.274
   18C      O2'  183   3.596   7.201   6.314
   18C     HO'2  184   3.572   7.123   6.364
   18C      O3'  185   3.829   7.288   6.465
   19A        P  186   3.850   7.187   6.582
   19A      O1P  187   3.822   7.245   6.709
   19A      O2P  188   3.979   7.114   6.566
   19A      O5'  189   3.728   7.087   6.546
   19A      C5'  190   3.606   7.095   6.614
   19A     H5'1  191   3.538   7.171   6.573
   19A     H5'2  192   3.614   7.119   6.720
   19A      C4'  193   3.532   6.964   6.596
   19A      H4'  194   3.440   6.972   6.655
   19A      O4'  195   3.507   6.922   6.461
   19A      C1'  196   3.504   6.784   6.451
   19A      H1'  197   3.408   6.742   6.419
   19A       N9  198   3.606   6.742   6.353
   19A       C8  199   3.721   6.807   6.333
   19A       H8  200   3.742   6.891   6.397
   19A       N7  201   3.804   6.758   6.238
   19A       C5  202   3.724   6.649   6.196
   19A       C6  203   3.738   6.550   6.095
   19A       N6  204   3.826   6.548   5.997
   19A      H61  205   3.891   6.625   5.995
   19A      H62  206   3.830   6.476   5.926
   19A       N1  207   3.640   6.456   6.083
   19A       C2  208   3.533   6.460   6.156
   19A       H2  209   3.466   6.378   6.135
   19A       N3  210   3.512   6.542   6.258
   19A       C4  211   3.608   6.636   6.265
   19A      C3'  212   3.618   6.846   6.653
   19A      H3'  213   3.721   6.841   6.618
   19A      C2'  214   3.542   6.727   6.587
   19A     H2'1  215   3.601   6.637   6.568
   19A      O2'  216   3.429   6.692   6.658
   19A     HO'2  217   3.436   6.739   6.741
   19A      O3'  218   3.612   6.817   6.794
   20U        P  219   3.738   6.756   6.875
   20U      O1P  220   3.707   6.772   7.021
   20U      O2P  221   3.865   6.821   6.841
   20U      O5'  222   3.748   6.607   6.838
   20U      C5'  223   3.632   6.514   6.857
   20U     H5'1  224   3.539   6.569   6.840
   20U     H5'2  225   3.630   6.485   6.962
   20U      C4'  226   3.634   6.382   6.776
   20U      H4'  227   3.551   6.319   6.809
   20U      O4'  228   3.630   6.399   6.631
   20U      C1'  229   3.695   6.280   6.577
   20U      H1'  230   3.625   6.218   6.521
   20U       N1  231   3.809   6.315   6.478
   20U       C6  232   3.878   6.439   6.485
   20U       H6  233   3.846   6.518   6.551
   20U       C5  234   3.980   6.468   6.400
   20U       H5  235   4.031   6.562   6.413
   20U       C4  236   4.016   6.382   6.288
   20U       O4  237   4.111   6.405   6.212
   20U       N3  238   3.935   6.277   6.273
   20U       H3  239   3.949   6.203   6.205
   20U       C2  240   3.839   6.233   6.368
   20U       O2  241   3.783   6.124   6.356
   20U      C3'  242   3.760   6.300   6.793
   20U      H3'  243   3.844   6.364   6.768
   20U      C2'  244   3.742   6.195   6.690
   20U     H2'1  245   3.839   6.148   6.674
   20U      O2'  246   3.646   6.092   6.725
   20U     HO'2  247   3.684   6.042   6.797
   20U      O3'  248   3.774   6.238   6.923
   21A        P  249   3.911   6.174   6.957
   21A      O1P  250   3.917   6.151   7.105
   21A      O2P  251   4.017   6.267   6.904
   21A      O5'  252   3.917   6.035   6.875
   21A      C5'  253   3.851   5.916   6.911
   21A     H5'1  254   3.747   5.949   6.921
   21A     H5'2  255   3.880   5.864   7.002
   21A      C4'  256   3.873   5.797   6.822
   21A      H4'  257   3.844   5.703   6.868
   21A      O4'  258   3.823   5.828   6.694
   21A      C1'  259   3.915   5.778   6.593
   21A      H1'  260   3.876   5.703   6.524
   21A       N9  261   3.973   5.886   6.508
   21A       C8  262   4.025   6.004   6.556
   21A       H8  263   4.003   6.041   6.655
   21A       N7  264   4.110   6.063   6.472
   21A       C5  265   4.108   5.979   6.355
   21A       C6  266   4.170   5.974   6.231
   21A       N6  267   4.265   6.058   6.194
   21A      H61  268   4.283   6.135   6.257
   21A      H62  269   4.307   6.044   6.103
   21A       N1  270   4.148   5.873   6.143
   21A       C2  271   4.056   5.782   6.169
   21A       H2  272   4.024   5.719   6.087
   21A       N3  273   3.991   5.766   6.291
   21A       C4  274   4.030   5.866   6.379
   21A      C3'  275   4.024   5.773   6.801
   21A      H3'  276   4.077   5.868   6.798
   21A      C2'  277   4.025   5.706   6.671
   21A     H2'1  278   4.116   5.703   6.611
   21A      O2'  279   3.973   5.573   6.675
   21A     HO'2  280   4.029   5.520   6.731
   21A      O3'  281   4.089   5.705   6.895
   22U        P  282   4.241   5.753   6.942
   22U      O1P  283   4.298   5.649   7.030
   22U      O2P  284   4.238   5.890   6.987
   22U      O5'  285   4.328   5.738   6.804
   22U      C5'  286   4.458   5.792   6.794
   22U     H5'1  287   4.519   5.739   6.866
   22U     H5'2  288   4.458   5.899   6.815
   22U      C4'  289   4.523   5.786   6.659
   22U      H4'  290   4.627   5.812   6.676
   22U      O4'  291   4.518   5.651   6.612
   22U      C1'  292   4.483   5.658   6.473
   22U      H1'  293   4.564   5.666   6.400
   22U       N1  294   4.387   5.549   6.431
   22U       C6  295   4.286   5.511   6.510
   22U       H6  296   4.274   5.553   6.608
   22U       C5  297   4.197   5.415   6.470
   22U       H5  298   4.119   5.388   6.539
   22U       C4  299   4.200   5.363   6.328
   22U       O4  300   4.115   5.294   6.274
   22U       N3  301   4.306   5.417   6.254
   22U       H3  302   4.311   5.393   6.156
   22U       C2  303   4.403   5.502   6.302
   22U       O2  304   4.498   5.529   6.227
   22U      C3'  305   4.449   5.879   6.559
   22U      H3'  306   4.370   5.936   6.609
   22U      C2'  307   4.401   5.787   6.452
   22U     H2'1  308   4.294   5.782   6.473
   22U      O2'  309   4.417   5.833   6.319
   22U     HO'2  310   4.510   5.847   6.304
   22U      O3'  311   4.555   5.969   6.508
   23A        P  312   4.596   6.104   6.581
   23A      O1P  313   4.481   6.163   6.652
   23A      O2P  314   4.659   6.187   6.471
   23A      O5'  315   4.704   6.055   6.680
   23A      C5'  316   4.832   6.017   6.644
   23A     H5'1  317   4.876   6.098   6.586
   23A     H5'2  318   4.832   5.920   6.594
   23A      C4'  319   4.922   6.017   6.768
   23A      H4'  320   4.935   6.120   6.800
   23A      O4'  321   4.869   5.931   6.867
   23A      C1'  322   4.954   5.815   6.893
   23A      H1'  323   4.961   5.802   7.001
   23A       N9  324   4.878   5.699   6.834
   23A       C8  325   4.798   5.615   6.902
   23A       H8  326   4.794   5.619   7.009
   23A       N7  327   4.752   5.517   6.836
   23A       C5  328   4.792   5.543   6.703
   23A       C6  329   4.763   5.486   6.572
   23A       N6  330   4.684   5.383   6.558
   23A      H61  331   4.607   5.370   6.622
   23A      H62  332   4.672   5.347   6.464
   23A       N1  333   4.809   5.532   6.456
   23A       C2  334   4.894   5.640   6.475
   23A       H2  335   4.941   5.671   6.383
   23A       N3  336   4.930   5.702   6.584
   23A       C4  337   4.875   5.654   6.701
   23A      C3'  338   5.056   5.964   6.716
   23A      H3'  339   5.038   5.911   6.622
   23A      C2'  340   5.086   5.853   6.819
   23A     H2'1  341   5.123   5.765   6.766
   23A      O2'  342   5.165   5.891   6.928
   23A     HO'2  343   5.250   5.898   6.884
   23A      O3'  344   5.152   6.062   6.699
   24A        P  345   5.197   6.102   6.557
   24A      O1P  346   5.297   6.203   6.583
   24A      O2P  347   5.085   6.153   6.480
   24A      O5'  348   5.270   5.982   6.486
   24A      C5'  349   5.201   5.897   6.407
   24A     H5'1  350   5.118   5.944   6.353
   24A     H5'2  351   5.151   5.821   6.467
   24A      C4'  352   5.289   5.822   6.305
   24A      H4'  353   5.230   5.751   6.247
   24A      O4'  354   5.360   5.902   6.218
   24A      C1'  355   5.476   5.835   6.180
   24A      H1'  356   5.480   5.827   6.071
   24A       N9  357   5.589   5.923   6.214
   24A       C8  358   5.683   5.901   6.319
   24A       H8  359   5.679   5.812   6.380
   24A       N7  360   5.758   6.009   6.337
   24A       C5  361   5.729   6.096   6.233
   24A       C6  362   5.772   6.220   6.182
   24A       N6  363   5.874   6.297   6.234
   24A      H61  364   5.904   6.277   6.328
   24A      H62  365   5.907   6.380   6.187
   24A       N1  366   5.719   6.265   6.064
   24A       C2  367   5.617   6.200   6.010
   24A       H2  368   5.576   6.244   5.920
   24A       N3  369   5.560   6.091   6.049
   24A       C4  370   5.624   6.042   6.158
   24A      C3'  371   5.387   5.727   6.377
   24A      H3'  372   5.433   5.795   6.449
   24A      C2'  373   5.477   5.697   6.254
   24A     H2'1  374   5.579   5.670   6.281
   24A      O2'  375   5.414   5.609   6.156
   24A     HO'2  376   5.403   5.525   6.201
   24A      O3'  377   5.329   5.608   6.432
   25U        P  378   5.421   5.481   6.463
   25U      O1P  379   5.559   5.518   6.490
   25U      O2P  380   5.397   5.385   6.355
   25U      O5'  381   5.358   5.438   6.600
   25U      C5'  382   5.327   5.526   6.707
   25U     H5'1  383   5.289   5.625   6.680
   25U     H5'2  384   5.421   5.555   6.752
   25U      C4'  385   5.225   5.465   6.804
   25U      H4'  386   5.209   5.539   6.882
   25U      O4'  387   5.096   5.443   6.747
   25U      C1'  388   5.027   5.339   6.825
   25U      H1'  389   4.939   5.369   6.882
   25U       N1  390   4.983   5.229   6.732
   25U       C6  391   5.006   5.235   6.596
   25U       H6  392   5.088   5.296   6.562
   25U       C5  393   4.937   5.160   6.506
   25U       H5  394   4.970   5.168   6.403
   25U       C4  395   4.824   5.076   6.543
   25U       O4  396   4.749   4.992   6.478
   25U       N3  397   4.792   5.093   6.676
   25U       H3  398   4.711   5.045   6.712
   25U       C2  399   4.874   5.160   6.771
   25U       O2  400   4.851   5.138   6.894
   25U      C3'  401   5.260   5.328   6.860
   25U      H3'  402   5.273   5.261   6.775
   25U      C2'  403   5.130   5.287   6.924
   25U     H2'1  404   5.112   5.181   6.939
   25U      O2'  405   5.112   5.358   7.051
   25U     HO'2  406   5.182   5.328   7.109
   25U      O3'  407   5.364   5.331   6.953
   26C        P  408   5.469   5.210   6.962
   26C      O1P  409   5.569   5.246   7.063
   26C      O2P  410   5.509   5.173   6.829
   26C      O5'  411   5.387   5.089   7.023
   26C      C5'  412   5.368   5.070   7.164
   26C     H5'1  413   5.349   5.167   7.210
   26C     H5'2  414   5.454   5.027   7.215
   26C      C4'  415   5.249   4.987   7.199
   26C      H4'  416   5.220   5.014   7.300
   26C      O4'  417   5.137   5.022   7.122
   26C      C1'  418   5.059   4.908   7.102
   26C      H1'  419   4.962   4.916   7.151
   26C       N1  420   5.033   4.873   6.958
   26C       C6  421   5.115   4.920   6.862
   26C       H6  422   5.200   4.981   6.887
   26C       C5  423   5.100   4.880   6.733
   26C       H5  424   5.170   4.906   6.655
   26C       C4  425   4.979   4.807   6.708
   26C       N4  426   4.948   4.768   6.581
   26C      H41  427   4.996   4.808   6.501
   26C      H42  428   4.858   4.724   6.565
   26C       N3  429   4.896   4.763   6.799
   26C       C2  430   4.919   4.797   6.928
   26C       O2  431   4.838   4.752   7.014
   26C      C3'  432   5.262   4.834   7.182
   26C      H3'  433   5.311   4.811   7.087
   26C      C2'  434   5.121   4.796   7.173
   26C     H2'1  435   5.120   4.702   7.118
   26C      O2'  436   5.053   4.786   7.295
   26C     HO'2  437   4.964   4.750   7.284
   26C      O3'  438   5.334   4.767   7.290
   27C        P  439   5.400   4.627   7.256
   27C      O1P  440   5.479   4.600   7.374
   27C      O2P  441   5.467   4.637   7.127
   27C      O5'  442   5.284   4.516   7.241
   27C      C5'  443   5.222   4.460   7.351
   27C     H5'1  444   5.190   4.543   7.414
   27C     H5'2  445   5.289   4.401   7.413
   27C      C4'  446   5.113   4.355   7.318
   27C      H4'  447   5.063   4.315   7.406
   27C      O4'  448   5.015   4.407   7.234
   27C      C1'  449   4.977   4.315   7.133
   27C      H1'  450   4.868   4.305   7.139
   27C       N1  451   5.009   4.340   6.995
   27C       C6  452   5.082   4.448   6.967
   27C       H6  453   5.128   4.506   7.045
   27C       C5  454   5.097   4.487   6.839
   27C       H5  455   5.157   4.573   6.812
   27C       C4  456   5.031   4.410   6.743
   27C       N4  457   5.057   4.432   6.620
   27C      H41  458   5.119   4.509   6.599
   27C      H42  459   5.001   4.386   6.549
   27C       N3  460   4.957   4.306   6.768
   27C       C2  461   4.943   4.261   6.896
   27C       O2  462   4.869   4.165   6.925
   27C      C3'  463   5.172   4.235   7.238
   27C      H3'  464   5.232   4.281   7.159
   27C      C2'  465   5.043   4.180   7.169
   27C     H2'1  466   5.079   4.123   7.083
   27C      O2'  467   4.952   4.100   7.245
   27C     HO'2  468   4.932   4.027   7.186
   27C      O3'  469   5.235   4.141   7.322
   28U        P  470   5.345   4.038   7.258
   28U      O1P  471   5.407   3.962   7.362
   28U      O2P  472   5.427   4.115   7.167
   28U      O5'  473   5.270   3.934   7.163
   28U      C5'  474   5.169   3.842   7.218
   28U     H5'1  475   5.117   3.893   7.299
   28U     H5'2  476   5.226   3.757   7.255
   28U      C4'  477   5.069   3.787   7.114
   28U      H4'  478   4.994   3.735   7.174
   28U      O4'  479   5.015   3.894   7.040
   28U      C1'  480   4.995   3.853   6.906
   28U      H1'  481   4.892   3.865   6.870
   28U       N1  482   5.083   3.934   6.809
   28U       C6  483   5.184   4.019   6.857
   28U       H6  484   5.211   4.028   6.961
   28U       C5  485   5.255   4.107   6.772
   28U       H5  486   5.334   4.174   6.801
   28U       C4  487   5.239   4.090   6.634
   28U       O4  488   5.310   4.136   6.543
   28U       N3  489   5.138   4.016   6.594
   28U       H3  490   5.119   4.012   6.495
   28U       C2  491   5.056   3.931   6.673
   28U       O2  492   4.976   3.858   6.619
   28U      C3'  493   5.140   3.694   7.014
   28U      H3'  494   5.229   3.741   6.973
   28U      C2'  495   5.034   3.704   6.901
   28U     H2'1  496   5.074   3.683   6.801
   28U      O2'  497   4.915   3.620   6.926
   28U     HO'2  498   4.950   3.542   6.968
   28U      O3'  499   5.164   3.563   7.058
   29A        P  500   5.288   3.474   7.019
   29A      O1P  501   5.291   3.357   7.114
   29A      O2P  502   5.413   3.552   6.992
   29A      O5'  503   5.242   3.419   6.875
   29A      C5'  504   5.145   3.321   6.868
   29A     H5'1  505   5.050   3.349   6.913
   29A     H5'2  506   5.179   3.228   6.914
   29A      C4'  507   5.110   3.276   6.722
   29A      H4'  508   5.047   3.187   6.726
   29A      O4'  509   5.036   3.388   6.659
   29A      C1'  510   5.081   3.409   6.528
   29A      H1'  511   4.995   3.430   6.464
   29A       N9  512   5.175   3.522   6.508
   29A       C8  513   5.255   3.599   6.583
   29A       H8  514   5.272   3.571   6.686
   29A       N7  515   5.302   3.708   6.522
   29A       C5  516   5.271   3.688   6.388
   29A       C6  517   5.302   3.751   6.266
   29A       N6  518   5.378   3.864   6.261
   29A      H61  519   5.430   3.914   6.331
   29A      H62  520   5.389   3.918   6.176
   29A       N1  521   5.240   3.712   6.156
   29A       C2  522   5.160   3.608   6.161
   29A       H2  523   5.106   3.583   6.071
   29A       N3  524   5.136   3.526   6.263
   29A       C4  525   5.192   3.575   6.380
   29A      C3'  526   5.221   3.239   6.623
   29A      H3'  527   5.306   3.301   6.652
   29A      C2'  528   5.153   3.281   6.488
   29A     H2'1  529   5.231   3.312   6.418
   29A      O2'  530   5.065   3.185   6.447
   29A     HO'2  531   5.046   3.201   6.354
   29A      O3'  532   5.273   3.104   6.618
   30A        P  533   5.413   3.068   6.558
   30A      O1P  534   5.454   2.926   6.574
   30A      O2P  535   5.511   3.164   6.606
   30A      O5'  536   5.389   3.089   6.410
   30A      C5'  537   5.303   2.998   6.333
   30A     H5'1  538   5.201   2.986   6.371
   30A     H5'2  539   5.351   2.901   6.325
   30A      C4'  540   5.288   3.046   6.187
   30A      H4'  541   5.214   2.983   6.137
   30A      O4'  542   5.261   3.182   6.178
   30A      C1'  543   5.331   3.230   6.063
   30A      H1'  544   5.267   3.259   5.979
   30A       N9  545   5.418   3.346   6.096
   30A       C8  546   5.475   3.378   6.219
   30A       H8  547   5.450   3.314   6.302
   30A       N7  548   5.548   3.489   6.214
   30A       C5  549   5.536   3.522   6.082
   30A       C6  550   5.587   3.639   6.011
   30A       N6  551   5.654   3.745   6.060
   30A      H61  552   5.664   3.744   6.160
   30A      H62  553   5.681   3.822   6.000
   30A       N1  554   5.570   3.640   5.875
   30A       C2  555   5.506   3.547   5.810
   30A       H2  556   5.484   3.566   5.706
   30A       N3  557   5.450   3.440   5.869
   30A       C4  558   5.467   3.434   6.006
   30A      C3'  559   5.429   3.036   6.120
   30A      H3'  560   5.495   3.079   6.195
   30A      C2'  561   5.415   3.125   5.993
   30A     H2'1  562   5.511   3.165   5.960
   30A      O2'  563   5.335   3.066   5.891
   30A     HO'2  564   5.361   3.103   5.806
   30A      O3'  565   5.484   2.906   6.094
   31U        P  566   5.641   2.888   6.085
   31U      O1P  567   5.670   2.748   6.039
   31U      O2P  568   5.702   2.940   6.210
   31U      O5'  569   5.689   2.992   5.973
   31U      C5'  570   5.656   2.978   5.834
   31U     H5'1  571   5.549   2.971   5.814
   31U     H5'2  572   5.695   2.884   5.796
   31U      C4'  573   5.734   3.086   5.755
   31U      H4'  574   5.702   3.072   5.651
   31U      O4'  575   5.694   3.214   5.803
   31U      C1'  576   5.792   3.307   5.779
   31U      H1'  577   5.751   3.384   5.714
   31U       N1  578   5.843   3.373   5.902
   31U       C6  579   5.831   3.313   6.030
   31U       H6  580   5.789   3.214   6.037
   31U       C5  581   5.869   3.378   6.146
   31U       H5  582   5.862   3.332   6.243
   31U       C4  583   5.929   3.512   6.142
   31U       O4  584   5.948   3.594   6.231
   31U       N3  585   5.931   3.563   6.012
   31U       H3  586   5.951   3.661   5.998
   31U       C2  587   5.902   3.496   5.895
   31U       O2  588   5.933   3.549   5.786
   31U      C3'  589   5.888   3.080   5.760
   31U      H3'  590   5.922   3.066   5.862
   31U      C2'  591   5.907   3.227   5.709
   31U     H2'1  592   6.004   3.266   5.739
   31U      O2'  593   5.883   3.240   5.569
   31U     HO'2  594   5.964   3.273   5.530
   31U      O3'  595   5.942   2.986   5.670
   32G        P  596   6.094   2.937   5.672
   32G      O1P  597   6.104   2.819   5.578
   32G      O2P  598   6.142   2.925   5.813
   32G      O5'  599   6.168   3.056   5.604
   32G      C5'  600   6.169   3.078   5.463
   32G     H5'1  601   6.068   3.088   5.423
   32G     H5'2  602   6.231   3.002   5.415
   32G      C4'  603   6.251   3.202   5.432
   32G      H4'  604   6.247   3.216   5.324
   32G      O4'  605   6.202   3.322   5.480
   32G      C1'  606   6.308   3.412   5.506
   32G      H1'  607   6.296   3.505   5.450
   32G       N9  608   6.306   3.444   5.647
   32G       C8  609   6.245   3.378   5.754
   32G       H8  610   6.181   3.291   5.745
   32G       N7  611   6.257   3.441   5.864
   32G       C5  612   6.336   3.551   5.834
   32G       C6  613   6.384   3.661   5.918
   32G       O6  614   6.364   3.682   6.035
   32G       N1  615   6.453   3.758   5.844
   32G       H1  616   6.478   3.844   5.890
   32G       C2  617   6.479   3.744   5.710
   32G       N2  618   6.546   3.850   5.659
   32G      H21  619   6.567   3.932   5.714
   32G      H22  620   6.524   3.855   5.560
   32G       N3  621   6.426   3.650   5.629
   32G       C4  622   6.362   3.555   5.698
   32G      C3'  623   6.399   3.194   5.479
   32G      H3'  624   6.395   3.171   5.585
   32G      C2'  625   6.432   3.337   5.464
   32G     H2'1  626   6.515   3.362   5.530
   32G      O2'  627   6.477   3.383   5.333
   32G     HO'2  628   6.531   3.308   5.309
   32G      O3'  629   6.480   3.113   5.403
   33A        P  630   6.619   3.051   5.458
   33A      O1P  631   6.661   2.939   5.372
   33A      O2P  632   6.603   3.022   5.599
   33A      O5'  633   6.718   3.176   5.437
   33A      C5'  634   6.759   3.220   5.307
   33A     H5'1  635   6.676   3.221   5.235
   33A     H5'2  636   6.830   3.145   5.273
   33A      C4'  637   6.813   3.367   5.308
   33A      H4'  638   6.826   3.405   5.206
   33A      O4'  639   6.750   3.464   5.388
   33A      C1'  640   6.846   3.548   5.451
   33A      H1'  641   6.826   3.655   5.446
   33A       N9  642   6.853   3.522   5.597
   33A       C8  643   6.771   3.447   5.675
   33A       H8  644   6.695   3.385   5.630
   33A       N7  645   6.779   3.475   5.798
   33A       C5  646   6.870   3.580   5.810
   33A       C6  647   6.928   3.656   5.918
   33A       N6  648   6.899   3.628   6.043
   33A      H61  649   6.821   3.568   6.067
   33A      H62  650   6.944   3.686   6.112
   33A       N1  651   7.009   3.761   5.892
   33A       C2  652   7.038   3.786   5.762
   33A       H2  653   7.099   3.873   5.742
   33A       N3  654   7.011   3.707   5.658
   33A       C4  655   6.920   3.604   5.690
   33A      C3'  656   6.954   3.361   5.372
   33A      H3'  657   6.965   3.314   5.469
   33A      C2'  658   6.979   3.514   5.383
   33A     H2'1  659   7.062   3.530   5.452
   33A      O2'  660   6.988   3.579   5.257
   33A     HO'2  661   7.012   3.669   5.282
   33A      O3'  662   7.037   3.298   5.279
   34U        P  663   7.169   3.241   5.332
   34U      O1P  664   7.243   3.199   5.210
   34U      O2P  665   7.132   3.138   5.437
   34U      O5'  666   7.247   3.357   5.407
   34U      C5'  667   7.307   3.467   5.335
   34U     H5'1  668   7.230   3.515   5.275
   34U     H5'2  669   7.385   3.439   5.264
   34U      C4'  670   7.377   3.573   5.420
   34U      H4'  671   7.399   3.658   5.355
   34U      O4'  672   7.305   3.605   5.545
   34U      C1'  673   7.388   3.615   5.653
   34U      H1'  674   7.431   3.715   5.651
   34U       N1  675   7.312   3.575   5.773
   34U       C6  676   7.225   3.470   5.766
   34U       H6  677   7.192   3.437   5.668
   34U       C5  678   7.179   3.420   5.875
   34U       H5  679   7.113   3.334   5.875
   34U       C4  680   7.240   3.455   6.007
   34U       O4  681   7.227   3.382   6.106
   34U       N3  682   7.317   3.565   6.010
   34U       H3  683   7.338   3.600   6.102
   34U       C2  684   7.348   3.632   5.896
   34U       O2  685   7.405   3.745   5.904
   34U      C3'  686   7.519   3.538   5.468
   34U      H3'  687   7.556   3.447   5.421
   34U      C2'  688   7.499   3.510   5.618
   34U     H2'1  689   7.464   3.409   5.637
   34U      O2'  690   7.609   3.547   5.694
   34U     HO'2  691   7.671   3.595   5.639
   34U      O3'  692   7.603   3.648   5.463
   35A        P  693   7.753   3.628   5.405
   35A      O1P  694   7.746   3.545   5.283
   35A      O2P  695   7.833   3.590   5.522
   35A      O5'  696   7.788   3.782   5.362
   35A      C5'  697   7.727   3.856   5.259
   35A     H5'1  698   7.620   3.835   5.258
   35A     H5'2  699   7.769   3.832   5.161
   35A      C4'  700   7.748   4.008   5.290
   35A      H4'  701   7.693   4.062   5.213
   35A      O4'  702   7.694   4.041   5.416
   35A      C1'  703   7.796   4.090   5.501
   35A      H1'  704   7.790   4.199   5.510
   35A       N9  705   7.781   4.035   5.639
   35A       C8  706   7.723   3.916   5.680
   35A       H8  707   7.663   3.864   5.607
   35A       N7  708   7.724   3.890   5.809
   35A       C5  709   7.814   3.987   5.854
   35A       C6  710   7.888   4.011   5.973
   35A       N6  711   7.894   3.931   6.079
   35A      H61  712   7.857   3.837   6.083
   35A      H62  713   7.972   3.957   6.138
   35A       N1  714   7.981   4.104   5.980
   35A       C2  715   8.006   4.174   5.875
   35A       H2  716   8.077   4.255   5.885
   35A       N3  717   7.946   4.174   5.760
   35A       C4  718   7.851   4.073   5.751
   35A      C3'  719   7.900   4.036   5.284
   35A      H3'  720   7.955   3.951   5.243
   35A      C2'  721   7.925   4.052   5.436
   35A     H2'1  722   7.961   3.958   5.476
   35A      O2'  723   8.014   4.148   5.483
   35A     HO'2  724   8.034   4.121   5.573
   35A      O3'  725   7.935   4.156   5.214
   36U        P  726   7.998   4.144   5.063
   36U      O1P  727   8.103   4.040   5.076
   36U      O2P  728   8.045   4.277   5.017
   36U      O5'  729   7.884   4.075   4.978
   36U      C5'  730   7.817   4.141   4.868
   36U     H5'1  731   7.896   4.184   4.806
   36U     H5'2  732   7.740   4.204   4.913
   36U      C4'  733   7.734   4.044   4.775
   36U      H4'  734   7.690   4.090   4.686
   36U      O4'  735   7.831   3.944   4.720
   36U      C1'  736   7.775   3.819   4.725
   36U      H1'  737   7.707   3.804   4.641
   36U       N1  738   7.881   3.715   4.727
   36U       C6  739   7.981   3.715   4.823
   36U       H6  740   8.012   3.804   4.875
   36U       C5  741   8.072   3.610   4.831
   36U       H5  742   8.160   3.625   4.890
   36U       C4  743   8.055   3.486   4.755
   36U       O4  744   8.135   3.396   4.748
   36U       N3  745   7.947   3.491   4.669
   36U       H3  746   7.918   3.404   4.627
   36U       C2  747   7.870   3.603   4.640
   36U       O2  748   7.799   3.608   4.537
   36U      C3'  749   7.633   3.964   4.854
   36U      H3'  750   7.633   3.994   4.958
   36U      C2'  751   7.703   3.825   4.854
   36U     H2'1  752   7.774   3.813   4.936
   36U      O2'  753   7.613   3.718   4.864
   36U     HO'2  754   7.547   3.729   4.795
   36U      O3'  755   7.509   3.961   4.794
   37G        P  756   7.393   4.054   4.837
   37G      O1P  757   7.278   4.022   4.750
   37G      O2P  758   7.453   4.191   4.838
   37G      O5'  759   7.351   4.015   4.989
   37G      C5'  760   7.291   3.889   5.013
   37G     H5'1  761   7.364   3.817   4.977
   37G     H5'2  762   7.198   3.878   4.956
   37G      C4'  763   7.264   3.862   5.160
   37G      H4'  764   7.214   3.766   5.171
   37G      O4'  765   7.376   3.869   5.253
   37G      C1'  766   7.326   3.929   5.373
   37G      H1'  767   7.359   3.866   5.455
   37G       N9  768   7.382   4.065   5.390
   37G       C8  769   7.416   4.160   5.299
   37G       H8  770   7.392   4.162   5.193
   37G       N7  771   7.475   4.263   5.351
   37G       C5  772   7.474   4.236   5.490
   37G       C6  773   7.536   4.296   5.609
   37G       O6  774   7.588   4.404   5.623
   37G       N1  775   7.519   4.231   5.732
   37G       H1  776   7.561   4.263   5.818
   37G       C2  777   7.454   4.112   5.739
   37G       N2  778   7.440   4.053   5.851
   37G      H21  779   7.476   4.092   5.937
   37G      H22  780   7.394   3.964   5.843
   37G       N3  781   7.406   4.044   5.637
   37G       C4  782   7.423   4.109   5.516
   37G      C3'  783   7.161   3.962   5.215
   37G      H3'  784   7.179   4.061   5.173
   37G      C2'  785   7.177   3.945   5.365
   37G     H2'1  786   7.144   4.043   5.399
   37G      O2'  787   7.117   3.826   5.422
   37G     HO'2  788   7.106   3.833   5.517
   37G      O3'  789   7.025   3.932   5.181
   38G        P  790   6.909   4.036   5.179
   38G      O1P  791   6.789   3.987   5.111
   38G      O2P  792   6.963   4.162   5.125
   38G      O5'  793   6.878   4.070   5.327
   38G      C5'  794   6.806   3.984   5.417
   38G     H5'1  795   6.847   3.884   5.402
   38G     H5'2  796   6.697   3.994   5.410
   38G      C4'  797   6.835   4.014   5.566
   38G      H4'  798   6.791   3.941   5.634
   38G      O4'  799   6.984   4.018   5.594
   38G      C1'  800   7.006   4.117   5.694
   38G      H1'  801   7.050   4.078   5.785
   38G       N9  802   7.086   4.230   5.641
   38G       C8  803   7.096   4.282   5.511
   38G       H8  804   7.044   4.232   5.430
   38G       N7  805   7.147   4.401   5.505
   38G       C5  806   7.202   4.419   5.636
   38G       C6  807   7.281   4.524   5.701
   38G       O6  808   7.314   4.639   5.657
   38G       N1  809   7.328   4.490   5.825
   38G       H1  810   7.386   4.557   5.872
   38G       C2  811   7.291   4.382   5.893
   38G       N2  812   7.335   4.373   6.017
   38G      H21  813   7.394   4.443   6.060
   38G      H22  814   7.309   4.287   6.063
   38G       N3  815   7.213   4.289   5.841
   38G       C4  816   7.169   4.314   5.715
   38G      C3'  817   6.784   4.151   5.614
   38G      H3'  818   6.801   4.215   5.527
   38G      C2'  819   6.873   4.181   5.731
   38G     H2'1  820   6.881   4.289   5.741
   38G      O2'  821   6.812   4.137   5.851
   38G     HO'2  822   6.723   4.107   5.831
   38G      O3'  823   6.648   4.137   5.643
   39U        P  824   6.551   4.265   5.665
   39U      O1P  825   6.629   4.388   5.632
   39U      O2P  826   6.493   4.250   5.799
   39U      O5'  827   6.434   4.243   5.562
   39U      C5'  828   6.468   4.227   5.427
   39U     H5'1  829   6.574   4.202   5.420
   39U     H5'2  830   6.449   4.316   5.366
   39U      C4'  831   6.381   4.112   5.373
   39U      H4'  832   6.407   4.088   5.270
   39U      O4'  833   6.384   3.996   5.459
   39U      C1'  834   6.264   3.921   5.448
   39U      H1'  835   6.277   3.820   5.409
   39U       N1  836   6.196   3.909   5.587
   39U       C6  837   6.229   3.989   5.696
   39U       H6  838   6.293   4.075   5.683
   39U       C5  839   6.164   3.977   5.810
   39U       H5  840   6.191   4.052   5.883
   39U       C4  841   6.077   3.861   5.838
   39U       O4  842   6.023   3.832   5.950
   39U       N3  843   6.066   3.780   5.731
   39U       H3  844   6.031   3.688   5.754
   39U       C2  845   6.112   3.802   5.606
   39U       O2  846   6.096   3.717   5.515
   39U      C3'  847   6.231   4.148   5.362
   39U      H3'  848   6.199   4.183   5.460
   39U      C2'  849   6.177   4.003   5.350
   39U     H2'1  850   6.069   4.004   5.366
   39U      O2'  851   6.216   3.967   5.217
   39U     HO'2  852   6.192   4.038   5.157
   39U      O3'  853   6.192   4.233   5.257
   40U        P  854   6.051   4.304   5.253
   40U      O1P  855   6.029   4.375   5.125
   40U      O2P  856   6.024   4.372   5.377
   40U      O5'  857   5.937   4.201   5.261
   40U      C5'  858   5.898   4.126   5.150
   40U     H5'1  859   5.977   4.105   5.078
   40U     H5'2  860   5.826   4.184   5.091
   40U      C4'  861   5.825   3.994   5.190
   40U      H4'  862   5.821   3.946   5.092
   40U      O4'  863   5.890   3.906   5.278
   40U      C1'  864   5.779   3.845   5.358
   40U      H1'  865   5.777   3.736   5.351
   40U       N1  866   5.774   3.881   5.504
   40U       C6  867   5.813   4.006   5.547
   40U       H6  868   5.848   4.078   5.474
   40U       C5  869   5.806   4.036   5.680
   40U       H5  870   5.836   4.133   5.717
   40U       C4  871   5.752   3.941   5.778
   40U       O4  872   5.732   3.963   5.895
   40U       N3  873   5.714   3.823   5.722
   40U       H3  874   5.671   3.755   5.783
   40U       C2  875   5.723   3.788   5.587
   40U       O2  876   5.694   3.674   5.551
   40U      C3'  877   5.686   4.016   5.233
   40U      H3'  878   5.691   4.093   5.310
   40U      C2'  879   5.646   3.883   5.294
   40U     H2'1  880   5.562   3.892   5.363
   40U      O2'  881   5.614   3.783   5.203
   40U     HO'2  882   5.574   3.817   5.122
   40U      O3'  883   5.589   4.048   5.132
   41U        P  884   5.459   4.134   5.167
   41U      O1P  885   5.401   4.169   5.039
   41U      O2P  886   5.494   4.242   5.256
   41U      O5'  887   5.367   4.033   5.252
   41U      C5'  888   5.291   3.933   5.189
   41U     H5'1  889   5.359   3.874   5.128
   41U     H5'2  890   5.211   3.971   5.125
   41U      C4'  891   5.218   3.837   5.286
   41U      H4'  892   5.188   3.746   5.234
   41U      O4'  893   5.305   3.809   5.396
   41U      C1'  894   5.229   3.765   5.503
   41U      H1'  895   5.246   3.659   5.518
   41U       N1  896   5.277   3.822   5.636
   41U       C6  897   5.371   3.928   5.638
   41U       H6  898   5.401   3.973   5.544
   41U       C5  899   5.411   3.969   5.760
   41U       H5  900   5.479   4.052   5.773
   41U       C4  901   5.374   3.914   5.885
   41U       O4  902   5.412   3.955   5.988
   41U       N3  903   5.281   3.816   5.874
   41U       H3  904   5.259   3.767   5.959
   41U       C2  905   5.228   3.761   5.752
   41U       O2  906   5.160   3.658   5.754
   41U      C3'  907   5.096   3.898   5.362
   41U      H3'  908   5.117   4.002   5.386
   41U      C2'  909   5.081   3.805   5.486
   41U     H2'1  910   5.035   3.849   5.574
   41U      O2'  911   5.014   3.688   5.446
   41U     HO'2  912   4.921   3.713   5.446
   41U      O3'  913   4.981   3.888   5.276
   42G        P  914   4.839   3.946   5.317
   42G      O1P  915   4.740   3.866   5.240
   42G      O2P  916   4.830   4.090   5.314
   42G      O5'  917   4.829   3.898   5.467
   42G      C5'  918   4.713   3.923   5.545
   42G     H5'1  919   4.631   3.922   5.473
   42G     H5'2  920   4.718   4.023   5.588
   42G      C4'  921   4.692   3.815   5.656
   42G      H4'  922   4.659   3.723   5.608
   42G      O4'  923   4.808   3.776   5.721
   42G      C1'  924   4.782   3.744   5.856
   42G      H1'  925   4.835   3.651   5.877
   42G       N9  926   4.842   3.832   5.949
   42G       C8  927   4.906   3.952   5.923
   42G       H8  928   4.915   3.996   5.824
   42G       N7  929   4.959   4.010   6.031
   42G       C5  930   4.927   3.928   6.136
   42G       C6  931   4.962   3.935   6.277
   42G       O6  932   5.021   4.031   6.334
   42G       N1  933   4.893   3.835   6.351
   42G       H1  934   4.886   3.847   6.451
   42G       C2  935   4.840   3.723   6.297
   42G       N2  936   4.781   3.636   6.374
   42G      H21  937   4.785   3.641   6.474
   42G      H22  938   4.723   3.568   6.327
   42G       N3  939   4.820   3.721   6.166
   42G       C4  940   4.863   3.817   6.088
   42G      C3'  941   4.594   3.844   5.773
   42G      H3'  942   4.621   3.946   5.802
   42G      C2'  943   4.631   3.742   5.876
   42G     H2'1  944   4.603   3.776   5.975
   42G      O2'  945   4.574   3.610   5.848
   42G     HO'2  946   4.566   3.572   5.935
   42G      O3'  947   4.460   3.851   5.740
   43G        P  948   4.358   3.962   5.796
   43G      O1P  949   4.227   3.946   5.733
   43G      O2P  950   4.423   4.090   5.777
   43G      O5'  951   4.343   3.931   5.955
   43G      C5'  952   4.291   3.808   5.998
   43G     H5'1  953   4.339   3.732   5.936
   43G     H5'2  954   4.184   3.814   5.979
   43G      C4'  955   4.316   3.784   6.150
   43G      H4'  956   4.258   3.694   6.172
   43G      O4'  957   4.458   3.769   6.178
   43G      C1'  958   4.490   3.829   6.309
   43G      H1'  959   4.540   3.756   6.373
   43G       N9  960   4.566   3.960   6.300
   43G       C8  961   4.600   4.030   6.189
   43G       H8  962   4.551   4.020   6.093
   43G       N7  963   4.678   4.131   6.211
   43G       C5  964   4.703   4.128   6.348
   43G       C6  965   4.783   4.208   6.437
   43G       O6  966   4.846   4.310   6.419
   43G       N1  967   4.790   4.158   6.563
   43G       H1  968   4.840   4.211   6.633
   43G       C2  969   4.717   4.052   6.609
   43G       N2  970   4.735   4.018   6.740
   43G      H21  971   4.790   4.077   6.801
   43G      H22  972   4.682   3.938   6.772
   43G       N3  973   4.634   3.981   6.537
   43G       C4  974   4.641   4.017   6.402
   43G      C3'  975   4.271   3.886   6.252
   43G      H3'  976   4.292   3.983   6.205
   43G      C2'  977   4.358   3.847   6.374
   43G     H2'1  978   4.361   3.934   6.439
   43G      O2'  979   4.300   3.727   6.429
   43G     HO'2  980   4.206   3.728   6.406
   43G      O3'  981   4.135   3.879   6.289
   44G        P  982   4.057   4.004   6.343
   44G      O1P  983   3.917   3.959   6.364
   44G      O2P  984   4.068   4.110   6.241
   44G      O5'  985   4.127   4.053   6.483
   44G      C5'  986   4.083   4.000   6.606
   44G     H5'1  987   4.079   3.891   6.607
   44G     H5'2  988   3.980   4.035   6.619
   44G      C4'  989   4.165   4.045   6.729
   44G      H4'  990   4.135   3.981   6.811
   44G      O4'  991   4.308   4.046   6.702
   44G      C1'  992   4.376   4.141   6.783
   44G      H1'  993   4.439   4.093   6.858
   44G       N9  994   4.450   4.238   6.702
   44G       C8  995   4.441   4.266   6.564
   44G       H8  996   4.384   4.206   6.494
   44G       N7  997   4.522   4.362   6.524
   44G       C5  998   4.584   4.408   6.637
   44G       C6  999   4.660   4.529   6.657
   44G       O6 1000   4.701   4.601   6.561
   44G       N1 1001   4.688   4.554   6.789
   44G       H1 1002   4.752   4.631   6.803
   44G       C2 1003   4.644   4.473   6.895
   44G       N2 1004   4.678   4.494   7.021
   44G      H21 1005   4.746   4.561   7.053
   44G      H22 1006   4.636   4.437   7.093
   44G       N3 1007   4.574   4.362   6.880
   44G       C4 1008   4.537   4.338   6.748
   44G      C3' 1009   4.126   4.189   6.773
   44G      H3' 1010   4.121   4.261   6.691
   44G      C2' 1011   4.261   4.225   6.844
   44G     H2'1 1012   4.274   4.332   6.828
   44G      O2' 1013   4.256   4.192   6.984
   44G     HO'2 1014   4.161   4.184   7.000
   44G      O3' 1015   4.010   4.203   6.856
   45A        P 1016   3.934   4.341   6.880
   45A      O1P 1017   3.811   4.304   6.955
   45A      O2P 1018   3.921   4.398   6.748
   45A      O5' 1019   4.037   4.418   6.972
   45A      C5' 1020   4.032   4.403   7.112
   45A     H5'1 1021   4.081   4.312   7.143
   45A     H5'2 1022   3.932   4.382   7.151
   45A      C4' 1023   4.101   4.514   7.183
   45A      H4' 1024   4.101   4.507   7.291
   45A      O4' 1025   4.239   4.515   7.135
   45A      C1' 1026   4.277   4.658   7.117
   45A      H1' 1027   4.365   4.678   7.177
   45A       N9 1028   4.312   4.682   6.970
   45A       C8 1029   4.274   4.610   6.860
   45A       H8 1030   4.226   4.513   6.862
   45A       N7 1031   4.334   4.643   6.753
   45A       C5 1032   4.405   4.757   6.787
   45A       C6 1033   4.476   4.857   6.719
   45A       N6 1034   4.513   4.846   6.595
   45A      H61 1035   4.523   4.755   6.552
   45A      H62 1036   4.577   4.920   6.570
   45A       N1 1037   4.518   4.970   6.778
   45A       C2 1038   4.500   4.983   6.906
   45A       H2 1039   4.536   5.074   6.952
   45A       N3 1040   4.435   4.895   6.986
   45A       C4 1041   4.390   4.783   6.918
   45A      C3' 1042   4.042   4.655   7.144
   45A      H3' 1043   4.011   4.655   7.039
   45A      C2' 1044   4.161   4.742   7.160
   45A     H2'1 1045   4.156   4.830   7.095
   45A      O2' 1046   4.171   4.765   7.301
   45A     HO'2 1047   4.084   4.796   7.328
   45A      O3' 1048   3.933   4.704   7.224
   46G        P 1049   3.825   4.806   7.173
   46G      O1P 1050   3.762   4.859   7.290
   46G      O2P 1051   3.746   4.728   7.072
   46G      O5' 1052   3.913   4.918   7.092
   46G      C5' 1053   3.959   5.033   7.151
   46G     H5'1 1054   4.034   5.000   7.223
   46G     H5'2 1055   3.881   5.085   7.207
   46G      C4' 1056   4.023   5.126   7.049
   46G      H4' 1057   4.071   5.211   7.097
   46G      O4' 1058   4.117   5.052   6.972
   46G      C1' 1059   4.134   5.111   6.842
   46G      H1' 1060   4.234   5.153   6.840
   46G       N9 1061   4.122   5.005   6.742
   46G       C8 1062   4.031   4.905   6.724
   46G       H8 1063   3.951   4.885   6.794
   46G       N7 1064   4.057   4.818   6.628
   46G       C5 1065   4.151   4.890   6.553
   46G       C6 1066   4.197   4.880   6.415
   46G       O6 1067   4.167   4.802   6.323
   46G       N1 1068   4.294   4.982   6.385
   46G       H1 1069   4.338   4.984   6.294
   46G       C2 1070   4.330   5.079   6.469
   46G       N2 1071   4.429   5.155   6.438
   46G      H21 1072   4.484   5.129   6.357
   46G      H22 1073   4.468   5.207   6.515
   46G       N3 1074   4.292   5.088   6.597
   46G       C4 1075   4.198   4.993   6.631
   46G      C3' 1076   3.917   5.168   6.943
   46G      H3' 1077   3.857   5.080   6.919
   46G      C2' 1078   4.019   5.207   6.835
   46G     H2'1 1079   3.963   5.196   6.742
   46G      O2' 1080   4.058   5.345   6.852
   46G     HO'2 1081   3.982   5.385   6.895
   46G      O3' 1082   3.844   5.282   6.986
   47U        P 1083   3.683   5.281   6.976
   47U      O1P 1084   3.634   5.385   7.064
   47U      O2P 1085   3.635   5.139   6.999
   47U      O5' 1086   3.641   5.330   6.831
   47U      C5' 1087   3.660   5.466   6.789
   47U     H5'1 1088   3.764   5.492   6.808
   47U     H5'2 1089   3.593   5.524   6.852
   47U      C4' 1090   3.634   5.496   6.641
   47U      H4' 1091   3.642   5.604   6.624
   47U      O4' 1092   3.733   5.431   6.562
   47U      C1' 1093   3.666   5.371   6.448
   47U      H1' 1094   3.651   5.454   6.379
   47U       N1 1095   3.750   5.264   6.381
   47U       C6 1096   3.810   5.161   6.447
   47U       H6 1097   3.819   5.175   6.553
   47U       C5 1098   3.853   5.046   6.385
   47U       H5 1099   3.893   4.968   6.448
   47U       C4 1100   3.846   5.036   6.244
   47U       O4 1101   3.888   4.932   6.188
   47U       N3 1102   3.775   5.134   6.179
   47U       H3 1103   3.759   5.126   6.079
   47U       C2 1104   3.742   5.255   6.240
   47U       O2 1105   3.697   5.347   6.169
   47U      C3' 1106   3.497   5.442   6.590
   47U      H3' 1107   3.436   5.407   6.673
   47U      C2' 1108   3.538   5.320   6.507
   47U     H2'1 1109   3.567   5.242   6.576
   47U      O2' 1110   3.440   5.273   6.413
   47U     HO'2 1111   3.357   5.263   6.461
   47U      O3' 1112   3.423   5.523   6.507
   48U        P 1113   3.329   5.641   6.565
   48U      O1P 1114   3.363   5.753   6.483
   48U      O2P 1115   3.334   5.639   6.714
   48U      O5' 1116   3.191   5.587   6.510
   48U      C5' 1117   3.124   5.480   6.579
   48U     H5'1 1118   3.069   5.521   6.663
   48U     H5'2 1119   3.200   5.408   6.607
   48U      C4' 1120   3.027   5.397   6.483
   48U      H4' 1121   3.009   5.303   6.534
   48U      O4' 1122   2.898   5.466   6.468
   48U      C1' 1123   2.878   5.493   6.336
   48U      H1' 1124   2.803   5.421   6.302
   48U       N1 1125   2.829   5.632   6.322
   48U       C6 1126   2.884   5.744   6.380
   48U       H6 1127   2.982   5.732   6.422
   48U       C5 1128   2.834   5.868   6.352
   48U       H5 1129   2.879   5.959   6.389
   48U       C4 1130   2.723   5.884   6.262
   48U       O4 1131   2.665   5.991   6.243
   48U       N3 1132   2.690   5.771   6.193
   48U       H3 1133   2.604   5.771   6.140
   48U       C2 1134   2.734   5.643   6.219
   48U       O2 1135   2.682   5.550   6.166
   48U      C3' 1136   3.085   5.366   6.337
   48U      H3' 1137   3.192   5.383   6.332
   48U      C2' 1138   3.008   5.471   6.254
   48U     H2'1 1139   3.067   5.561   6.269
   48U      O2' 1140   2.984   5.419   6.125
   48U     HO'2 1141   3.061   5.368   6.099
   48U      O3' 1142   3.047   5.229   6.290
   49U        P 1143   3.120   5.099   6.333
   49U      O1P 1144   3.024   4.986   6.346
   49U      O2P 1145   3.204   5.137   6.448
   49U      O5' 1146   3.204   5.080   6.204
   49U      C5' 1147   3.148   4.998   6.105
   49U     H5'1 1148   3.048   5.034   6.079
   49U     H5'2 1149   3.153   4.893   6.135
   49U      C4' 1150   3.223   5.025   5.978
   49U      H4' 1151   3.174   4.970   5.897
   49U      O4' 1152   3.234   5.168   5.955
   49U      C1' 1153   3.373   5.197   5.941
   49U      H1' 1154   3.393   5.178   5.835
   49U       N1 1155   3.408   5.336   5.987
   49U       C6 1156   3.380   5.368   6.117
   49U       H6 1157   3.347   5.298   6.192
   49U       C5 1158   3.392   5.495   6.165
   49U       H5 1159   3.392   5.528   6.267
   49U       C4 1160   3.425   5.599   6.076
   49U       O4 1161   3.437   5.715   6.110
   49U       N3 1162   3.472   5.562   5.955
   49U       H3 1163   3.506   5.642   5.903
   49U       C2 1164   3.450   5.441   5.900
   49U       O2 1165   3.464   5.411   5.784
   49U      C3' 1166   3.364   4.963   5.985
   49U      H3' 1167   3.372   4.895   6.069
   49U      C2' 1168   3.444   5.089   6.019
   49U     H2'1 1169   3.452   5.102   6.127
   49U      O2' 1170   3.576   5.091   5.970
   49U     HO'2 1171   3.597   4.998   5.968
   49U      O3' 1172   3.396   4.887   5.862
   50C        P 1173   3.515   4.783   5.864
   50C      O1P 1174   3.449   4.671   5.937
   50C      O2P 1175   3.627   4.847   5.923
   50C      O5' 1176   3.547   4.755   5.718
   50C      C5' 1177   3.464   4.672   5.640
   50C     H5'1 1178   3.366   4.651   5.684
   50C     H5'2 1179   3.503   4.571   5.636
   50C      C4' 1180   3.442   4.719   5.490
   50C      H4' 1181   3.370   4.645   5.454
   50C      O4' 1182   3.381   4.851   5.486
   50C      C1' 1183   3.443   4.916   5.365
   50C      H1' 1184   3.364   4.958   5.303
   50C       N1 1185   3.516   5.041   5.405
   50C       C6 1186   3.554   5.064   5.538
   50C       H6 1187   3.537   4.981   5.605
   50C       C5 1188   3.609   5.178   5.579
   50C       H5 1189   3.642   5.189   5.681
   50C       C4 1190   3.623   5.277   5.475
   50C       N4 1191   3.651   5.397   5.512
   50C      H41 1192   3.671   5.428   5.606
   50C      H42 1193   3.648   5.468   5.440
   50C       N3 1194   3.596   5.265   5.349
   50C       C2 1195   3.542   5.144   5.318
   50C       O2 1196   3.513   5.140   5.198
   50C      C3' 1197   3.575   4.730   5.412
   50C      H3' 1198   3.648   4.774   5.480
   50C      C2' 1199   3.544   4.821   5.295
   50C     H2'1 1200   3.636   4.861   5.252
   50C      O2' 1201   3.472   4.760   5.187
   50C     HO'2 1202   3.539   4.742   5.120
   50C      O3' 1203   3.611   4.593   5.383
   51U        P 1204   3.765   4.546   5.357
   51U      O1P 1205   3.768   4.451   5.245
   51U      O2P 1206   3.811   4.507   5.491
   51U      O5' 1207   3.839   4.687   5.319
   51U      C5' 1208   3.884   4.722   5.192
   51U     H5'1 1209   3.807   4.731   5.115
   51U     H5'2 1210   3.957   4.651   5.153
   51U      C4' 1211   3.953   4.860   5.214
   51U      H4' 1212   3.966   4.904   5.115
   51U      O4' 1213   3.865   4.951   5.282
   51U      C1' 1214   3.944   5.047   5.343
   51U      H1' 1215   3.910   5.138   5.293
   51U       N1 1216   3.915   5.066   5.486
   51U       C6 1217   3.871   4.958   5.562
   51U       H6 1218   3.845   4.865   5.514
   51U       C5 1219   3.863   4.973   5.694
   51U       H5 1220   3.811   4.895   5.747
   51U       C4 1221   3.897   5.100   5.760
   51U       O4 1222   3.876   5.124   5.876
   51U       N3 1223   3.950   5.196   5.681
   51U       H3 1224   3.990   5.280   5.721
   51U       C2 1225   3.957   5.187   5.548
   51U       O2 1226   4.008   5.278   5.485
   51U      C3' 1227   4.078   4.855   5.296
   51U      H3' 1228   4.051   4.803   5.388
   51U      C2' 1229   4.092   5.006   5.314
   51U     H2'1 1230   4.155   5.036   5.397
   51U      O2' 1231   4.150   5.075   5.200
   51U     HO'2 1232   4.105   5.048   5.119
   51U      O3' 1233   4.180   4.786   5.225
   52A        P 1234   4.310   4.741   5.305
   52A      O1P 1235   4.406   4.678   5.211
   52A      O2P 1236   4.267   4.669   5.430
   52A      O5' 1237   4.381   4.871   5.358
   52A      C5' 1238   4.481   4.936   5.276
   52A     H5'1 1239   4.424   4.963   5.187
   52A     H5'2 1240   4.558   4.864   5.250
   52A      C4' 1241   4.551   5.053   5.345
   52A      H4' 1242   4.613   5.106   5.273
   52A      O4' 1243   4.454   5.144   5.386
   52A      C1' 1244   4.487   5.193   5.517
   52A      H1' 1245   4.489   5.302   5.516
   52A       N9 1246   4.390   5.148   5.621
   52A       C8 1247   4.283   5.062   5.613
   52A       H8 1248   4.265   4.982   5.543
   52A       N7 1249   4.217   5.053   5.727
   52A       C5 1250   4.279   5.148   5.814
   52A       C6 1251   4.265   5.195   5.950
   52A       N6 1252   4.164   5.160   6.031
   52A      H61 1253   4.085   5.110   5.992
   52A      H62 1254   4.157   5.197   6.124
   52A       N1 1255   4.354   5.277   6.003
   52A       C2 1256   4.453   5.319   5.921
   52A       H2 1257   4.520   5.394   5.959
   52A       N3 1258   4.474   5.291   5.789
   52A       C4 1259   4.378   5.206   5.748
   52A      C3' 1260   4.639   5.014   5.471
   52A      H3' 1261   4.588   4.934   5.525
   52A      C2' 1262   4.631   5.152   5.542
   52A     H2'1 1263   4.650   5.144   5.649
   52A      O2' 1264   4.716   5.253   5.487
   52A     HO'2 1265   4.795   5.211   5.453
   52A      O3' 1266   4.769   4.971   5.437
   53C        P 1267   4.851   4.880   5.530
   53C      O1P 1268   4.989   4.866   5.476
   53C      O2P 1269   4.773   4.754   5.550
   53C      O5' 1270   4.848   4.957   5.664
   53C      C5' 1271   4.942   5.048   5.695
   53C     H5'1 1272   4.918   5.139   5.639
   53C     H5'2 1273   5.042   5.018   5.663
   53C      C4' 1274   4.937   5.086   5.845
   53C      H4' 1275   5.013   5.164   5.852
   53C      O4' 1276   4.806   5.140   5.880
   53C      C1' 1277   4.774   5.099   6.007
   53C      H1' 1278   4.778   5.180   6.080
   53C       N1 1279   4.639   5.031   6.008
   53C       C6 1280   4.598   4.944   5.915
   53C       H6 1281   4.647   4.937   5.819
   53C       C5 1282   4.493   4.860   5.928
   53C       H5 1283   4.464   4.785   5.856
   53C       C4 1284   4.428   4.858   6.057
   53C       N4 1285   4.330   4.780   6.082
   53C      H41 1286   4.306   4.712   6.011
   53C      H42 1287   4.294   4.781   6.176
   53C       N3 1288   4.458   4.944   6.150
   53C       C2 1289   4.558   5.035   6.129
   53C       O2 1290   4.579   5.123   6.210
   53C      C3' 1291   4.970   4.963   5.925
   53C      H3' 1292   4.942   4.869   5.878
   53C      C2' 1293   4.881   4.997   6.050
   53C     H2'1 1294   4.838   4.909   6.098
   53C      O2' 1295   4.946   5.066   6.148
   53C     HO'2 1296   5.022   5.013   6.171
   53C      O3' 1297   5.099   4.939   5.981
   54C        P 1298   5.216   4.877   5.890
   54C      O1P 1299   5.169   4.798   5.779
   54C      O2P 1300   5.316   4.810   5.982
   54C      O5' 1301   5.277   5.003   5.825
   54C      C5' 1302   5.346   5.094   5.904
   54C     H5'1 1303   5.436   5.047   5.944
   54C     H5'2 1304   5.279   5.125   5.984
   54C      C4' 1305   5.376   5.215   5.827
   54C      H4' 1306   5.287   5.231   5.766
   54C      O4' 1307   5.397   5.320   5.921
   54C      C1' 1308   5.472   5.426   5.860
   54C      H1' 1309   5.404   5.506   5.831
   54C       N1 1310   5.573   5.482   5.948
   54C       C6 1311   5.627   5.405   6.049
   54C       H6 1312   5.594   5.306   6.078
   54C       C5 1313   5.719   5.452   6.131
   54C       H5 1314   5.757   5.394   6.214
   54C       C4 1315   5.762   5.587   6.112
   54C       N4 1316   5.854   5.642   6.183
   54C      H41 1317   5.890   5.585   6.258
   54C      H42 1318   5.910   5.719   6.149
   54C       N3 1319   5.711   5.661   6.012
   54C       C2 1320   5.610   5.612   5.929
   54C       O2 1321   5.557   5.679   5.844
   54C      C3' 1322   5.507   5.215   5.754
   54C      H3' 1323   5.581   5.176   5.823
   54C      C2' 1324   5.521   5.364   5.727
   54C     H2'1 1325   5.624   5.397   5.716
   54C      O2' 1326   5.443   5.414   5.616
   54C     HO'2 1327   5.494   5.383   5.541
   54C      O3' 1328   5.496   5.146   5.635
   55A        P 1329   5.626   5.087   5.565
   55A      O1P 1330   5.583   4.977   5.487
   55A      O2P 1331   5.722   5.058   5.677
   55A      O5' 1332   5.697   5.201   5.469
   55A      C5' 1333   5.641   5.231   5.341
   55A     H5'1 1334   5.534   5.254   5.347
   55A     H5'2 1335   5.670   5.156   5.267
   55A      C4' 1336   5.702   5.365   5.299
   55A      H4' 1337   5.649   5.398   5.209
   55A      O4' 1338   5.688   5.474   5.399
   55A      C1' 1339   5.805   5.541   5.411
   55A      H1' 1340   5.797   5.650   5.406
   55A       N9 1341   5.873   5.521   5.541
   55A       C8 1342   5.862   5.417   5.625
   55A       H8 1343   5.819   5.321   5.601
   55A       N7 1344   5.911   5.447   5.741
   55A       C5 1345   5.963   5.577   5.730
   55A       C6 1346   6.036   5.668   5.816
   55A       N6 1347   6.067   5.654   5.942
   55A      H61 1348   6.039   5.573   5.995
   55A      H62 1349   6.123   5.724   5.989
   55A       N1 1350   6.084   5.780   5.765
   55A       C2 1351   6.055   5.813   5.639
   55A       H2 1352   6.097   5.902   5.595
   55A       N3 1353   5.983   5.740   5.557
   55A       C4 1354   5.948   5.621   5.603
   55A      C3' 1355   5.853   5.360   5.275
   55A      H3' 1356   5.911   5.305   5.349
   55A      C2' 1357   5.892   5.507   5.288
   55A     H2'1 1358   5.999   5.513   5.304
   55A      O2' 1359   5.853   5.581   5.173
   55A     HO'2 1360   5.879   5.532   5.094
   55A      O3' 1361   5.883   5.308   5.150
   56A        P 1362   6.011   5.222   5.135
   56A      O1P 1363   6.007   5.167   4.999
   56A      O2P 1364   6.034   5.139   5.252
   56A      O5' 1365   6.135   5.321   5.130
   56A      C5' 1366   6.156   5.418   5.024
   56A     H5'1 1367   6.060   5.470   5.015
   56A     H5'2 1368   6.178   5.368   4.929
   56A      C4' 1369   6.256   5.523   5.059
   56A      H4' 1370   6.250   5.596   4.978
   56A      O4' 1371   6.212   5.581   5.176
   56A      C1' 1372   6.322   5.615   5.255
   56A      H1' 1373   6.336   5.723   5.263
   56A       N9 1374   6.321   5.557   5.386
   56A       C8 1375   6.236   5.463   5.428
   56A       H8 1376   6.182   5.400   5.359
   56A       N7 1377   6.223   5.442   5.555
   56A       C5 1378   6.320   5.540   5.598
   56A       C6 1379   6.382   5.567   5.721
   56A       N6 1380   6.356   5.501   5.830
   56A      H61 1381   6.279   5.435   5.828
   56A      H62 1382   6.392   5.523   5.921
   56A       N1 1383   6.467   5.670   5.743
   56A       C2 1384   6.508   5.736   5.632
   56A       H2 1385   6.568   5.824   5.648
   56A       N3 1386   6.477   5.704   5.507
   56A       C4 1387   6.376   5.608   5.496
   56A      C3' 1388   6.394   5.467   5.089
   56A      H3' 1389   6.399   5.372   5.142
   56A      C2' 1390   6.449   5.572   5.185
   56A     H2'1 1391   6.528   5.550   5.256
   56A      O2' 1392   6.489   5.679   5.093
   56A     HO'2 1393   6.511   5.632   5.012
   56A      O3' 1394   6.484   5.453   4.973
   57G        P 1395   6.617   5.369   4.985
   57G      O1P 1396   6.688   5.358   4.854
   57G      O2P 1397   6.576   5.242   5.055
   57G      O5' 1398   6.708   5.438   5.081
   57G      C5' 1399   6.791   5.550   5.039
   57G     H5'1 1400   6.711   5.611   4.997
   57G     H5'2 1401   6.851   5.513   4.956
   57G      C4' 1402   6.877   5.625   5.140
   57G      H4' 1403   6.932   5.710   5.100
   57G      O4' 1404   6.780   5.653   5.242
   57G      C1' 1405   6.835   5.659   5.372
   57G      H1' 1406   6.837   5.757   5.420
   57G       N9 1407   6.784   5.547   5.456
   57G       C8 1408   6.705   5.438   5.429
   57G       H8 1409   6.670   5.411   5.330
   57G       N7 1410   6.673   5.367   5.534
   57G       C5 1411   6.737   5.437   5.638
   57G       C6 1412   6.726   5.408   5.781
   57G       O6 1413   6.662   5.321   5.847
   57G       N1 1414   6.807   5.502   5.851
   57G       H1 1415   6.817   5.484   5.950
   57G       C2 1416   6.878   5.602   5.796
   57G       N2 1417   6.956   5.671   5.875
   57G      H21 1418   6.970   5.645   5.971
   57G      H22 1419   7.005   5.753   5.841
   57G       N3 1420   6.882   5.627   5.663
   57G       C4 1421   6.804   5.545   5.591
   57G      C3' 1422   6.983   5.553   5.213
   57G      H3' 1423   6.955   5.450   5.234
   57G      C2' 1424   6.986   5.635   5.349
   57G     H2'1 1425   7.051   5.588   5.423
   57G      O2' 1426   7.040   5.766   5.319
   57G     HO'2 1427   7.093   5.794   5.394
   57G      O3' 1428   7.113   5.561   5.148
   58A        P 1429   7.229   5.458   5.186
   58A      O1P 1430   7.341   5.480   5.090
   58A      O2P 1431   7.167   5.327   5.191
   58A      O5' 1432   7.285   5.493   5.332
   58A      C5' 1433   7.370   5.609   5.350
   58A     H5'1 1434   7.327   5.698   5.304
   58A     H5'2 1435   7.469   5.599   5.305
   58A      C4' 1436   7.380   5.631   5.499
   58A      H4' 1437   7.436   5.723   5.516
   58A      O4' 1438   7.251   5.648   5.567
   58A      C1' 1439   7.250   5.584   5.696
   58A      H1' 1440   7.205   5.647   5.773
   58A       N9 1441   7.172   5.449   5.706
   58A       C8 1442   7.114   5.374   5.605
   58A       H8 1443   7.124   5.405   5.502
   58A       N7 1444   7.040   5.277   5.638
   58A       C5 1445   7.063   5.271   5.777
   58A       C6 1446   7.029   5.183   5.880
   58A       N6 1447   6.963   5.068   5.868
   58A      H61 1448   6.922   5.045   5.778
   58A      H62 1449   6.970   4.992   5.934
   58A       N1 1450   7.064   5.215   6.002
   58A       C2 1451   7.129   5.328   6.036
   58A       H2 1452   7.153   5.352   6.138
   58A       N3 1453   7.179   5.412   5.943
   58A       C4 1454   7.135   5.383   5.816
   58A      C3' 1455   7.441   5.518   5.584
   58A      H3' 1456   7.397   5.423   5.554
   58A      C2' 1457   7.403   5.567   5.723
   58A     H2'1 1458   7.418   5.494   5.802
   58A      O2' 1459   7.468   5.696   5.769
   58A     HO'2 1460   7.554   5.704   5.727
   58A      O3' 1461   7.582   5.500   5.564
   59G        P 1462   7.674   5.373   5.592
   59G      O1P 1463   7.815   5.411   5.585
   59G      O2P 1464   7.625   5.263   5.510
   59G      O5' 1465   7.654   5.339   5.748
   59G      C5' 1466   7.707   5.426   5.851
   59G     H5'1 1467   7.674   5.528   5.832
   59G     H5'2 1468   7.814   5.430   5.830
   59G      C4' 1469   7.672   5.384   5.991
   59G      H4' 1470   7.710   5.464   6.054
   59G      O4' 1471   7.528   5.373   5.990
   59G      C1' 1472   7.497   5.252   6.063
   59G      H1' 1473   7.420   5.263   6.139
   59G       N9 1474   7.454   5.141   5.981
   59G       C8 1475   7.428   5.140   5.846
   59G       H8 1476   7.476   5.200   5.770
   59G       N7 1477   7.352   5.037   5.815
   59G       C5 1478   7.314   4.976   5.934
   59G       C6 1479   7.211   4.880   5.967
   59G       O6 1480   7.124   4.826   5.897
   59G       N1 1481   7.213   4.842   6.097
   59G       H1 1482   7.186   4.748   6.120
   59G       C2 1483   7.281   4.904   6.190
   59G       N2 1484   7.270   4.863   6.314
   59G      H21 1485   7.217   4.780   6.335
   59G      H22 1486   7.328   4.902   6.386
   59G       N3 1487   7.347   5.009   6.168
   59G       C4 1488   7.372   5.042   6.036
   59G      C3' 1489   7.733   5.260   6.040
   59G      H3' 1490   7.745   5.195   5.953
   59G      C2' 1491   7.624   5.213   6.140
   59G     H2'1 1492   7.642   5.108   6.164
   59G      O2' 1493   7.626   5.287   6.262
   59G     HO'2 1494   7.651   5.377   6.238
   59G      O3' 1495   7.853   5.276   6.114
   60C        P 1496   7.963   5.171   6.153
   60C      O1P 1497   8.051   5.246   6.251
   60C      O2P 1498   8.026   5.128   6.027
   60C      O5' 1499   7.903   5.047   6.228
   60C      C5' 1500   7.862   5.040   6.364
   60C     H5'1 1501   7.792   5.120   6.387
   60C     H5'2 1502   7.945   5.065   6.429
   60C      C4' 1503   7.796   4.908   6.395
   60C      H4' 1504   7.774   4.894   6.500
   60C      O4' 1505   7.670   4.918   6.330
   60C      C1' 1506   7.631   4.792   6.295
   60C      H1' 1507   7.540   4.760   6.347
   60C       N1 1508   7.623   4.774   6.146
   60C       C6 1509   7.715   4.831   6.059
   60C       H6 1510   7.804   4.879   6.097
   60C       C5 1511   7.690   4.834   5.925
   60C       H5 1512   7.755   4.888   5.858
   60C       C4 1513   7.576   4.767   5.881
   60C       N4 1514   7.538   4.771   5.759
   60C      H41 1515   7.575   4.844   5.699
   60C      H42 1516   7.445   4.738   5.735
   60C       N3 1517   7.492   4.702   5.955
   60C       C2 1518   7.519   4.697   6.092
   60C       O2 1519   7.455   4.629   6.165
   60C      C3' 1520   7.862   4.776   6.361
   60C      H3' 1521   7.925   4.779   6.272
   60C      C2' 1522   7.736   4.692   6.347
   60C     H2'1 1523   7.751   4.599   6.292
   60C      O2' 1524   7.688   4.657   6.471
   60C     HO'2 1525   7.754   4.596   6.504
   60C      O3' 1526   7.942   4.734   6.473
   61C        P 1527   8.048   4.610   6.467
   61C      O1P 1528   8.114   4.597   6.595
   61C      O2P 1529   8.128   4.622   6.344
   61C      O5' 1530   7.948   4.496   6.455
   61C      C5' 1531   7.899   4.427   6.567
   61C     H5'1 1532   7.838   4.494   6.628
   61C     H5'2 1533   7.977   4.393   6.635
   61C      C4' 1534   7.804   4.314   6.530
   61C      H4' 1535   7.745   4.283   6.616
   61C      O4' 1536   7.717   4.349   6.419
   61C      C1' 1537   7.703   4.241   6.331
   61C      H1' 1538   7.596   4.220   6.336
   61C       N1 1539   7.732   4.290   6.197
   61C       C6 1540   7.838   4.374   6.167
   61C       H6 1541   7.904   4.407   6.246
   61C       C5 1542   7.839   4.437   6.047
   61C       H5 1543   7.918   4.504   6.018
   61C       C4 1544   7.746   4.405   5.948
   61C       N4 1545   7.753   4.477   5.837
   61C      H41 1546   7.835   4.536   5.834
   61C      H42 1547   7.691   4.467   5.758
   61C       N3 1548   7.648   4.318   5.968
   61C       C2 1549   7.646   4.252   6.089
   61C       O2 1550   7.561   4.159   6.097
   61C      C3' 1551   7.883   4.190   6.481
   61C      H3' 1552   7.968   4.204   6.415
   61C      C2' 1553   7.781   4.126   6.388
   61C     H2'1 1554   7.843   4.069   6.319
   61C      O2' 1555   7.687   4.054   6.463
   61C     HO'2 1556   7.607   4.030   6.416
   61C      O3' 1557   7.922   4.106   6.589
   62U        P 1558   8.078   4.086   6.612
   62U      O1P 1559   8.075   3.991   6.725
   62U      O2P 1560   8.139   4.217   6.628
   62U      O5' 1561   8.126   4.017   6.474
   62U      C5' 1562   8.060   3.893   6.433
   62U     H5'1 1563   7.954   3.902   6.408
   62U     H5'2 1564   8.057   3.827   6.519
   62U      C4' 1565   8.146   3.829   6.329
   62U      H4' 1566   8.109   3.730   6.301
   62U      O4' 1567   8.144   3.912   6.211
   62U      C1' 1568   8.275   3.929   6.173
   62U      H1' 1569   8.311   3.848   6.110
   62U       N1 1570   8.295   4.050   6.100
   62U       C6 1571   8.230   4.170   6.133
   62U       H6 1572   8.171   4.166   6.223
   62U       C5 1573   8.265   4.292   6.082
   62U       H5 1574   8.209   4.374   6.125
   62U       C4 1575   8.345   4.304   5.959
   62U       O4 1576   8.369   4.405   5.893
   62U       N3 1577   8.390   4.178   5.917
   62U       H3 1578   8.445   4.177   5.832
   62U       C2 1579   8.379   4.049   5.983
   62U       O2 1580   8.437   3.954   5.935
   62U      C3' 1581   8.295   3.820   6.374
   62U      H3' 1582   8.285   3.846   6.479
   62U      C2' 1583   8.360   3.931   6.303
   62U     H2'1 1584   8.360   4.027   6.355
   62U      O2' 1585   8.498   3.902   6.285
   62U     HO'2 1586   8.495   3.815   6.245
   62U      O3' 1587   8.365   3.702   6.353
   63U        P 1588   8.355   3.582   6.462
   63U      O1P 1589   8.299   3.632   6.590
   63U      O2P 1590   8.489   3.533   6.456
   63U      O5' 1591   8.248   3.479   6.395
   63U      C5' 1592   8.113   3.491   6.430
   63U     H5'1 1593   8.076   3.593   6.445
   63U     H5'2 1594   8.077   3.436   6.517
   63U      C4' 1595   8.022   3.429   6.317
   63U      H4' 1596   7.929   3.401   6.366
   63U      O4' 1597   7.987   3.532   6.225
   63U      C1' 1598   7.986   3.472   6.096
   63U      H1' 1599   7.896   3.410   6.089
   63U       N1 1600   8.004   3.566   5.982
   63U       C6 1601   8.092   3.676   5.998
   63U       H6 1602   8.135   3.691   6.095
   63U       C5 1603   8.109   3.762   5.896
   63U       H5 1604   8.176   3.845   5.912
   63U       C4 1605   8.040   3.742   5.772
   63U       O4 1606   8.069   3.801   5.666
   63U       N3 1607   7.976   3.622   5.763
   63U       H3 1608   7.938   3.602   5.671
   63U       C2 1609   7.944   3.535   5.863
   63U       O2 1610   7.872   3.436   5.844
   63U      C3' 1611   8.077   3.307   6.236
   63U      H3' 1612   8.173   3.276   6.275
   63U      C2' 1613   8.093   3.362   6.099
   63U     H2'1 1614   8.185   3.420   6.100
   63U      O2' 1615   8.091   3.268   5.990
   63U     HO'2 1616   8.097   3.180   6.027
   63U      O3' 1617   7.979   3.209   6.241
   64A        P 1618   7.990   3.093   6.346
   64A      O1P 1619   8.129   3.056   6.375
   64A      O2P 1620   7.897   2.985   6.302
   64A      O5' 1621   7.932   3.163   6.481
   64A      C5' 1622   7.786   3.157   6.494
   64A     H5'1 1623   7.761   3.053   6.513
   64A     H5'2 1624   7.731   3.180   6.402
   64A      C4' 1625   7.747   3.263   6.608
   64A      H4' 1626   7.782   3.230   6.705
   64A      O4' 1627   7.806   3.388   6.581
   64A      C1' 1628   7.719   3.490   6.599
   64A      H1' 1629   7.751   3.550   6.684
   64A       N9 1630   7.708   3.566   6.468
   64A       C8 1631   7.727   3.697   6.450
   64A       H8 1632   7.755   3.769   6.525
   64A       N7 1633   7.717   3.740   6.328
   64A       C5 1634   7.692   3.625   6.260
   64A       C6 1635   7.657   3.600   6.126
   64A       N6 1636   7.660   3.695   6.035
   64A      H61 1637   7.651   3.791   6.066
   64A      H62 1638   7.616   3.668   5.948
   64A       N1 1639   7.616   3.479   6.084
   64A       C2 1640   7.611   3.388   6.180
   64A       H2 1641   7.569   3.295   6.146
   64A       N3 1642   7.630   3.393   6.306
   64A       C4 1643   7.667   3.519   6.345
   64A      C3' 1644   7.595   3.277   6.615
   64A      H3' 1645   7.548   3.252   6.520
   64A      C2' 1646   7.583   3.431   6.635
   64A     H2'1 1647   7.505   3.473   6.570
   64A      O2' 1648   7.563   3.460   6.772
   64A     HO'2 1649   7.525   3.384   6.816
   64A      O3' 1650   7.545   3.206   6.722
   65A        P 1651   7.388   3.169   6.711
   65A      O1P 1652   7.356   3.085   6.825
   65A      O2P 1653   7.366   3.103   6.583
   65A      O5' 1654   7.312   3.308   6.726
   65A      C5' 1655   7.266   3.358   6.847
   65A     H5'1 1656   7.349   3.367   6.916
   65A     H5'2 1657   7.196   3.287   6.891
   65A      C4' 1658   7.192   3.492   6.818
   65A      H4' 1659   7.177   3.548   6.910
   65A      O4' 1660   7.266   3.582   6.737
   65A      C1' 1661   7.196   3.629   6.628
   65A      H1' 1662   7.136   3.718   6.649
   65A       N9 1663   7.286   3.650   6.505
   65A       C8 1664   7.304   3.576   6.388
   65A       H8 1665   7.277   3.472   6.375
   65A       N7 1666   7.350   3.648   6.285
   65A       C5 1667   7.380   3.775   6.338
   65A       C6 1668   7.441   3.888   6.291
   65A       N6 1669   7.466   3.906   6.163
   65A      H61 1670   7.420   3.847   6.095
   65A      H62 1671   7.506   3.995   6.136
   65A       N1 1672   7.450   3.994   6.364
   65A       C2 1673   7.415   3.991   6.494
   65A       H2 1674   7.421   4.088   6.541
   65A       N3 1675   7.370   3.883   6.558
   65A       C4 1676   7.344   3.771   6.471
   65A      C3' 1677   7.059   3.487   6.759
   65A      H3' 1678   7.018   3.387   6.770
   65A      C2' 1679   7.105   3.513   6.610
   65A     H2'1 1680   7.158   3.421   6.587
   65A      O2' 1681   7.004   3.535   6.513
   65A     HO'2 1682   6.930   3.578   6.556
   65A      O3' 1683   6.972   3.582   6.816
   66A        P 1684   6.810   3.578   6.789
   66A      O1P 1685   6.751   3.479   6.880
   66A      O2P 1686   6.783   3.579   6.642
   66A      O5' 1687   6.746   3.711   6.851
   66A      C5' 1688   6.713   3.821   6.769
   66A     H5'1 1689   6.647   3.879   6.833
   66A     H5'2 1690   6.660   3.786   6.680
   66A      C4' 1691   6.832   3.911   6.739
   66A      H4' 1692   6.877   3.928   6.836
   66A      O4' 1693   6.924   3.859   6.640
   66A      C1' 1694   6.992   3.962   6.574
   66A      H1' 1695   7.093   3.970   6.612
   66A       N9 1696   6.995   3.940   6.432
   66A       C8 1697   6.944   3.837   6.353
   66A       H8 1698   6.879   3.758   6.388
   66A       N7 1699   6.990   3.837   6.233
   66A       C5 1700   7.067   3.955   6.233
   66A       C6 1701   7.142   4.026   6.129
   66A       N6 1702   7.157   4.000   6.000
   66A      H61 1703   7.101   3.924   5.964
   66A      H62 1704   7.208   4.067   5.944
   66A       N1 1705   7.215   4.138   6.159
   66A       C2 1706   7.209   4.176   6.286
   66A       H2 1707   7.266   4.264   6.312
   66A       N3 1708   7.142   4.127   6.390
   66A       C4 1709   7.075   4.016   6.355
   66A      C3' 1710   6.790   4.041   6.679
   66A      H3' 1711   6.712   4.032   6.602
   66A      C2' 1712   6.913   4.090   6.611
   66A     H2'1 1713   6.897   4.146   6.519
   66A      O2' 1714   6.993   4.161   6.705
   66A     HO'2 1715   6.965   4.253   6.701
   66A      O3' 1716   6.737   4.138   6.781
   67C        P 1717   6.663   4.278   6.743
   67C      O1P 1718   6.591   4.321   6.863
   67C      O2P 1719   6.590   4.260   6.617
   67C      O5' 1720   6.779   4.368   6.705
   67C      C5' 1721   6.855   4.424   6.804
   67C     H5'1 1722   6.916   4.356   6.863
   67C     H5'2 1723   6.796   4.493   6.864
   67C      C4' 1724   6.949   4.513   6.722
   67C      H4' 1725   7.031   4.544   6.785
   67C      O4' 1726   6.998   4.438   6.613
   67C      C1' 1727   7.041   4.520   6.504
   67C      H1' 1728   7.149   4.514   6.515
   67C       N1 1729   6.993   4.481   6.365
   67C       C6 1730   6.908   4.375   6.350
   67C       H6 1731   6.850   4.345   6.436
   67C       C5 1732   6.900   4.312   6.230
   67C       H5 1733   6.826   4.233   6.227
   67C       C4 1734   6.978   4.367   6.123
   67C       N4 1735   6.958   4.314   6.002
   67C      H41 1736   6.904   4.230   5.987
   67C      H42 1737   7.033   4.337   5.939
   67C       N3 1738   7.047   4.482   6.131
   67C       C2 1739   7.057   4.536   6.255
   67C       O2 1740   7.147   4.617   6.259
   67C      C3' 1741   6.891   4.637   6.658
   67C      H3' 1742   6.791   4.623   6.617
   67C      C2' 1743   7.002   4.654   6.548
   67C     H2'1 1744   6.964   4.711   6.462
   67C      O2' 1745   7.120   4.712   6.603
   67C     HO'2 1746   7.093   4.804   6.612
   67C      O3' 1747   6.900   4.746   6.747
   68U        P 1748   6.780   4.801   6.825
   68U      O1P 1749   6.780   4.742   6.959
   68U      O2P 1750   6.654   4.793   6.749
   68U      O5' 1751   6.835   4.955   6.838
   68U      C5' 1752   6.949   4.987   6.903
   68U     H5'1 1753   7.007   4.898   6.927
   68U     H5'2 1754   6.921   5.031   6.998
   68U      C4' 1755   7.039   5.087   6.828
   68U      H4' 1756   7.120   5.112   6.895
   68U      O4' 1757   7.099   5.037   6.712
   68U      C1' 1758   7.085   5.131   6.604
   68U      H1' 1759   7.187   5.156   6.576
   68U       N1 1760   7.010   5.086   6.484
   68U       C6 1761   6.911   4.990   6.489
   68U       H6 1762   6.883   4.960   6.589
   68U       C5 1763   6.852   4.941   6.373
   68U       H5 1764   6.788   4.854   6.382
   68U       C4 1765   6.883   4.996   6.243
   68U       O4 1766   6.843   4.951   6.133
   68U       N3 1767   6.964   5.104   6.252
   68U       H3 1768   6.986   5.162   6.172
   68U       C2 1769   7.028   5.156   6.364
   68U       O2 1770   7.090   5.258   6.347
   68U      C3' 1771   6.955   5.215   6.793
   68U      H3' 1772   6.853   5.177   6.781
   68U      C2' 1773   7.027   5.257   6.664
   68U     H2'1 1774   6.958   5.302   6.592
   68U      O2' 1775   7.129   5.346   6.702
   68U     HO'2 1776   7.080   5.429   6.711
   68U      O3' 1777   6.939   5.316   6.896
   69C        P 1778   6.829   5.432   6.878
   69C      O1P 1779   6.834   5.516   7.002
   69C      O2P 1780   6.697   5.373   6.835
   69C      O5' 1781   6.894   5.526   6.764
   69C      C5' 1782   6.995   5.628   6.787
   69C     H5'1 1783   7.077   5.581   6.841
   69C     H5'2 1784   6.939   5.703   6.843
   69C      C4' 1785   7.041   5.687   6.655
   69C      H4' 1786   7.138   5.731   6.675
   69C      O4' 1787   7.060   5.587   6.562
   69C      C1' 1788   7.036   5.634   6.437
   69C      H1' 1789   7.131   5.630   6.385
   69C       N1 1790   6.934   5.559   6.360
   69C       C6 1791   6.852   5.460   6.422
   69C       H6 1792   6.865   5.457   6.529
   69C       C5 1793   6.769   5.380   6.354
   69C       H5 1794   6.713   5.305   6.408
   69C       C4 1795   6.777   5.392   6.211
   69C       N4 1796   6.708   5.307   6.137
   69C      H41 1797   6.660   5.235   6.189
   69C      H42 1798   6.720   5.315   6.037
   69C       N3 1799   6.851   5.483   6.150
   69C       C2 1800   6.937   5.560   6.221
   69C       O2 1801   7.018   5.628   6.163
   69C      C3' 1802   6.943   5.785   6.588
   69C      H3' 1803   6.845   5.737   6.598
   69C      C2' 1804   7.001   5.775   6.449
   69C     H2'1 1805   6.931   5.820   6.378
   69C      O2' 1806   7.117   5.854   6.442
   69C     HO'2 1807   7.160   5.846   6.356
   69C      O3' 1808   6.941   5.910   6.653
   70U        P 1809   6.832   6.020   6.629
   70U      O1P 1810   6.858   6.149   6.693
   70U      O2P 1811   6.709   5.951   6.668
   70U      O5' 1812   6.837   6.041   6.468
   70U      C5' 1813   6.946   6.129   6.424
   70U     H5'1 1814   7.034   6.081   6.465
   70U     H5'2 1815   6.925   6.227   6.467
   70U      C4' 1816   6.946   6.133   6.276
   70U      H4' 1817   7.035   6.192   6.256
   70U      O4' 1818   6.944   6.003   6.223
   70U      C1' 1819   6.871   6.000   6.103
   70U      H1' 1820   6.943   5.975   6.025
   70U       N1 1821   6.773   5.889   6.104
   70U       C6 1822   6.716   5.838   6.222
   70U       H6 1823   6.744   5.874   6.319
   70U       C5 1824   6.631   5.731   6.213
   70U       H5 1825   6.587   5.694   6.304
   70U       C4 1826   6.583   5.679   6.084
   70U       O4 1827   6.512   5.579   6.075
   70U       N3 1828   6.627   5.742   5.974
   70U       H3 1829   6.581   5.710   5.890
   70U       C2 1830   6.709   5.856   5.979
   70U       O2 1831   6.715   5.932   5.878
   70U      C3' 1832   6.821   6.203   6.218
   70U      H3' 1833   6.731   6.170   6.270
   70U      C2' 1834   6.814   6.138   6.077
   70U     H2'1 1835   6.710   6.132   6.044
   70U      O2' 1836   6.903   6.202   5.998
   70U     HO'2 1837   6.885   6.296   6.006
   70U      O3' 1838   6.825   6.345   6.206
   71U        P 1839   6.699   6.425   6.238
   71U      O1P 1840   6.747   6.560   6.254
   71U      O2P 1841   6.631   6.364   6.350
   71U      O5' 1842   6.610   6.408   6.108
   71U      C5' 1843   6.646   6.484   5.994
   71U     H5'1 1844   6.754   6.488   5.981
   71U     H5'2 1845   6.617   6.588   6.011
   71U      C4' 1846   6.574   6.447   5.862
   71U      H4' 1847   6.617   6.517   5.790
   71U      O4' 1848   6.611   6.318   5.809
   71U      C1' 1849   6.502   6.250   5.751
   71U      H1' 1850   6.530   6.210   5.653
   71U       N1 1851   6.449   6.146   5.834
   71U       C6 1852   6.487   6.130   5.960
   71U       H6 1853   6.544   6.208   6.008
   71U       C5 1854   6.430   6.029   6.037
   71U       H5 1855   6.465   6.006   6.136
   71U       C4 1856   6.340   5.933   5.977
   71U       O4 1857   6.289   5.837   6.041
   71U       N3 1858   6.315   5.951   5.841
   71U       H3 1859   6.236   5.903   5.800
   71U       C2 1860   6.365   6.056   5.767
   71U       O2 1861   6.338   6.062   5.649
   71U      C3' 1862   6.425   6.458   5.850
   71U      H3' 1863   6.376   6.407   5.933
   71U      C2' 1864   6.404   6.367   5.730
   71U     H2'1 1865   6.301   6.332   5.736
   71U      O2' 1866   6.437   6.435   5.606
   71U     HO'2 1867   6.366   6.499   5.594
   71U      O3' 1868   6.383   6.590   5.844
   72G        P 1869   6.235   6.632   5.912
   72G      O1P 1870   6.218   6.774   5.908
   72G      O2P 1871   6.222   6.572   6.046
   72G      O5' 1872   6.117   6.569   5.822
   72G      C5' 1873   6.097   6.618   5.691
   72G     H5'1 1874   6.200   6.631   5.658
   72G     H5'2 1875   6.051   6.716   5.680
   72G      C4' 1876   6.023   6.518   5.604
   72G      H4' 1877   6.027   6.551   5.500
   72G      O4' 1878   6.082   6.385   5.614
   72G      C1' 1879   5.985   6.284   5.616
   72G      H1' 1880   6.007   6.205   5.544
   72G       N9 1881   6.000   6.226   5.753
   72G       C8 1882   6.071   6.266   5.865
   72G       H8 1883   6.133   6.354   5.876
   72G       N7 1884   6.066   6.180   5.967
   72G       C5 1885   5.967   6.089   5.919
   72G       C6 1886   5.912   5.971   5.985
   72G       O6 1887   5.952   5.911   6.085
   72G       N1 1888   5.809   5.920   5.913
   72G       H1 1889   5.755   5.847   5.957
   72G       C2 1890   5.776   5.963   5.785
   72G       N2 1891   5.686   5.899   5.721
   72G      H21 1892   5.647   5.812   5.753
   72G      H22 1893   5.659   5.934   5.630
   72G       N3 1894   5.823   6.069   5.721
   72G       C4 1895   5.921   6.126   5.798
   72G      C3' 1896   5.877   6.492   5.646
   72G      H3' 1897   5.880   6.479   5.754
   72G      C2' 1898   5.854   6.361   5.576
   72G     H2'1 1899   5.763   6.320   5.621
   72G      O2' 1900   5.831   6.367   5.434
   72G     HO'2 1901   5.797   6.455   5.414
   72G      O3' 1902   5.787   6.597   5.603
   73A        P 1903   5.647   6.625   5.671
   73A      O1P 1904   5.581   6.713   5.571
   73A      O2P 1905   5.672   6.673   5.807
   73A      O5' 1906   5.571   6.479   5.679
   73A      C5' 1907   5.500   6.424   5.567
   73A     H5'1 1908   5.550   6.435   5.470
   73A     H5'2 1909   5.406   6.479   5.567
   73A      C4' 1910   5.489   6.273   5.598
   73A      H4' 1911   5.583   6.224   5.573
   73A      O4' 1912   5.455   6.247   5.729
   73A      C1' 1913   5.421   6.111   5.738
   73A      H1' 1914   5.514   6.063   5.768
   73A       N9 1915   5.311   6.098   5.838
   73A       C8 1916   5.232   6.191   5.903
   73A       H8 1917   5.234   6.297   5.879
   73A       N7 1918   5.139   6.136   5.976
   73A       C5 1919   5.160   6.001   5.960
   73A       C6 1920   5.099   5.886   6.012
   73A       N6 1921   5.007   5.890   6.107
   73A      H61 1922   4.988   5.979   6.150
   73A      H62 1923   4.973   5.807   6.153
   73A       N1 1924   5.142   5.767   5.978
   73A       C2 1925   5.238   5.759   5.889
   73A       H2 1926   5.264   5.660   5.855
   73A       N3 1927   5.306   5.862   5.835
   73A       C4 1928   5.267   5.977   5.881
   73A      C3' 1929   5.371   6.205   5.521
   73A      H3' 1930   5.281   6.262   5.544
   73A      C2' 1931   5.377   6.069   5.594
   73A     H2'1 1932   5.278   6.024   5.600
   73A      O2' 1933   5.458   5.978   5.518
   73A     HO'2 1934   5.447   5.887   5.544
   73A      O3' 1935   5.374   6.187   5.379
   74U        P 1936   5.236   6.179   5.294
   74U      O1P 1937   5.265   6.132   5.160
   74U      O2P 1938   5.178   6.313   5.304
   74U      O5' 1939   5.140   6.084   5.360
   74U      C5' 1940   5.152   5.942   5.364
   74U     H5'1 1941   5.248   5.907   5.400
   74U     H5'2 1942   5.135   5.904   5.263
   74U      C4' 1943   5.044   5.883   5.458
   74U      H4' 1944   5.056   5.775   5.462
   74U      O4' 1945   5.052   5.927   5.593
   74U      C1' 1946   4.928   5.898   5.659
   74U      H1' 1947   4.918   5.803   5.710
   74U       N1 1948   4.893   6.014   5.751
   74U       C6 1949   4.924   6.142   5.722
   74U       H6 1950   4.978   6.171   5.633
   74U       C5 1951   4.891   6.246   5.808
   74U       H5 1952   4.920   6.348   5.787
   74U       C4 1953   4.811   6.218   5.925
   74U       O4 1954   4.778   6.301   6.012
   74U       N3 1955   4.784   6.087   5.945
   74U       H3 1956   4.723   6.069   6.023
   74U       C2 1957   4.817   5.980   5.861
   74U       O2 1958   4.776   5.866   5.891
   74U      C3' 1959   4.904   5.919   5.413
   74U      H3' 1960   4.895   6.026   5.394
   74U      C2' 1961   4.832   5.881   5.548
   74U     H2'1 1962   4.745   5.948   5.556
   74U      O2' 1963   4.779   5.746   5.552
   74U     HO'2 1964   4.709   5.731   5.488
   74U      O3' 1965   4.864   5.850   5.292
   75U        P 1966   4.721   5.882   5.241
   75U      O1P 1967   4.719   5.832   5.104
   75U      O2P 1968   4.689   6.028   5.264
   75U      O5' 1969   4.626   5.795   5.331
   75U      C5' 1970   4.620   5.658   5.308
   75U     H5'1 1971   4.715   5.607   5.325
   75U     H5'2 1972   4.608   5.636   5.202
   75U      C4' 1973   4.510   5.577   5.397
   75U      H4' 1974   4.495   5.477   5.356
   75U      O4' 1975   4.550   5.575   5.538
   75U      C1' 1976   4.438   5.585   5.619
   75U      H1' 1977   4.436   5.506   5.693
   75U       N1 1978   4.426   5.713   5.702
   75U       C6 1979   4.487   5.833   5.673
   75U       H6 1980   4.544   5.833   5.581
   75U       C5 1981   4.478   5.936   5.755
   75U       H5 1982   4.516   6.034   5.728
   75U       C4 1983   4.409   5.931   5.883
   75U       O4 1984   4.395   6.019   5.972
   75U       N3 1985   4.336   5.811   5.897
   75U       H3 1986   4.293   5.799   5.987
   75U       C2 1987   4.343   5.699   5.818
   75U       O2 1988   4.279   5.599   5.847
   75U      C3' 1989   4.371   5.647   5.398
   75U      H3' 1990   4.378   5.754   5.418
   75U      C2' 1991   4.318   5.579   5.524
   75U     H2'1 1992   4.243   5.638   5.577
   75U      O2' 1993   4.252   5.455   5.509
   75U     HO'2 1994   4.263   5.418   5.421
   75U      O3' 1995   4.302   5.629   5.279
   76A        P 1996   4.188   5.736   5.232
   76A      O1P 1997   4.125   5.661   5.123
   76A      O2P 1998   4.250   5.872   5.212
   76A      O5' 1999   4.083   5.745   5.354
   76A      C5' 2000   3.998   5.628   5.368
   76A     H5'1 2001   4.069   5.546   5.358
   76A     H5'2 2002   3.911   5.633   5.302
   76A      C4' 2003   3.941   5.619   5.506
   76A      H4' 2004   3.913   5.514   5.511
   76A      O4' 2005   4.030   5.651   5.609
   76A      C1' 2006   3.956   5.710   5.723
   76A      H1' 2007   3.970   5.656   5.816
   76A       N9 2008   4.002   5.851   5.752
   76A       C8 2009   4.096   5.927   5.687
   76A       H8 2010   4.145   5.904   5.593
   76A       N7 2011   4.123   6.047   5.744
   76A       C5 2012   4.034   6.047   5.856
   76A       C6 2013   4.018   6.137   5.960
   76A       N6 2014   4.077   6.257   5.975
   76A      H61 2015   4.148   6.292   5.912
   76A      H62 2016   4.065   6.312   6.059
   76A       N1 2017   3.927   6.105   6.053
   76A       C2 2018   3.856   5.991   6.048
   76A       H2 2019   3.782   5.964   6.122
   76A       N3 2020   3.870   5.899   5.956
   76A       C4 2021   3.961   5.932   5.860
   76A      C3' 2022   3.821   5.713   5.524
   76A      H3' 2023   3.851   5.815   5.499
   76A      C2' 2024   3.810   5.705   5.681
   76A     H2'1 2025   3.752   5.786   5.725
   76A      O2' 2026   3.765   5.577   5.742
   76A     HO'2 2027   3.757   5.587   5.837
   76A      O3' 2028   3.705   5.670   5.450
   77U        P 2029   3.608   5.763   5.370
   77U      O1P 2030   3.526   5.688   5.277
   77U      O2P 2031   3.690   5.877   5.318
   77U      O5' 2032   3.513   5.811   5.478
   77U      C5' 2033   3.438   5.713   5.547
   77U     H5'1 2034   3.506   5.632   5.572
   77U     H5'2 2035   3.360   5.672   5.483
   77U      C4' 2036   3.395   5.781   5.687
   77U      H4' 2037   3.338   5.714   5.751
   77U      O4' 2038   3.503   5.825   5.767
   77U      C1' 2039   3.465   5.936   5.844
   77U      H1' 2040   3.482   5.916   5.949
   77U       N1 2041   3.552   6.052   5.805
   77U       C6 2042   3.621   6.070   5.689
   77U       H6 2043   3.601   5.998   5.611
   77U       C5 2044   3.710   6.169   5.675
   77U       H5 2045   3.775   6.185   5.590
   77U       C4 2046   3.730   6.263   5.779
   77U       O4 2047   3.817   6.348   5.774
   77U       N3 2048   3.642   6.258   5.884
   77U       H3 2049   3.663   6.318   5.962
   77U       C2 2050   3.568   6.155   5.907
   77U       O2 2051   3.512   6.151   6.014
   77U      C3' 2052   3.309   5.906   5.668
   77U      H3' 2053   3.367   5.962   5.594
   77U      C2' 2054   3.322   5.970   5.809
   77U     H2'1 2055   3.306   6.077   5.796
   77U      O2' 2056   3.239   5.899   5.905
   77U     HO'2 2057   3.160   5.867   5.860
   77U      O3' 2058   3.179   5.880   5.621
   78G        P 2059   3.116   5.978   5.515
   78G      O1P 2060   2.980   5.920   5.478
   78G      O2P 2061   3.213   6.021   5.414
   78G      O5' 2062   3.085   6.113   5.602
   78G      C5' 2063   2.974   6.120   5.695
   78G     H5'1 2064   2.973   6.025   5.749
   78G     H5'2 2065   2.877   6.125   5.645
   78G      C4' 2066   2.978   6.239   5.789
   78G      H4' 2067   2.900   6.246   5.865
   78G      O4' 2068   3.106   6.243   5.844
   78G      C1' 2069   3.146   6.373   5.876
   78G      H1' 2070   3.137   6.403   5.980
   78G       N9 2071   3.279   6.404   5.836
   78G       C8 2072   3.348   6.339   5.740
   78G       H8 2073   3.307   6.257   5.683
   78G       N7 2074   3.458   6.395   5.700
   78G       C5 2075   3.463   6.507   5.778
   78G       C6 2076   3.561   6.610   5.789
   78G       O6 2077   3.665   6.626   5.723
   78G       N1 2078   3.517   6.713   5.877
   78G       H1 2079   3.587   6.784   5.892
   78G       C2 2080   3.413   6.703   5.964
   78G       N2 2081   3.393   6.791   6.054
   78G      H21 2082   3.452   6.873   6.058
   78G      H22 2083   3.326   6.765   6.125
   78G       N3 2084   3.335   6.597   5.961
   78G       C4 2085   3.354   6.516   5.861
   78G      C3' 2086   2.974   6.368   5.709
   78G      H3' 2087   3.028   6.346   5.617
   78G      C2' 2088   3.046   6.470   5.802
   78G     H2'1 2089   3.101   6.545   5.745
   78G      O2' 2090   2.960   6.525   5.902
   78G     HO'2 2091   3.016   6.582   5.955
   78G      O3' 2092   2.844   6.408   5.673
   79A        P 2093   2.831   6.496   5.544
   79A      O1P 2094   2.687   6.528   5.536
   79A      O2P 2095   2.895   6.438   5.420
   79A      O5' 2096   2.910   6.633   5.566
   79A      C5' 2097   2.857   6.730   5.659
   79A     H5'1 2098   2.832   6.691   5.757
   79A     H5'2 2099   2.768   6.775   5.614
   79A      C4' 2100   2.948   6.844   5.691
   79A      H4' 2101   2.899   6.899   5.771
   79A      O4' 2102   3.074   6.793   5.742
   79A      C1' 2103   3.164   6.902   5.713
   79A      H1' 2104   3.198   6.935   5.811
   79A       N9 2105   3.278   6.850   5.629
   79A       C8 2106   3.288   6.748   5.537
   79A       H8 2107   3.205   6.681   5.520
   79A       N7 2108   3.407   6.742   5.484
   79A       C5 2109   3.478   6.852   5.543
   79A       C6 2110   3.605   6.914   5.520
   79A       N6 2111   3.687   6.863   5.434
   79A      H61 2112   3.642   6.806   5.364
   79A      H62 2113   3.786   6.882   5.427
   79A       N1 2114   3.645   7.029   5.591
   79A       C2 2115   3.555   7.073   5.678
   79A       H2 2116   3.573   7.167   5.728
   79A       N3 2117   3.430   7.030   5.703
   79A       C4 2118   3.402   6.914   5.636
   79A      C3' 2119   2.980   6.937   5.568
   79A      H3' 2120   3.031   6.875   5.494
   79A      C2' 2121   3.096   7.016   5.638
   79A     H2'1 2122   3.164   7.066   5.569
   79A      O2' 2123   3.054   7.113   5.732
   79A     HO'2 2124   3.096   7.195   5.703
   79A      O3' 2125   2.885   7.026   5.522
   80A        P 2126   2.902   7.109   5.386
   80A      O1P 2127   2.774   7.172   5.352
   80A      O2P 2128   2.970   7.024   5.288
   80A      O5' 2129   3.002   7.227   5.411
   80A      C5' 2130   2.966   7.332   5.495
   80A     H5'1 2131   2.909   7.299   5.582
   80A     H5'2 2132   2.911   7.408   5.440
   80A      C4' 2133   3.094   7.396   5.550
   80A      H4' 2134   3.063   7.464   5.629
   80A      O4' 2135   3.187   7.308   5.606
   80A      C1' 2136   3.318   7.352   5.586
   80A      H1' 2137   3.370   7.340   5.681
   80A       N9 2138   3.390   7.284   5.483
   80A       C8 2139   3.345   7.189   5.398
   80A       H8 2140   3.248   7.141   5.398
   80A       N7 2141   3.437   7.143   5.322
   80A       C5 2142   3.544   7.223   5.346
   80A       C6 2143   3.677   7.229   5.295
   80A       N6 2144   3.719   7.160   5.199
   80A      H61 2145   3.656   7.088   5.166
   80A      H62 2146   3.818   7.147   5.188
   80A       N1 2147   3.761   7.325   5.330
   80A       C2 2148   3.711   7.404   5.424
   80A       H2 2149   3.782   7.474   5.465
   80A       N3 2150   3.593   7.415   5.484
   80A       C4 2151   3.511   7.316   5.437
   80A      C3' 2152   3.175   7.491   5.457
   80A      H3' 2153   3.197   7.454   5.357
   80A      C2' 2154   3.302   7.500   5.547
   80A     H2'1 2155   3.383   7.538   5.485
   80A      O2' 2156   3.290   7.580   5.665
   80A     HO'2 2157   3.205   7.625   5.664
   80A      O3' 2158   3.107   7.618   5.450
   81G        P 2159   3.093   7.709   5.317
   81G      O1P 2160   3.016   7.834   5.343
   81G      O2P 2161   3.057   7.628   5.200
   81G      O5' 2162   3.236   7.756   5.285
   81G      C5' 2163   3.315   7.829   5.383
   81G     H5'1 2164   3.293   7.782   5.479
   81G     H5'2 2165   3.297   7.937   5.378
   81G      C4' 2166   3.463   7.814   5.349
   81G      H4' 2167   3.520   7.873   5.421
   81G      O4' 2168   3.518   7.683   5.363
   81G      C1' 2169   3.614   7.679   5.258
   81G      H1' 2170   3.710   7.644   5.295
   81G       N9 2171   3.576   7.573   5.158
   81G       C8 2172   3.458   7.546   5.098
   81G       H8 2173   3.364   7.579   5.140
   81G       N7 2174   3.466   7.447   5.014
   81G       C5 2175   3.604   7.431   4.993
   81G       C6 2176   3.679   7.350   4.892
   81G       O6 2177   3.637   7.270   4.804
   81G       N1 2178   3.815   7.369   4.900
   81G       H1 2179   3.873   7.301   4.853
   81G       C2 2180   3.871   7.470   4.976
   81G       N2 2181   3.993   7.506   4.959
   81G      H21 2182   4.048   7.448   4.897
   81G      H22 2183   4.026   7.568   5.031
   81G       N3 2184   3.808   7.545   5.067
   81G       C4 2185   3.676   7.515   5.077
   81G      C3' 2186   3.494   7.881   5.217
   81G      H3' 2187   3.429   7.843   5.138
   81G      C2' 2188   3.632   7.816   5.187
   81G     H2'1 2189   3.658   7.799   5.082
   81G      O2' 2190   3.733   7.889   5.242
   81G     HO'2 2191   3.706   7.981   5.251
   81G      O3' 2192   3.502   8.026   5.222
   82U        P 2193   3.488   8.132   5.107
   82U      O1P 2194   3.553   8.260   5.147
   82U      O2P 2195   3.344   8.132   5.068
   82U      O5' 2196   3.570   8.089   4.977
   82U      C5' 2197   3.710   8.122   4.967
   82U     H5'1 2198   3.758   8.114   5.064
   82U     H5'2 2199   3.721   8.225   4.933
   82U      C4' 2200   3.775   8.039   4.855
   82U      H4' 2201   3.874   8.079   4.836
   82U      O4' 2202   3.782   7.904   4.882
   82U      C1' 2203   3.780   7.834   4.753
   82U      H1' 2204   3.873   7.778   4.748
   82U       N1 2205   3.665   7.736   4.754
   82U       C6 2206   3.539   7.774   4.798
   82U       H6 2207   3.524   7.875   4.834
   82U       C5 2208   3.437   7.695   4.772
   82U       H5 2209   3.335   7.728   4.785
   82U       C4 2210   3.444   7.564   4.703
   82U       O4 2211   3.345   7.491   4.675
   82U       N3 2212   3.569   7.534   4.668
   82U       H3 2213   3.581   7.451   4.612
   82U       C2 2214   3.678   7.613   4.684
   82U       O2 2215   3.790   7.573   4.645
   82U      C3' 2216   3.710   8.054   4.716
   82U      H3' 2217   3.601   8.048   4.725
   82U      C2' 2218   3.758   7.932   4.643
   82U     H2'1 2219   3.679   7.895   4.577
   82U      O2' 2220   3.879   7.940   4.571
   82U     HO'2 2221   3.860   8.006   4.503
   82U      O3' 2222   3.742   8.166   4.646
   83G        P 2223   3.662   8.203   4.521
   83G      O1P 2224   3.644   8.353   4.518
   83G      O2P 2225   3.530   8.116   4.519
   83G      O5' 2226   3.754   8.160   4.403
   83G      C5' 2227   3.862   8.243   4.373
   83G     H5'1 2228   3.922   8.258   4.462
   83G     H5'2 2229   3.825   8.341   4.343
   83G      C4' 2230   3.952   8.178   4.266
   83G      H4' 2231   4.041   8.236   4.242
   83G      O4' 2232   4.002   8.053   4.304
   83G      C1' 2233   4.000   7.962   4.195
   83G      H1' 2234   4.099   7.924   4.172
   83G       N9 2235   3.906   7.848   4.215
   83G       C8 2236   3.783   7.847   4.271
   83G       H8 2237   3.742   7.935   4.319
   83G       N7 2238   3.725   7.725   4.275
   83G       C5 2239   3.821   7.648   4.204
   83G       C6 2240   3.817   7.509   4.165
   83G       O6 2241   3.734   7.425   4.188
   83G       N1 2242   3.915   7.474   4.077
   83G       H1 2243   3.911   7.381   4.037
   83G       C2 2244   4.026   7.550   4.060
   83G       N2 2245   4.116   7.509   3.976
   83G      H21 2246   4.110   7.411   3.955
   83G      H22 2247   4.195   7.569   3.958
   83G       N3 2248   4.031   7.678   4.089
   83G       C4 2249   3.928   7.723   4.166
   83G      C3' 2250   3.881   8.162   4.129
   83G      H3' 2251   3.775   8.136   4.140
   83G      C2' 2252   3.954   8.042   4.078
   83G     H2'1 2253   3.893   7.984   4.008
   83G      O2' 2254   4.075   8.079   4.006
   83G     HO'2 2255   4.141   8.122   4.061
   83G      O3' 2256   3.888   8.279   4.045
   83G      H3T 2257   3.924   8.253   3.960
  11.10136  11.10136  11.10136
